<event>
 6    1  0.4180481E-002  0.1494524E+03  0.7546771E-02  0.1201147E+00
         21   -1    0    0  504  502  0.00000000000E+00  0.00000000000E+00  0.30888260334E+02  0.30888260334E+02  0.00000000000E+00 0.  1.
         21   -1    0    0  502  503 -0.00000000000E+00 -0.00000000000E+00 -0.10416135436E+04  0.10416135436E+04  0.00000000000E+00 0. -1.
         25    2    1    2    0    0 -0.11341205195E+02 -0.81134424290E+02 -0.16423571579E+03  0.22205721104E+03  0.12499846756E+03 0.  0.
          5    1    3    3  501    0 -0.65989295585E+02 -0.31271908221E+02 -0.61579056092E+02  0.95522298574E+02  0.10000000000E+00 0. -1.
         -5    1    3    3    0  501  0.54648090390E+02 -0.49862516069E+02 -0.10265665970E+03  0.12653491246E+03  0.10000000000E+00 0. -1.
         21    1    1    2  504  503  0.11341205195E+02  0.81134424290E+02 -0.84648956746E+03  0.85044459288E+03  0.00000000000E+00 0. -1.
<mgrwt>
<rscale>  1 0.14945245E+03</rscale>
<asrwt>0</asrwt>
<pdfrwt beam="1">  1       21 0.47520394E-02 0.14945245E+03</pdfrwt>
<pdfrwt beam="2">  1       21 0.16024826E+00 0.14945245E+03</pdfrwt>
<totfact> 0.75253139E+04</totfact>
</mgrwt>
</event>
<event>
 6    1  0.4180481E-002  0.1564694E+03  0.7546771E-02  0.1192741E+00
         21   -1    0    0  503  502  0.00000000000E+00  0.00000000000E+00  0.37038878037E+03  0.37038878037E+03  0.00000000000E+00 0.  1.
         21   -1    0    0  504  503 -0.00000000000E+00 -0.00000000000E+00 -0.43609816617E+02  0.43609816617E+02  0.00000000000E+00 0.  1.
         25    2    1    2    0    0  0.31264799005E+02  0.88771589977E+02  0.23655608843E+03  0.28362202671E+03  0.12499915289E+03 0.  0.
          5    1    3    3  501    0 -0.86408211376E+01 -0.28506807015E+02  0.69761871861E+02  0.75855326785E+02  0.10000000000E+00 0. -1.
         -5    1    3    3    0  501  0.39905620142E+02  0.11727839699E+03  0.16679421656E+03  0.20776669993E+03  0.10000000000E+00 0. -1.
         21    1    1    2  504  502 -0.31264799005E+02 -0.88771589977E+02  0.90222875330E+02  0.13037657027E+03  0.00000000000E+00 0.  1.
<mgrwt>
<rscale>  1 0.15646939E+03</rscale>
<asrwt>0</asrwt>
<pdfrwt beam="1">  1       21 0.56982887E-01 0.15646939E+03</pdfrwt>
<pdfrwt beam="2">  1       21 0.67092028E-02 0.15646939E+03</pdfrwt>
<totfact> 0.47400120E+05</totfact>
</mgrwt>
</event>
<event>
 6    1  0.4180481E-002  0.1350177E+03  0.7546771E-02  0.1220195E+00
         21   -1    0    0  504  502  0.00000000000E+00  0.00000000000E+00  0.16451058302E+04  0.16451058302E+04  0.00000000000E+00 0. -1.
         21   -1    0    0  502  503 -0.00000000000E+00 -0.00000000000E+00 -0.52819471296E+01  0.52819471296E+01  0.00000000000E+00 0. -1.
         25    2    1    2    0    0 -0.44218089395E+02  0.25342947725E+02  0.12398183708E+04  0.12471485007E+04  0.12502913906E+03 0.  0.
          5    1    3    3  501    0 -0.36040742394E+02  0.72806522327E+02  0.93800604956E+03  0.94151743681E+03  0.10000000000E+00 0.  1.
         -5    1    3    3    0  501 -0.81773470015E+01 -0.47463574601E+02  0.30181232128E+03  0.30563106385E+03  0.10000000000E+00 0.  1.
         21    1    1    2  504  503  0.44218089395E+02 -0.25342947725E+02  0.40000551228E+03  0.40323927672E+03  0.00000000000E+00 0. -1.
<mgrwt>
<rscale>  1 0.13501774E+03</rscale>
<asrwt>0</asrwt>
<pdfrwt beam="1">  1       21 0.25309280E+00 0.13501774E+03</pdfrwt>
<pdfrwt beam="2">  1       21 0.81260856E-03 0.13501774E+03</pdfrwt>
<totfact> 0.34413145E+05</totfact>
</mgrwt>
</event>
<event>
 6    1  0.4180481E-002  0.1278372E+03  0.7546771E-02  0.1230701E+00
         21   -1    0    0  503  502  0.00000000000E+00  0.00000000000E+00  0.29019720444E+02  0.29019720444E+02  0.00000000000E+00 0.  1.
         21   -1    0    0  504  503 -0.00000000000E+00 -0.00000000000E+00 -0.20596400381E+03  0.20596400381E+03  0.00000000000E+00 0.  1.
         25    2    1    2    0    0 -0.13676470665E+01 -0.26740901376E+02 -0.14531681602E+03  0.19354409400E+03  0.12500157215E+03 0.  0.
          5    1    3    3  501    0 -0.38371854910E+02 -0.60775410049E+02 -0.11251837916E+03  0.13351571205E+03  0.10000000000E+00 0.  1.
         -5    1    3    3    0  501  0.37004207844E+02  0.34034508673E+02 -0.32798436854E+02  0.60028381944E+02  0.10000000000E+00 0.  1.
         21    1    1    2  504  502  0.13676470665E+01  0.26740901376E+02 -0.31627467353E+02  0.41439630260E+02  0.00000000000E+00 0.  1.
<mgrwt>
<rscale>  1 0.12783716E+03</rscale>
<asrwt>0</asrwt>
<pdfrwt beam="1">  1       21 0.44645725E-02 0.12783716E+03</pdfrwt>
<pdfrwt beam="2">  1       21 0.31686769E-01 0.12783716E+03</pdfrwt>
<totfact> 0.30887293E+06</totfact>
</mgrwt>
</event>
<event>
 6    1  0.4180481E-002  0.1260995E+03  0.7546771E-02  0.1233361E+00
         21   -1    0    0  503  502  0.00000000000E+00  0.00000000000E+00  0.35402702735E+03  0.35402702735E+03  0.00000000000E+00 0.  1.
         21   -1    0    0  504  503 -0.00000000000E+00 -0.00000000000E+00 -0.15935037117E+02  0.15935037117E+02  0.00000000000E+00 0.  1.
         25    2    1    2    0    0  0.16982270687E+01  0.16586967366E+02  0.32548693214E+03  0.34905993656E+03  0.12499233919E+03 0.  0.
          5    1    3    3  501    0  0.17456457695E+02  0.53166741465E+02  0.65982368083E+02  0.86516548770E+02  0.10000000000E+00 0.  1.
         -5    1    3    3    0  501 -0.15758230626E+02 -0.36579774099E+02  0.25950456406E+03  0.26254338779E+03  0.10000000000E+00 0.  1.
         21    1    1    2  504  502 -0.16982270687E+01 -0.16586967366E+02  0.12605058096E+02  0.20902127911E+02  0.00000000000E+00 0.  1.
<mgrwt>
<rscale>  1 0.12609955E+03</rscale>
<asrwt>0</asrwt>
<pdfrwt beam="1">  1       21 0.54465691E-01 0.12609955E+03</pdfrwt>
<pdfrwt beam="2">  1       21 0.24515444E-02 0.12609955E+03</pdfrwt>
<totfact> 0.27883233E+06</totfact>
</mgrwt>
</event>
<event>
 6    1  0.4180481E-002  0.1311671E+03  0.7546771E-02  0.1225734E+00
         21   -1    0    0  504  502  0.00000000000E+00  0.00000000000E+00  0.34454677976E+02  0.34454677976E+02  0.00000000000E+00 0. -1.
         21   -1    0    0  502  503 -0.00000000000E+00 -0.00000000000E+00 -0.45170443538E+03  0.45170443538E+03  0.00000000000E+00 0. -1.
         25    2    1    2    0    0 -0.32936656765E+02  0.22239353752E+02 -0.96210073279E+02  0.16266894195E+03  0.12500157703E+03 0.  0.
          5    1    3    3  501    0  0.22596292893E+02  0.24760854155E+02 -0.10143802371E+03  0.10683339836E+03  0.10000000000E+00 0.  1.
         -5    1    3    3    0  501 -0.55532949658E+02 -0.25215004025E+01  0.52279504311E+01  0.55835543588E+02  0.10000000000E+00 0.  1.
         21    1    1    2  504  503  0.32936656765E+02 -0.22239353752E+02 -0.32103968412E+03  0.32349017141E+03  0.00000000000E+00 0. -1.
<mgrwt>
<rscale>  1 0.13116709E+03</rscale>
<asrwt>0</asrwt>
<pdfrwt beam="1">  1       21 0.53007197E-02 0.13116709E+03</pdfrwt>
<pdfrwt beam="2">  1       21 0.69492990E-01 0.13116709E+03</pdfrwt>
<totfact> 0.46335993E+05</totfact>
</mgrwt>
</event>
<event>
 6    1  0.4180481E-002  0.1266748E+03  0.7546771E-02  0.1232475E+00
         21   -1    0    0  504  502  0.00000000000E+00  0.00000000000E+00  0.10777829776E+02  0.10777829776E+02  0.00000000000E+00 0.  1.
         21   -1    0    0  502  503 -0.00000000000E+00 -0.00000000000E+00 -0.56282027071E+03  0.56282027071E+03  0.00000000000E+00 0.  1.
         25    2    1    2    0    0 -0.19786210999E+02  0.52880037302E+01 -0.38498598982E+03  0.40529089628E+03  0.12500816421E+03 0.  0.
          5    1    3    3  501    0  0.20648168695E+02 -0.40874310699E+02 -0.65230748524E+02  0.79700167494E+02  0.10000000000E+00 0. -1.
         -5    1    3    3    0  501 -0.40434379693E+02  0.46162314429E+02 -0.31975524129E+03  0.32559072878E+03  0.10000000000E+00 0. -1.
         21    1    1    2  504  503  0.19786210999E+02 -0.52880037302E+01 -0.16705645112E+03  0.16830720421E+03  0.00000000000E+00 0.  1.
<mgrwt>
<rscale>  1 0.12667477E+03</rscale>
<asrwt>0</asrwt>
<pdfrwt beam="1">  1       21 0.16581272E-02 0.12667477E+03</pdfrwt>
<pdfrwt beam="2">  1       21 0.86587760E-01 0.12667477E+03</pdfrwt>
<totfact> 0.19130105E+06</totfact>
</mgrwt>
</event>
<event>
 6    1  0.4180481E-002  0.1264242E+03  0.7546771E-02  0.1232860E+00
         21   -1    0    0  504  502  0.00000000000E+00  0.00000000000E+00  0.97923631658E+02  0.97923631658E+02  0.00000000000E+00 0. -1.
         21   -1    0    0  502  503 -0.00000000000E+00 -0.00000000000E+00 -0.20310752991E+03  0.20310752991E+03  0.00000000000E+00 0. -1.
         25    2    1    2    0    0 -0.85984398638E+00 -0.18880174602E+02  0.56336758834E+02  0.13840852172E+03  0.12500355261E+03 0.  0.
          5    1    3    3  501    0 -0.26567500071E+02 -0.57326286662E+02  0.65775236067E+02  0.91205958589E+02  0.10000000000E+00 0. -1.
         -5    1    3    3    0  501  0.25707656085E+02  0.38446112060E+02 -0.94384772340E+01  0.47202563134E+02  0.10000000000E+00 0. -1.
         21    1    1    2  504  503  0.85984398638E+00  0.18880174602E+02 -0.16152065709E+03  0.16262263985E+03  0.00000000000E+00 0. -1.
<mgrwt>
<rscale>  1 0.12642424E+03</rscale>
<asrwt>0</asrwt>
<pdfrwt beam="1">  1       21 0.15065174E-01 0.12642424E+03</pdfrwt>
<pdfrwt beam="2">  1       21 0.31247312E-01 0.12642424E+03</pdfrwt>
<totfact> 0.38724253E+05</totfact>
</mgrwt>
</event>
<event>
 6    1  0.4180481E-002  0.1368572E+03  0.7546771E-02  0.1217622E+00
         21   -1    0    0  503  502  0.00000000000E+00  0.00000000000E+00  0.14000657379E+03  0.14000657379E+03  0.00000000000E+00 0. -1.
         21   -1    0    0  504  503 -0.00000000000E+00 -0.00000000000E+00 -0.66251071746E+02  0.66251071746E+02  0.00000000000E+00 0. -1.
         25    2    1    2    0    0 -0.43970531801E+02 -0.34245430772E+02  0.54047181700E+02  0.14714271438E+03  0.12499489329E+03 0.  0.
          5    1    3    3  501    0 -0.35037092084E+02 -0.73346788478E+02  0.18391470906E+01  0.81306467540E+02  0.10000000000E+00 0. -1.
         -5    1    3    3    0  501 -0.89334397169E+01  0.39101357706E+02  0.52208034610E+02  0.65836246836E+02  0.10000000000E+00 0. -1.
         21    1    1    2  504  502  0.43970531801E+02  0.34245430772E+02  0.19708320347E+02  0.59114931164E+02  0.00000000000E+00 0. -1.
<mgrwt>
<rscale>  1 0.13685715E+03</rscale>
<asrwt>0</asrwt>
<pdfrwt beam="1">  1       21 0.21539473E-01 0.13685715E+03</pdfrwt>
<pdfrwt beam="2">  1       21 0.10192473E-01 0.13685715E+03</pdfrwt>
<totfact> 0.15722555E+06</totfact>
</mgrwt>
</event>
<event>
 6    1  0.4180481E-002  0.1262845E+03  0.7546771E-02  0.1233075E+00
         21   -1    0    0  504  502  0.00000000000E+00  0.00000000000E+00  0.22665544277E+03  0.22665544277E+03  0.00000000000E+00 0.  1.
         21   -1    0    0  502  503 -0.00000000000E+00 -0.00000000000E+00 -0.27932409436E+02  0.27932409436E+02  0.00000000000E+00 0.  1.
         25    2    1    2    0    0 -0.56241480855E+01  0.16421629267E+02  0.20069231383E+03  0.23711847857E+03  0.12508583892E+03 0.  0.
          5    1    3    3  501    0 -0.31976416368E+02  0.64183361518E+02  0.11642022620E+03  0.13673212559E+03  0.10000000000E+00 0.  1.
         -5    1    3    3    0  501  0.26352268282E+02 -0.47761732250E+02  0.84272087633E+02  0.10038635298E+03  0.10000000000E+00 0.  1.
         21    1    1    2  504  503  0.56241480855E+01 -0.16421629267E+02 -0.19692804992E+01  0.17469373634E+02  0.00000000000E+00 0.  1.
<mgrwt>
<rscale>  1 0.12628447E+03</rscale>
<asrwt>0</asrwt>
<pdfrwt beam="1">  1       21 0.34870067E-01 0.12628447E+03</pdfrwt>
<pdfrwt beam="2">  1       21 0.42972939E-02 0.12628447E+03</pdfrwt>
<totfact> 0.27297712E+06</totfact>
</mgrwt>
</event>
<event>
 6    1  0.4180481E-002  0.1272243E+03  0.7546771E-02  0.1231633E+00
         21   -1    0    0  503  502  0.00000000000E+00  0.00000000000E+00  0.62523031032E+02  0.62523031032E+02  0.00000000000E+00 0. -1.
         21   -1    0    0  504  503 -0.00000000000E+00 -0.00000000000E+00 -0.13172925943E+03  0.13172925943E+03  0.00000000000E+00 0. -1.
         25    2    1    2    0    0  0.51474714150E+01  0.23147890932E+02 -0.67017325397E+01  0.12740071367E+03  0.12499482913E+03 0.  0.
          5    1    3    3  501    0  0.13003060525E+02 -0.50046521595E+02  0.80250201416E+01  0.52327285951E+02  0.10000000000E+00 0.  1.
         -5    1    3    3    0  501 -0.78555891098E+01  0.73194412527E+02 -0.14726752681E+02  0.75073427722E+02  0.10000000000E+00 0.  1.
         21    1    1    2  504  502 -0.51474714150E+01 -0.23147890932E+02 -0.62504495859E+02  0.66851576789E+02  0.00000000000E+00 0. -1.
<mgrwt>
<rscale>  1 0.12722432E+03</rscale>
<asrwt>0</asrwt>
<pdfrwt beam="1">  1       21 0.96189279E-02 0.12722432E+03</pdfrwt>
<pdfrwt beam="2">  1       21 0.20266040E-01 0.12722432E+03</pdfrwt>
<totfact> 0.19452364E+06</totfact>
</mgrwt>
</event>
<event>
 6    1  0.4180481E-002  0.1274563E+03  0.7546771E-02  0.1231280E+00
         21   -1    0    0  503  502  0.00000000000E+00  0.00000000000E+00  0.14357562023E+03  0.14357562023E+03  0.00000000000E+00 0. -1.
         21   -1    0    0  504  503 -0.00000000000E+00 -0.00000000000E+00 -0.50001503734E+02  0.50001503734E+02  0.00000000000E+00 0. -1.
         25    2    1    2    0    0  0.24721670103E+02 -0.28976916416E+01  0.10598405247E+03  0.16576410362E+03  0.12500224431E+03 0.  0.
          5    1    3    3  501    0  0.65888361298E+02  0.15232102149E+02  0.23103831360E+02  0.71463907771E+02  0.10000000000E+00 0.  1.
         -5    1    3    3    0  501 -0.41166691195E+02 -0.18129793791E+02  0.82880221110E+02  0.94300195854E+02  0.10000000000E+00 0.  1.
         21    1    1    2  504  502 -0.24721670103E+02  0.28976916416E+01 -0.12409935974E+02  0.27813020340E+02  0.00000000000E+00 0. -1.
<mgrwt>
<rscale>  1 0.12745634E+03</rscale>
<asrwt>0</asrwt>
<pdfrwt beam="1">  1       21 0.22088557E-01 0.12745634E+03</pdfrwt>
<pdfrwt beam="2">  1       21 0.76925391E-02 0.12745634E+03</pdfrwt>
<totfact> 0.24409574E+06</totfact>
</mgrwt>
</event>
<event>
 6    1  0.4180481E-002  0.1278279E+03  0.7546771E-02  0.1230715E+00
         21   -1    0    0  503  502  0.00000000000E+00  0.00000000000E+00  0.54013568354E+01  0.54013568354E+01  0.00000000000E+00 0. -1.
         21   -1    0    0  504  503 -0.00000000000E+00 -0.00000000000E+00 -0.11161589761E+04  0.11161589761E+04  0.00000000000E+00 0. -1.
         25    2    1    2    0    0 -0.11126451453E+02 -0.24326792651E+02 -0.95593210754E+03  0.96444085660E+03  0.12499752355E+03 0.  0.
          5    1    3    3  501    0 -0.28902744959E+02  0.42303198811E+02 -0.57819773889E+03  0.58046323273E+03  0.10000000000E+00 0.  1.
         -5    1    3    3    0  501  0.17776293506E+02 -0.66629991462E+02 -0.37773436865E+03  0.38397762387E+03  0.10000000000E+00 0.  1.
         21    1    1    2  504  502  0.11126451453E+02  0.24326792651E+02 -0.15482551170E+03  0.15711947631E+03  0.00000000000E+00 0. -1.
<mgrwt>
<rscale>  1 0.12782790E+03</rscale>
<asrwt>0</asrwt>
<pdfrwt beam="1">  1       21 0.83097676E-03 0.12782790E+03</pdfrwt>
<pdfrwt beam="2">  1       21 0.17171702E+00 0.12782790E+03</pdfrwt>
<totfact> 0.10591652E+06</totfact>
</mgrwt>
</event>
<event>
 6    1  0.4180481E-002  0.1270221E+03  0.7546771E-02  0.1231942E+00
         21   -1    0    0  503  502  0.00000000000E+00  0.00000000000E+00  0.15335255366E+04  0.15335255366E+04  0.00000000000E+00 0.  1.
         21   -1    0    0  504  503 -0.00000000000E+00 -0.00000000000E+00 -0.39691113750E+02  0.39691113750E+02  0.00000000000E+00 0.  1.
         25    2    1    2    0    0 -0.16099611657E+02 -0.15801180120E+02  0.15274560701E+04  0.15327285045E+04  0.12500299085E+03 0.  0.
          5    1    3    3  501    0  0.97755052411E+01 -0.56212261681E+02  0.37902397027E+03  0.38329435021E+03  0.10000000000E+00 0. -1.
         -5    1    3    3    0  501 -0.25875116898E+02  0.40411081562E+02  0.11484320998E+04  0.11494341543E+04  0.10000000000E+00 0. -1.
         21    1    1    2  504  502  0.16099611657E+02  0.15801180120E+02 -0.33621647247E+02  0.40488145824E+02  0.00000000000E+00 0.  1.
<mgrwt>
<rscale>  1 0.12702213E+03</rscale>
<asrwt>0</asrwt>
<pdfrwt beam="1">  1       21 0.23592696E+00 0.12702213E+03</pdfrwt>
<pdfrwt beam="2">  1       21 0.61063264E-02 0.12702213E+03</pdfrwt>
<totfact> 0.16453923E+04</totfact>
</mgrwt>
</event>
<event>
 6    1  0.4180481E-002  0.1361440E+03  0.7546771E-02  0.1218614E+00
         21   -1    0    0  504  502  0.00000000000E+00  0.00000000000E+00  0.20112071802E+02  0.20112071802E+02  0.00000000000E+00 0. -1.
         21   -1    0    0  502  503 -0.00000000000E+00 -0.00000000000E+00 -0.81148425663E+03  0.81148425663E+03  0.00000000000E+00 0. -1.
         25    2    1    2    0    0  0.49131341922E+02  0.22282721039E+02 -0.22732586001E+03  0.26497593967E+03  0.12499917424E+03 0.  0.
          5    1    3    3  501    0  0.70343179996E+02  0.52771005677E+02 -0.20116595602E+03  0.21954656425E+03  0.10000000000E+00 0. -1.
         -5    1    3    3    0  501 -0.21211838074E+02 -0.30488284638E+02 -0.26159903988E+02  0.45429375423E+02  0.10000000000E+00 0. -1.
         21    1    1    2  504  503 -0.49131341922E+02 -0.22282721039E+02 -0.56404632482E+03  0.56662038876E+03  0.00000000000E+00 0. -1.
<mgrwt>
<rscale>  1 0.13614405E+03</rscale>
<asrwt>0</asrwt>
<pdfrwt beam="1">  1       21 0.30941652E-02 0.13614405E+03</pdfrwt>
<pdfrwt beam="2">  1       21 0.12484372E+00 0.13614405E+03</pdfrwt>
<totfact> 0.29260432E+05</totfact>
</mgrwt>
</event>
<event>
 6    1  0.4180481E-002  0.1356248E+03  0.7546771E-02  0.1219340E+00
         21   -1    0    0  503  502  0.00000000000E+00  0.00000000000E+00  0.18643020257E+03  0.18643020257E+03  0.00000000000E+00 0.  1.
         21   -1    0    0  504  503 -0.00000000000E+00 -0.00000000000E+00 -0.51002360644E+02  0.51002360644E+02  0.00000000000E+00 0.  1.
         25    2    1    2    0    0 -0.48255881885E+01  0.52401118048E+02  0.12360023901E+03  0.18349690094E+03  0.12499972039E+03 0.  0.
          5    1    3    3  501    0 -0.40827642220E+01  0.38514384284E+02  0.14931833836E+03  0.15425953108E+03  0.10000000000E+00 0.  1.
         -5    1    3    3    0  501 -0.74282396657E+00  0.13886733765E+02 -0.25718099349E+02  0.29237369859E+02  0.10000000000E+00 0.  1.
         21    1    1    2  504  502  0.48255881885E+01 -0.52401118048E+02  0.11827602919E+02  0.53935662274E+02  0.00000000000E+00 0.  1.
<mgrwt>
<rscale>  1 0.13562483E+03</rscale>
<asrwt>0</asrwt>
<pdfrwt beam="1">  1       21 0.28681569E-01 0.13562483E+03</pdfrwt>
<pdfrwt beam="2">  1       21 0.78465171E-02 0.13562483E+03</pdfrwt>
<totfact> 0.14411261E+06</totfact>
</mgrwt>
</event>
<event>
 6    1  0.4180481E-002  0.1574032E+03  0.7546771E-02  0.1191660E+00
         21   -1    0    0  503  502  0.00000000000E+00  0.00000000000E+00  0.12997943720E+03  0.12997943720E+03  0.00000000000E+00 0.  1.
         21   -1    0    0  504  503 -0.00000000000E+00 -0.00000000000E+00 -0.65069919941E+03  0.65069919941E+03  0.00000000000E+00 0.  1.
         25    2    1    2    0    0 -0.67656312090E+02 -0.67624309501E+02  0.77087620071E+02  0.17526630595E+03  0.12500141212E+03 0.  0.
          5    1    3    3  501    0 -0.58827170313E+02 -0.10099895020E+03  0.78362312484E+02  0.14071988462E+03  0.10000000000E+00 0.  1.
         -5    1    3    3    0  501 -0.88291417769E+01  0.33374640698E+02 -0.12746924126E+01  0.34546421334E+02  0.10000000000E+00 0.  1.
         21    1    1    2  504  502  0.67656312090E+02  0.67624309501E+02 -0.59780738228E+03  0.60541233066E+03  0.00000000000E+00 0.  1.
<mgrwt>
<rscale>  1 0.15740323E+03</rscale>
<asrwt>0</asrwt>
<pdfrwt beam="1">  1       21 0.19996836E-01 0.15740323E+03</pdfrwt>
<pdfrwt beam="2">  1       21 0.10010757E+00 0.15740323E+03</pdfrwt>
<totfact> 0.19349581E+04</totfact>
</mgrwt>
</event>
<event>
 6    1  0.4180481E-002  0.1285829E+03  0.7546771E-02  0.1229574E+00
         21   -1    0    0  503  502  0.00000000000E+00  0.00000000000E+00  0.55982139490E+03  0.55982139490E+03  0.00000000000E+00 0.  1.
         21   -1    0    0  504  503 -0.00000000000E+00 -0.00000000000E+00 -0.14451308208E+02  0.14451308208E+02  0.00000000000E+00 0.  1.
         25    2    1    2    0    0 -0.22683187133E+02 -0.19852424131E+02  0.51744506792E+03  0.53318192074E+03  0.12499966625E+03 0.  0.
          5    1    3    3  501    0 -0.19050087764E+02 -0.12588099122E+02  0.87980014884E+01  0.24470000276E+02  0.10000000000E+00 0. -1.
         -5    1    3    3    0  501 -0.36330993693E+01 -0.72643250094E+01  0.50864706643E+03  0.50871192046E+03  0.10000000000E+00 0. -1.
         21    1    1    2  504  502  0.22683187133E+02  0.19852424131E+02  0.27925018768E+02  0.41090782368E+02  0.00000000000E+00 0.  1.
<mgrwt>
<rscale>  1 0.12858290E+03</rscale>
<asrwt>0</asrwt>
<pdfrwt beam="1">  1       21 0.86126352E-01 0.12858290E+03</pdfrwt>
<pdfrwt beam="2">  1       21 0.22232786E-02 0.12858290E+03</pdfrwt>
<totfact> 0.12074629E+06</totfact>
</mgrwt>
</event>
<event>
 6    1  0.4180481E-002  0.1283797E+03  0.7546771E-02  0.1229880E+00
         21   -1    0    0  503  502  0.00000000000E+00  0.00000000000E+00  0.52398488494E+02  0.52398488494E+02  0.00000000000E+00 0.  1.
         21   -1    0    0  504  503 -0.00000000000E+00 -0.00000000000E+00 -0.22905464778E+03  0.22905464778E+03  0.00000000000E+00 0.  1.
         25    2    1    2    0    0  0.29076429043E+02 -0.32499884644E+01 -0.29908852022E+02  0.13181766809E+03  0.12500142815E+03 0.  0.
          5    1    3    3  501    0  0.50581052148E+02  0.82001302978E+00 -0.69866763095E+02  0.86258274056E+02  0.10000000000E+00 0. -1.
         -5    1    3    3    0  501 -0.21504623105E+02 -0.40700014942E+01  0.39957911073E+02  0.45559394030E+02  0.10000000000E+00 0. -1.
         21    1    1    2  504  502 -0.29076429043E+02  0.32499884644E+01 -0.14674730727E+03  0.14963546819E+03  0.00000000000E+00 0.  1.
<mgrwt>
<rscale>  1 0.12837974E+03</rscale>
<asrwt>0</asrwt>
<pdfrwt beam="1">  1       21 0.80613059E-02 0.12837974E+03</pdfrwt>
<pdfrwt beam="2">  1       21 0.35239176E-01 0.12837974E+03</pdfrwt>
<totfact> 0.92138140E+05</totfact>
</mgrwt>
</event>
<event>
 6    1  0.4180481E-002  0.1291352E+03  0.7546771E-02  0.1228745E+00
         21   -1    0    0  503  502  0.00000000000E+00  0.00000000000E+00  0.15606522544E+03  0.15606522544E+03  0.00000000000E+00 0.  1.
         21   -1    0    0  504  503 -0.00000000000E+00 -0.00000000000E+00 -0.45525651063E+02  0.45525651063E+02  0.00000000000E+00 0.  1.
         25    2    1    2    0    0  0.11814097935E+02 -0.30167644787E+02  0.10927892349E+03  0.16916790714E+03  0.12500495184E+03 0.  0.
          5    1    3    3  501    0  0.46571291617E+02  0.29606013515E+02  0.26227171647E+02  0.61100538228E+02  0.10000000000E+00 0. -1.
         -5    1    3    3    0  501 -0.34757193682E+02 -0.59773658301E+02  0.83051751839E+02  0.10806736891E+03  0.10000000000E+00 0. -1.
         21    1    1    2  504  502 -0.11814097935E+02  0.30167644787E+02  0.12606508943E+01  0.32422969369E+02  0.00000000000E+00 0.  1.
<mgrwt>
<rscale>  1 0.12913519E+03</rscale>
<asrwt>0</asrwt>
<pdfrwt beam="1">  1       21 0.24010034E-01 0.12913519E+03</pdfrwt>
<pdfrwt beam="2">  1       21 0.70039464E-02 0.12913519E+03</pdfrwt>
<totfact> 0.24531178E+06</totfact>
</mgrwt>
</event>
<event>
 6    1  0.4180481E-002  0.1306813E+03  0.7546771E-02  0.1226448E+00
         21   -1    0    0  503  502  0.00000000000E+00  0.00000000000E+00  0.21755422508E+04  0.21755422508E+04  0.00000000000E+00 0.  1.
         21   -1    0    0  504  503 -0.00000000000E+00 -0.00000000000E+00 -0.47716334215E+02  0.47716334215E+02  0.00000000000E+00 0.  1.
         25    2    1    2    0    0 -0.14170916323E+01 -0.38094717431E+02  0.21656309642E+04  0.21695702505E+04  0.12499753253E+03 0.  0.
          5    1    3    3  501    0 -0.22110491052E+02 -0.66255850478E+02  0.69015934928E+03  0.69368483401E+03  0.10000000000E+00 0.  1.
         -5    1    3    3    0  501  0.20693399420E+02  0.28161133046E+02  0.14754716149E+04  0.14758854165E+04  0.10000000000E+00 0.  1.
         21    1    1    2  504  502  0.14170916323E+01  0.38094717431E+02 -0.37805047572E+02  0.53688334550E+02  0.00000000000E+00 0.  1.
<mgrwt>
<rscale>  1 0.13068129E+03</rscale>
<asrwt>0</asrwt>
<pdfrwt beam="1">  1       21 0.33469873E+00 0.13068129E+03</pdfrwt>
<pdfrwt beam="2">  1       21 0.73409762E-02 0.13068129E+03</pdfrwt>
<totfact> 0.32918757E+03</totfact>
</mgrwt>
</event>
<event>
 6    1  0.4180481E-002  0.1275301E+03  0.7546771E-02  0.1231167E+00
         21   -1    0    0  504  502  0.00000000000E+00  0.00000000000E+00  0.74734100233E+02  0.74734100233E+02  0.00000000000E+00 0.  1.
         21   -1    0    0  502  503 -0.00000000000E+00 -0.00000000000E+00 -0.21064209715E+03  0.21064209715E+03  0.00000000000E+00 0. -1.
         25    2    1    2    0    0 -0.23436410976E+02 -0.94732959521E+01  0.18542196944E+02  0.12887101830E+03  0.12499967038E+03 0.  0.
          5    1    3    3  501    0  0.39508094088E+01  0.30257782697E+02 -0.41707621167E+02  0.51678602653E+02  0.10000000000E+00 0. -1.
         -5    1    3    3    0  501 -0.27387220385E+02 -0.39731078649E+02  0.60249818111E+02  0.77192415648E+02  0.10000000000E+00 0. -1.
         21    1    1    2  504  503  0.23436410976E+02  0.94732959521E+01 -0.15445019386E+03  0.15650517908E+03  0.00000000000E+00 0. -1.
<mgrwt>
<rscale>  1 0.12753010E+03</rscale>
<asrwt>0</asrwt>
<pdfrwt beam="1">  1       21 0.11497554E-01 0.12753010E+03</pdfrwt>
<pdfrwt beam="2">  1       21 0.32406476E-01 0.12753010E+03</pdfrwt>
<totfact> 0.58421878E+05</totfact>
</mgrwt>
</event>
<event>
 6    1  0.4180481E-002  0.1269738E+03  0.7546771E-02  0.1232016E+00
         21   -1    0    0  503  502  0.00000000000E+00  0.00000000000E+00  0.25223344021E+02  0.25223344021E+02  0.00000000000E+00 0. -1.
         21   -1    0    0  504  503 -0.00000000000E+00 -0.00000000000E+00 -0.25121636262E+03  0.25121636262E+03  0.00000000000E+00 0. -1.
         25    2    1    2    0    0  0.22276291771E+02  0.10041668595E+01 -0.14644762591E+03  0.19382789741E+03  0.12500042062E+03 0.  0.
          5    1    3    3  501    0  0.38668522826E+02  0.56724366530E+02 -0.73351845793E+02  0.10046597283E+03  0.10000000000E+00 0.  1.
         -5    1    3    3    0  501 -0.16392231055E+02 -0.55720199670E+02 -0.73095780118E+02  0.93361924580E+02  0.10000000000E+00 0.  1.
         21    1    1    2  504  502 -0.22276291771E+02 -0.10041668595E+01 -0.79545392691E+02  0.82611809231E+02  0.00000000000E+00 0.  1.
<mgrwt>
<rscale>  1 0.12697380E+03</rscale>
<asrwt>0</asrwt>
<pdfrwt beam="1">  1       21 0.38805146E-02 0.12697380E+03</pdfrwt>
<pdfrwt beam="2">  1       21 0.38648670E-01 0.12697380E+03</pdfrwt>
<totfact> 0.26399076E+06</totfact>
</mgrwt>
</event>
<event>
 6    1  0.4180481E-002  0.1260975E+03  0.7546771E-02  0.1233364E+00
         21   -1    0    0  503  502  0.00000000000E+00  0.00000000000E+00  0.32149088157E+03  0.32149088157E+03  0.00000000000E+00 0.  1.
         21   -1    0    0  504  503 -0.00000000000E+00 -0.00000000000E+00 -0.20163260329E+02  0.20163260329E+02  0.00000000000E+00 0.  1.
         25    2    1    2    0    0  0.19102919304E+01  0.16933609483E+02  0.29893987382E+03  0.32444665274E+03  0.12494072984E+03 0.  0.
          5    1    3    3  501    0  0.32163618712E+02  0.35464437252E+02  0.28032082935E+03  0.28438003102E+03  0.10000000000E+00 0.  1.
         -5    1    3    3    0  501 -0.30253326782E+02 -0.18530827769E+02  0.18619044467E+02  0.40066621720E+02  0.10000000000E+00 0.  1.
         21    1    1    2  504  502 -0.19102919304E+01 -0.16933609483E+02  0.23877474283E+01  0.17207489159E+02  0.00000000000E+00 0.  1.
<mgrwt>
<rscale>  1 0.12609751E+03</rscale>
<asrwt>0</asrwt>
<pdfrwt beam="1">  1       21 0.49460132E-01 0.12609751E+03</pdfrwt>
<pdfrwt beam="2">  1       21 0.31020403E-02 0.12609751E+03</pdfrwt>
<totfact> 0.23185300E+06</totfact>
</mgrwt>
</event>
<event>
 6    1  0.4180481E-002  0.1527924E+03  0.7546771E-02  0.1197083E+00
         21   -1    0    0  503  502  0.00000000000E+00  0.00000000000E+00  0.14341875574E+04  0.14341875574E+04  0.00000000000E+00 0. -1.
         21   -1    0    0  504  503 -0.00000000000E+00 -0.00000000000E+00 -0.70790884221E+02  0.70790884221E+02  0.00000000000E+00 0. -1.
         25    2    1    2    0    0  0.17394867514E+02 -0.86112044306E+02  0.14010796075E+04  0.14093862394E+04  0.12501055904E+03 0.  0.
          5    1    3    3  501    0 -0.20646257654E+02 -0.12098484447E+01  0.86818851683E+03  0.86843482337E+03  0.10000000000E+00 0.  1.
         -5    1    3    3    0  501  0.38041125169E+02 -0.84902195861E+02  0.53289109063E+03  0.54095141606E+03  0.10000000000E+00 0.  1.
         21    1    1    2  504  502 -0.17394867514E+02  0.86112044306E+02 -0.37682934254E+02  0.95592202215E+02  0.00000000000E+00 0. -1.
<mgrwt>
<rscale>  1 0.15279236E+03</rscale>
<asrwt>0</asrwt>
<pdfrwt beam="1">  1       21 0.22064422E+00 0.15279236E+03</pdfrwt>
<pdfrwt beam="2">  1       21 0.10890906E-01 0.15279236E+03</pdfrwt>
<totfact> 0.72385721E+03</totfact>
</mgrwt>
</event>
<event>
 6    1  0.4180481E-002  0.1285716E+03  0.7546771E-02  0.1229591E+00
         21   -1    0    0  503  502  0.00000000000E+00  0.00000000000E+00  0.35358601992E+02  0.35358601992E+02  0.00000000000E+00 0. -1.
         21   -1    0    0  504  503 -0.00000000000E+00 -0.00000000000E+00 -0.23537852804E+03  0.23537852804E+03  0.00000000000E+00 0. -1.
         25    2    1    2    0    0  0.29011548089E+02 -0.80029935839E+01 -0.90683665282E+02  0.15733459149E+03  0.12499971481E+03 0.  0.
          5    1    3    3  501    0  0.24435264047E+02 -0.50906499437E+02  0.48710561304E+00  0.56469470387E+02  0.10000000000E+00 0.  1.
         -5    1    3    3    0  501  0.45762840425E+01  0.42903505853E+02 -0.91170770895E+02  0.10086512111E+03  0.10000000000E+00 0.  1.
         21    1    1    2  504  502 -0.29011548089E+02  0.80029935839E+01 -0.10933626076E+03  0.11340253854E+03  0.00000000000E+00 0. -1.
<mgrwt>
<rscale>  1 0.12857156E+03</rscale>
<asrwt>0</asrwt>
<pdfrwt beam="1">  1       21 0.54397850E-02 0.12857156E+03</pdfrwt>
<pdfrwt beam="2">  1       21 0.36212081E-01 0.12857156E+03</pdfrwt>
<totfact> 0.17078400E+06</totfact>
</mgrwt>
</event>
<event>
 6    1  0.4180481E-002  0.1267059E+03  0.7546771E-02  0.1232427E+00
         21   -1    0    0  503  502  0.00000000000E+00  0.00000000000E+00  0.10308641280E+03  0.10308641280E+03  0.00000000000E+00 0. -1.
         21   -1    0    0  504  503 -0.00000000000E+00 -0.00000000000E+00 -0.64456736639E+02  0.64456736639E+02  0.00000000000E+00 0.  1.
         25    2    1    2    0    0 -0.12673468699E+02  0.16370620601E+02  0.57855588518E+02  0.13928983576E+03  0.12500310074E+03 0.  0.
          5    1    3    3  501    0  0.90250568077E+01 -0.50851329380E+02  0.42776998831E+02  0.67061098850E+02  0.10000000000E+00 0.  1.
         -5    1    3    3    0  501 -0.21698525507E+02  0.67221949981E+02  0.15078589688E+02  0.72228736908E+02  0.10000000000E+00 0.  1.
         21    1    1    2  504  502  0.12673468699E+02 -0.16370620601E+02 -0.19225912360E+02  0.28253313678E+02  0.00000000000E+00 0.  1.
<mgrwt>
<rscale>  1 0.12670592E+03</rscale>
<asrwt>0</asrwt>
<pdfrwt beam="1">  1       21 0.15859448E-01 0.12670592E+03</pdfrwt>
<pdfrwt beam="2">  1       21 0.99164210E-02 0.12670592E+03</pdfrwt>
<totfact> 0.28882419E+06</totfact>
</mgrwt>
</event>
<event>
 6    1  0.4180481E-002  0.1261668E+03  0.7546771E-02  0.1233257E+00
         21   -1    0    0  503  502  0.00000000000E+00  0.00000000000E+00  0.93280592002E+01  0.93280592002E+01  0.00000000000E+00 0. -1.
         21   -1    0    0  504  503 -0.00000000000E+00 -0.00000000000E+00 -0.58372013654E+03  0.58372013654E+03  0.00000000000E+00 0. -1.
         25    2    1    2    0    0 -0.14361103181E+02  0.87823621878E+01 -0.44412728279E+03  0.46170023089E+03  0.12503874887E+03 0.  0.
          5    1    3    3  501    0  0.23327483974E+02 -0.38608768260E+02 -0.32451438828E+03  0.32763456273E+03  0.10000000000E+00 0.  1.
         -5    1    3    3    0  501 -0.37688587155E+02  0.47391130448E+02 -0.11961289451E+03  0.13406566816E+03  0.10000000000E+00 0.  1.
         21    1    1    2  504  502  0.14361103181E+02 -0.87823621878E+01 -0.13026479455E+03  0.13134796485E+03  0.00000000000E+00 0. -1.
<mgrwt>
<rscale>  1 0.12616679E+03</rscale>
<asrwt>0</asrwt>
<pdfrwt beam="1">  1       21 0.14350861E-02 0.12616679E+03</pdfrwt>
<pdfrwt beam="2">  1       21 0.89803092E-01 0.12616679E+03</pdfrwt>
<totfact> 0.22176902E+06</totfact>
</mgrwt>
</event>
<event>
 6    1  0.4180481E-002  0.1261435E+03  0.7546771E-02  0.1233293E+00
         21   -1    0    0  504  502  0.00000000000E+00  0.00000000000E+00  0.19228085839E+03  0.19228085839E+03  0.00000000000E+00 0. -1.
         21   -1    0    0  502  503 -0.00000000000E+00 -0.00000000000E+00 -0.34440353053E+02  0.34440353053E+02  0.00000000000E+00 0. -1.
         25    2    1    2    0    0  0.38712182467E+01 -0.16508809765E+02  0.16551866930E+03  0.20810720241E+03  0.12499860271E+03 0.  0.
          5    1    3    3  501    0 -0.39079606698E+02 -0.20782316724E+02  0.15826630622E+03  0.16433914334E+03  0.10000000000E+00 0.  1.
         -5    1    3    3    0  501  0.42950824944E+02  0.42735069585E+01  0.72523630766E+01  0.43768059076E+02  0.10000000000E+00 0.  1.
         21    1    1    2  504  503 -0.38712182467E+01  0.16508809765E+02 -0.76781639552E+01  0.18614009034E+02  0.00000000000E+00 0. -1.
<mgrwt>
<rscale>  1 0.12614348E+03</rscale>
<asrwt>0</asrwt>
<pdfrwt beam="1">  1       21 0.29581670E-01 0.12614348E+03</pdfrwt>
<pdfrwt beam="2">  1       21 0.52985160E-02 0.12614348E+03</pdfrwt>
<totfact> 0.26458861E+06</totfact>
</mgrwt>
</event>
<event>
 6    1  0.4180481E-002  0.1355788E+03  0.7546771E-02  0.1219405E+00
         21   -1    0    0  504  502  0.00000000000E+00  0.00000000000E+00  0.12015936112E+03  0.12015936112E+03  0.00000000000E+00 0.  1.
         21   -1    0    0  502  503 -0.00000000000E+00 -0.00000000000E+00 -0.78704045210E+02  0.78704045210E+02  0.00000000000E+00 0.  1.
         25    2    1    2    0    0  0.24929451390E+02  0.46206370039E+02  0.52186048482E+02  0.14527558308E+03  0.12500042082E+03 0.  0.
          5    1    3    3  501    0  0.31650374998E+02  0.60377585246E+02 -0.20286765191E+02  0.71124973670E+02  0.10000000000E+00 0. -1.
         -5    1    3    3    0  501 -0.67209236086E+01 -0.14171215206E+02  0.72472813674E+02  0.74150609413E+02  0.10000000000E+00 0. -1.
         21    1    1    2  504  503 -0.24929451390E+02 -0.46206370039E+02 -0.10730732572E+02  0.53587823247E+02  0.00000000000E+00 0.  1.
<mgrwt>
<rscale>  1 0.13557880E+03</rscale>
<asrwt>0</asrwt>
<pdfrwt beam="1">  1       21 0.18486056E-01 0.13557880E+03</pdfrwt>
<pdfrwt beam="2">  1       21 0.12108315E-01 0.13557880E+03</pdfrwt>
<totfact> 0.15394896E+06</totfact>
</mgrwt>
</event>
<event>
 6    1  0.4180481E-002  0.1275318E+03  0.7546771E-02  0.1231165E+00
         21   -1    0    0  503  502  0.00000000000E+00  0.00000000000E+00  0.62048367502E+03  0.62048367502E+03  0.00000000000E+00 0. -1.
         21   -1    0    0  504  503 -0.00000000000E+00 -0.00000000000E+00 -0.12502701790E+02  0.12502701790E+02  0.00000000000E+00 0. -1.
         25    2    1    2    0    0  0.19857086799E+02  0.15682720600E+02  0.58521224583E+03  0.59894718515E+03  0.12499642517E+03 0.  0.
          5    1    3    3  501    0  0.54118457057E+02  0.43702004302E+02  0.47681417370E+03  0.48186143113E+03  0.10000000000E+00 0.  1.
         -5    1    3    3    0  501 -0.34261370258E+02 -0.28019283702E+02  0.10839807214E+03  0.11708575402E+03  0.10000000000E+00 0.  1.
         21    1    1    2  504  502 -0.19857086799E+02 -0.15682720600E+02  0.22768727397E+02  0.34039191660E+02  0.00000000000E+00 0. -1.
<mgrwt>
<rscale>  1 0.12753179E+03</rscale>
<asrwt>0</asrwt>
<pdfrwt beam="1">  1       21 0.95459003E-01 0.12753179E+03</pdfrwt>
<pdfrwt beam="2">  1       21 0.19234931E-02 0.12753179E+03</pdfrwt>
<totfact> 0.12055053E+06</totfact>
</mgrwt>
</event>
<event>
 6    1  0.4180481E-002  0.1901781E+03  0.7546771E-02  0.1158301E+00
         21   -1    0    0  504  502  0.00000000000E+00  0.00000000000E+00  0.43387765883E+02  0.43387765883E+02  0.00000000000E+00 0.  1.
         21   -1    0    0  502  503 -0.00000000000E+00 -0.00000000000E+00 -0.11110875702E+04  0.11110875702E+04  0.00000000000E+00 0.  1.
         25    2    1    2    0    0  0.12295629094E+03  0.73659299615E+02 -0.20374132289E+03  0.27870812984E+03  0.12499501224E+03 0.  0.
          5    1    3    3  501    0  0.41763428034E+02  0.33530111272E+02  0.23339999213E+01  0.53608859704E+02  0.10000000000E+00 0. -1.
         -5    1    3    3    0  501  0.81192862908E+02  0.40129188342E+02 -0.20607532281E+03  0.22509927013E+03  0.10000000000E+00 0. -1.
         21    1    1    2  504  503 -0.12295629094E+03 -0.73659299615E+02 -0.86395848146E+03  0.87576720628E+03  0.00000000000E+00 0.  1.
<mgrwt>
<rscale>  1 0.19017806E+03</rscale>
<asrwt>0</asrwt>
<pdfrwt beam="1">  1       21 0.66750407E-02 0.19017806E+03</pdfrwt>
<pdfrwt beam="2">  1       21 0.17093655E+00 0.19017806E+03</pdfrwt>
<totfact> 0.34563858E+04</totfact>
</mgrwt>
</event>
<event>
 6    1  0.4180481E-002  0.1261951E+03  0.7546771E-02  0.1233213E+00
         21   -1    0    0  503  502  0.00000000000E+00  0.00000000000E+00  0.31420764258E+03  0.31420764258E+03  0.00000000000E+00 0. -1.
         21   -1    0    0  504  503 -0.00000000000E+00 -0.00000000000E+00 -0.16419520610E+02  0.16419520610E+02  0.00000000000E+00 0. -1.
         25    2    1    2    0    0 -0.92385337665E+01 -0.14644735280E+02  0.26645807852E+03  0.29483064939E+03  0.12500154173E+03 0.  0.
          5    1    3    3  501    0 -0.52633178334E+02  0.21678961303E+02  0.19794990405E+03  0.20597185084E+03  0.10000000000E+00 0.  1.
         -5    1    3    3    0  501  0.43394644568E+02 -0.36323696583E+02  0.68508174465E+02  0.88858798546E+02  0.10000000000E+00 0.  1.
         21    1    1    2  504  502  0.92385337665E+01  0.14644735280E+02  0.31330043451E+02  0.35796513800E+02  0.00000000000E+00 0.  1.
<mgrwt>
<rscale>  1 0.12619510E+03</rscale>
<asrwt>0</asrwt>
<pdfrwt beam="1">  1       21 0.48339633E-01 0.12619510E+03</pdfrwt>
<pdfrwt beam="2">  1       21 0.25260803E-02 0.12619510E+03</pdfrwt>
<totfact> 0.33998072E+06</totfact>
</mgrwt>
</event>
<event>
 6    1  0.4180481E-002  0.1266469E+03  0.7546771E-02  0.1232518E+00
         21   -1    0    0  503  502  0.00000000000E+00  0.00000000000E+00  0.15481963103E+03  0.15481963103E+03  0.00000000000E+00 0.  1.
         21   -1    0    0  504  503 -0.00000000000E+00 -0.00000000000E+00 -0.35038255508E+02  0.35038255508E+02  0.00000000000E+00 0.  1.
         25    2    1    2    0    0  0.52872571125E+01  0.19661975335E+02  0.10718598669E+03  0.16591645421E+03  0.12499954270E+03 0.  0.
          5    1    3    3  501    0 -0.69186189747E+01  0.31541371458E+02  0.13195921477E+03  0.13585275030E+03  0.10000000000E+00 0.  1.
         -5    1    3    3    0  501  0.12205876087E+02 -0.11879396123E+02 -0.24773228082E+02  0.30063703912E+02  0.10000000000E+00 0.  1.
         21    1    1    2  504  502 -0.52872571125E+01 -0.19661975335E+02  0.12595388833E+02  0.23941432324E+02  0.00000000000E+00 0. -1.
<mgrwt>
<rscale>  1 0.12664689E+03</rscale>
<asrwt>0</asrwt>
<pdfrwt beam="1">  1       21 0.23818404E-01 0.12664689E+03</pdfrwt>
<pdfrwt beam="2">  1       21 0.53905009E-02 0.12664689E+03</pdfrwt>
<totfact> 0.38813969E+06</totfact>
</mgrwt>
</event>
<event>
 6    1  0.4180481E-002  0.1266525E+03  0.7546771E-02  0.1232509E+00
         21   -1    0    0  503  502  0.00000000000E+00  0.00000000000E+00  0.33612750432E+03  0.33612750432E+03  0.00000000000E+00 0.  1.
         21   -1    0    0  504  503 -0.00000000000E+00 -0.00000000000E+00 -0.35475980500E+03  0.35475980500E+03  0.00000000000E+00 0.  1.
         25    2    1    2    0    0 -0.19457990248E+02  0.59221106839E+01  0.32388448091E+03  0.34776716935E+03  0.12500864900E+03 0.  0.
          5    1    3    3  501    0  0.44776826442E+02  0.33859604821E+02  0.12938793290E+03  0.14104142727E+03  0.10000000000E+00 0. -1.
         -5    1    3    3    0  501 -0.64234816690E+02 -0.27937494137E+02  0.19449654801E+03  0.20672574209E+03  0.10000000000E+00 0. -1.
         21    1    1    2  504  502  0.19457990248E+02 -0.59221106839E+01 -0.34251678159E+03  0.34312013996E+03  0.00000000000E+00 0.  1.
<mgrwt>
<rscale>  1 0.12665247E+03</rscale>
<asrwt>0</asrwt>
<pdfrwt beam="1">  1       21 0.51711924E-01 0.12665247E+03</pdfrwt>
<pdfrwt beam="2">  1       21 0.54578431E-01 0.12665247E+03</pdfrwt>
<totfact> 0.11826690E+04</totfact>
</mgrwt>
</event>
<event>
 6    1  0.4180481E-002  0.1381343E+03  0.7546771E-02  0.1215862E+00
         21   -1    0    0  503  502  0.00000000000E+00  0.00000000000E+00  0.24650255421E+03  0.24650255421E+03  0.00000000000E+00 0.  1.
         21   -1    0    0  504  503 -0.00000000000E+00 -0.00000000000E+00 -0.48545311121E+03  0.48545311121E+03  0.00000000000E+00 0. -1.
         25    2    1    2    0    0 -0.35041008793E+02 -0.47198271573E+02  0.22515007544E+03  0.26414700136E+03  0.12500213086E+03 0.  0.
          5    1    3    3  501    0  0.44993273906E+02 -0.23982710948E+02  0.56973373617E+02  0.76456133976E+02  0.10000000000E+00 0. -1.
         -5    1    3    3    0  501 -0.80034282699E+02 -0.23215560625E+02  0.16817670182E+03  0.18769086738E+03  0.10000000000E+00 0. -1.
         21    1    1    2  504  502  0.35041008793E+02  0.47198271573E+02 -0.46410063244E+03  0.46780866406E+03  0.00000000000E+00 0. -1.
<mgrwt>
<rscale>  1 0.13813429E+03</rscale>
<asrwt>0</asrwt>
<pdfrwt beam="1">  1       21 0.37923470E-01 0.13813429E+03</pdfrwt>
<pdfrwt beam="2">  1       21 0.74685093E-01 0.13813429E+03</pdfrwt>
<totfact> 0.11203181E+04</totfact>
</mgrwt>
</event>
<event>
 6    1  0.4180481E-002  0.1311712E+03  0.7546771E-02  0.1225728E+00
         21   -1    0    0  503  502  0.00000000000E+00  0.00000000000E+00  0.28006972090E+02  0.28006972090E+02  0.00000000000E+00 0.  1.
         21   -1    0    0  504  503 -0.00000000000E+00 -0.00000000000E+00 -0.29116690223E+03  0.29116690223E+03  0.00000000000E+00 0.  1.
         25    2    1    2    0    0  0.36847660682E+02  0.14942071648E+02 -0.15016764856E+03  0.19938960449E+03  0.12499950440E+03 0.  0.
          5    1    3    3  501    0  0.65224897625E+02  0.21143809062E+02 -0.28416960311E+02  0.74221840216E+02  0.10000000000E+00 0. -1.
         -5    1    3    3    0  501 -0.28377236942E+02 -0.62017374141E+01 -0.12175068825E+03  0.12516776427E+03  0.10000000000E+00 0. -1.
         21    1    1    2  504  502 -0.36847660682E+02 -0.14942071648E+02 -0.11299228158E+03  0.11978426984E+03  0.00000000000E+00 0.  1.
<mgrwt>
<rscale>  1 0.13117123E+03</rscale>
<asrwt>0</asrwt>
<pdfrwt beam="1">  1       21 0.43087650E-02 0.13117123E+03</pdfrwt>
<pdfrwt beam="2">  1       21 0.44794907E-01 0.13117123E+03</pdfrwt>
<totfact> 0.16501571E+06</totfact>
</mgrwt>
</event>
<event>
 6    1  0.4180481E-002  0.1274447E+03  0.7546771E-02  0.1231297E+00
         21   -1    0    0  504  502  0.00000000000E+00  0.00000000000E+00  0.34409354420E+03  0.34409354420E+03  0.00000000000E+00 0.  1.
         21   -1    0    0  502  503 -0.00000000000E+00 -0.00000000000E+00 -0.16887487654E+02  0.16887487654E+02  0.00000000000E+00 0.  1.
         25    2    1    2    0    0 -0.18095618091E+02 -0.17010433731E+02  0.28003137011E+03  0.30766820704E+03  0.12500140449E+03 0.  0.
          5    1    3    3  501    0 -0.42661828382E+00 -0.13908316943E+02 -0.99663646392E+01  0.17116124195E+02  0.10000000000E+00 0. -1.
         -5    1    3    3    0  501 -0.17668999807E+02 -0.31021167885E+01  0.28999773475E+03  0.29055208284E+03  0.10000000000E+00 0. -1.
         21    1    1    2  504  503  0.18095618091E+02  0.17010433731E+02  0.47174686431E+02  0.53312824815E+02  0.00000000000E+00 0.  1.
<mgrwt>
<rscale>  1 0.12744472E+03</rscale>
<asrwt>0</asrwt>
<pdfrwt beam="1">  1       21 0.52937463E-01 0.12744472E+03</pdfrwt>
<pdfrwt beam="2">  1       21 0.25980753E-02 0.12744472E+03</pdfrwt>
<totfact> 0.26928576E+06</totfact>
</mgrwt>
</event>
<event>
 6    1  0.4180481E-002  0.1507369E+03  0.7546771E-02  0.1199570E+00
         21   -1    0    0  504  502  0.00000000000E+00  0.00000000000E+00  0.69465708930E+03  0.69465708930E+03  0.00000000000E+00 0. -1.
         21   -1    0    0  502  503 -0.00000000000E+00 -0.00000000000E+00 -0.14943574821E+03  0.14943574821E+03  0.00000000000E+00 0. -1.
         25    2    1    2    0    0 -0.36668994805E+02  0.75841733580E+02  0.67375609289E+03  0.69041210954E+03  0.12500009822E+03 0.  0.
          5    1    3    3  501    0  0.40961638375E+02  0.21004909259E+00  0.22946561414E+03  0.23309306728E+03  0.10000000000E+00 0.  1.
         -5    1    3    3    0  501 -0.77630633181E+02  0.75631684487E+02  0.44429047875E+03  0.45731904226E+03  0.10000000000E+00 0.  1.
         21    1    1    2  504  503  0.36668994805E+02 -0.75841733580E+02 -0.12853475180E+03  0.15368072798E+03  0.00000000000E+00 0. -1.
<mgrwt>
<rscale>  1 0.15073688E+03</rscale>
<asrwt>0</asrwt>
<pdfrwt beam="1">  1       21 0.10687032E+00 0.15073688E+03</pdfrwt>
<pdfrwt beam="2">  1       21 0.22990116E-01 0.15073688E+03</pdfrwt>
<totfact> 0.12821336E+04</totfact>
</mgrwt>
</event>
<event>
 6    1  0.4180481E-002  0.1260947E+03  0.7546771E-02  0.1233368E+00
         21   -1    0    0  504  502  0.00000000000E+00  0.00000000000E+00  0.14371111412E+04  0.14371111412E+04  0.00000000000E+00 0. -1.
         21   -1    0    0  502  503 -0.00000000000E+00 -0.00000000000E+00 -0.53427047739E+01  0.53427047739E+01  0.00000000000E+00 0. -1.
         25    2    1    2    0    0  0.11179714623E+02 -0.12249897830E+02  0.14070411143E+04  0.14126799232E+04  0.12499928869E+03 0.  0.
          5    1    3    3  501    0 -0.26799596600E+02 -0.25796359511E+02  0.13588449565E+03  0.14088391214E+03  0.10000000000E+00 0.  1.
         -5    1    3    3    0  501  0.37979311224E+02  0.13546461681E+02  0.12711566186E+04  0.12717960111E+04  0.10000000000E+00 0.  1.
         21    1    1    2  504  503 -0.11179714623E+02  0.12249897830E+02  0.24727322159E+02  0.29773922769E+02  0.00000000000E+00 0. -1.
<mgrwt>
<rscale>  1 0.12609468E+03</rscale>
<asrwt>0</asrwt>
<pdfrwt beam="1">  1       21 0.22109371E+00 0.12609468E+03</pdfrwt>
<pdfrwt beam="2">  1       21 0.82195572E-03 0.12609468E+03</pdfrwt>
<totfact> 0.52260861E+05</totfact>
</mgrwt>
</event>
<event>
 6    1  0.4180481E-002  0.1510822E+03  0.7546771E-02  0.1199149E+00
         21   -1    0    0  504  502  0.00000000000E+00  0.00000000000E+00  0.94188617923E+02  0.94188617923E+02  0.00000000000E+00 0.  1.
         21   -1    0    0  502  503 -0.00000000000E+00 -0.00000000000E+00 -0.18328135820E+03  0.18328135820E+03  0.00000000000E+00 0.  1.
         25    2    1    2    0    0 -0.53545537496E+02  0.65805904536E+02  0.44988892824E+01  0.15114921464E+03  0.12501321300E+03 0.  0.
          5    1    3    3  501    0 -0.13178862891E+02 -0.13477179032E+02 -0.45389829298E+02  0.49148381311E+02  0.10000000000E+00 0.  1.
         -5    1    3    3    0  501 -0.40366674605E+02  0.79283083568E+02  0.49888718580E+02  0.10200083333E+03  0.10000000000E+00 0.  1.
         21    1    1    2  504  503  0.53545537496E+02 -0.65805904536E+02 -0.93591629559E+02  0.12632076148E+03  0.00000000000E+00 0.  1.
<mgrwt>
<rscale>  1 0.15108225E+03</rscale>
<asrwt>0</asrwt>
<pdfrwt beam="1">  1       21 0.14490557E-01 0.15108225E+03</pdfrwt>
<pdfrwt beam="2">  1       21 0.28197132E-01 0.15108225E+03</pdfrwt>
<totfact> 0.50515069E+05</totfact>
</mgrwt>
</event>
<event>
 6    1  0.4180481E-002  0.1259764E+03  0.7546771E-02  0.1233551E+00
         21   -1    0    0  503  502  0.00000000000E+00  0.00000000000E+00  0.14628597407E+03  0.14628597407E+03  0.00000000000E+00 0.  1.
         21   -1    0    0  504  503 -0.00000000000E+00 -0.00000000000E+00 -0.52832494434E+02  0.52832494434E+02  0.00000000000E+00 0. -1.
         25    2    1    2    0    0 -0.15245689821E+02  0.35284558165E+01  0.11628315190E+03  0.17144040870E+03  0.12500064504E+03 0.  0.
          5    1    3    3  501    0  0.26734934060E+02  0.11513681867E+02 -0.15446007892E+02  0.32953159623E+02  0.10000000000E+00 0. -1.
         -5    1    3    3    0  501 -0.41980623881E+02 -0.79852260509E+01  0.13172915979E+03  0.13848724907E+03  0.10000000000E+00 0. -1.
         21    1    1    2  504  502  0.15245689821E+02 -0.35284558165E+01 -0.22829672268E+02  0.27678059803E+02  0.00000000000E+00 0. -1.
<mgrwt>
<rscale>  1 0.12597636E+03</rscale>
<asrwt>0</asrwt>
<pdfrwt beam="1">  1       21 0.22505534E-01 0.12597636E+03</pdfrwt>
<pdfrwt beam="2">  1       21 0.81280761E-02 0.12597636E+03</pdfrwt>
<totfact> 0.21431110E+06</totfact>
</mgrwt>
</event>
<event>
 6    1  0.4180481E-002  0.1260312E+03  0.7546771E-02  0.1233467E+00
         21   -1    0    0  504  502  0.00000000000E+00  0.00000000000E+00  0.25565957874E+03  0.25565957874E+03  0.00000000000E+00 0.  1.
         21   -1    0    0  502  503 -0.00000000000E+00 -0.00000000000E+00 -0.30648541260E+02  0.30648541260E+02  0.00000000000E+00 0.  1.
         25    2    1    2    0    0 -0.13435235954E+02 -0.89342195084E+01  0.23547239176E+03  0.26707882525E+03  0.12499410295E+03 0.  0.
          5    1    3    3  501    0 -0.50930049763E+02  0.38298265772E+02  0.97177331888E+02  0.11620701770E+03  0.10000000000E+00 0. -1.
         -5    1    3    3    0  501  0.37494813810E+02 -0.47232485281E+02  0.13829505987E+03  0.15087180755E+03  0.10000000000E+00 0. -1.
         21    1    1    2  504  503  0.13435235954E+02  0.89342195084E+01 -0.10461354277E+02  0.19229294752E+02  0.00000000000E+00 0.  1.
<mgrwt>
<rscale>  1 0.12603115E+03</rscale>
<asrwt>0</asrwt>
<pdfrwt beam="1">  1       21 0.39332242E-01 0.12603115E+03</pdfrwt>
<pdfrwt beam="2">  1       21 0.47151604E-02 0.12603115E+03</pdfrwt>
<totfact> 0.18424779E+06</totfact>
</mgrwt>
</event>
<event>
 6    1  0.4180481E-002  0.1259277E+03  0.7546771E-02  0.1233626E+00
         21   -1    0    0  504  502  0.00000000000E+00  0.00000000000E+00  0.26205106885E+02  0.26205106885E+02  0.00000000000E+00 0. -1.
         21   -1    0    0  502  503 -0.00000000000E+00 -0.00000000000E+00 -0.23624157129E+03  0.23624157129E+03  0.00000000000E+00 0. -1.
         25    2    1    2    0    0  0.10707074265E+02  0.10887152652E+02 -0.13009310597E+03  0.18105802977E+03  0.12499848955E+03 0.  0.
          5    1    3    3  501    0  0.42212397371E+02 -0.37941126282E+02 -0.10150648424E+03  0.11629699866E+03  0.10000000000E+00 0. -1.
         -5    1    3    3    0  501 -0.31505323106E+02  0.48828278934E+02 -0.28586621732E+02  0.64761031104E+02  0.10000000000E+00 0. -1.
         21    1    1    2  504  503 -0.10707074265E+02 -0.10887152652E+02 -0.79943358436E+02  0.81388648411E+02  0.00000000000E+00 0. -1.
<mgrwt>
<rscale>  1 0.12592773E+03</rscale>
<asrwt>0</asrwt>
<pdfrwt beam="1">  1       21 0.40315551E-02 0.12592773E+03</pdfrwt>
<pdfrwt beam="2">  1       21 0.36344856E-01 0.12592773E+03</pdfrwt>
<totfact> 0.27977192E+06</totfact>
</mgrwt>
</event>
<event>
 6    1  0.4180481E-002  0.1327191E+03  0.7546771E-02  0.1223476E+00
         21   -1    0    0  504  502  0.00000000000E+00  0.00000000000E+00  0.18679709907E+03  0.18679709907E+03  0.00000000000E+00 0.  1.
         21   -1    0    0  502  503 -0.00000000000E+00 -0.00000000000E+00 -0.10545324510E+03  0.10545324510E+03  0.00000000000E+00 0. -1.
         25    2    1    2    0    0  0.36725238420E+02 -0.25312353794E+02  0.15628808976E+03  0.20503740436E+03  0.12499964718E+03 0.  0.
          5    1    3    3  501    0 -0.21810023773E+02 -0.10563204803E+02 -0.11424796064E+02  0.26791685236E+02  0.10000000000E+00 0.  1.
         -5    1    3    3    0  501  0.58535262193E+02 -0.14749148991E+02  0.16771288582E+03  0.17824571913E+03  0.10000000000E+00 0.  1.
         21    1    1    2  504  503 -0.36725238420E+02  0.25312353794E+02 -0.74944235785E+02  0.87212939803E+02  0.00000000000E+00 0. -1.
<mgrwt>
<rscale>  1 0.13271914E+03</rscale>
<asrwt>0</asrwt>
<pdfrwt beam="1">  1       21 0.28738015E-01 0.13271914E+03</pdfrwt>
<pdfrwt beam="2">  1       21 0.16223576E-01 0.13271914E+03</pdfrwt>
<totfact> 0.39773908E+05</totfact>
</mgrwt>
</event>
<event>
 6    1  0.4180481E-002  0.1323524E+03  0.7546771E-02  0.1224006E+00
         21   -1    0    0  503  502  0.00000000000E+00  0.00000000000E+00  0.25544938588E+03  0.25544938588E+03  0.00000000000E+00 0. -1.
         21   -1    0    0  504  503 -0.00000000000E+00 -0.00000000000E+00 -0.54366462793E+02  0.54366462793E+02  0.00000000000E+00 0. -1.
         25    2    1    2    0    0 -0.29580663689E+02  0.31895104071E+02  0.22435234398E+03  0.26048250015E+03  0.12499938123E+03 0.  0.
          5    1    3    3  501    0 -0.26154136166E+02 -0.33575303391E+02  0.17022698377E+03  0.17546673713E+03  0.10000000000E+00 0.  1.
         -5    1    3    3    0  501 -0.34265275230E+01  0.65470407462E+02  0.54125360216E+02  0.85015763024E+02  0.10000000000E+00 0.  1.
         21    1    1    2  504  502  0.29580663689E+02 -0.31895104071E+02 -0.23269420891E+02  0.49333348524E+02  0.00000000000E+00 0. -1.
<mgrwt>
<rscale>  1 0.13235240E+03</rscale>
<asrwt>0</asrwt>
<pdfrwt beam="1">  1       21 0.39299905E-01 0.13235240E+03</pdfrwt>
<pdfrwt beam="2">  1       21 0.83640714E-02 0.13235240E+03</pdfrwt>
<totfact> 0.69668279E+05</totfact>
</mgrwt>
</event>
<event>
 6    1  0.4180481E-002  0.1259109E+03  0.7546771E-02  0.1233653E+00
         21   -1    0    0  504  502  0.00000000000E+00  0.00000000000E+00  0.50779280739E+03  0.50779280739E+03  0.00000000000E+00 0.  1.
         21   -1    0    0  502  503 -0.00000000000E+00 -0.00000000000E+00 -0.10093835058E+02  0.10093835058E+02  0.00000000000E+00 0.  1.
         25    2    1    2    0    0 -0.10355297485E+02  0.10881041390E+02  0.40958024440E+03  0.42849682501E+03  0.12501169225E+03 0.  0.
          5    1    3    3  501    0 -0.46214018206E+02  0.42719024880E+02  0.32701975615E+03  0.33302039199E+03  0.10000000000E+00 0. -1.
         -5    1    3    3    0  501  0.35858720722E+02 -0.31837983489E+02  0.82560488245E+02  0.95476433028E+02  0.10000000000E+00 0. -1.
         21    1    1    2  504  503  0.10355297485E+02 -0.10881041390E+02  0.88118727938E+02  0.89389817435E+02  0.00000000000E+00 0.  1.
<mgrwt>
<rscale>  1 0.12591089E+03</rscale>
<asrwt>0</asrwt>
<pdfrwt beam="1">  1       21 0.78121951E-01 0.12591089E+03</pdfrwt>
<pdfrwt beam="2">  1       21 0.15528981E-02 0.12591089E+03</pdfrwt>
<totfact> 0.26762341E+06</totfact>
</mgrwt>
</event>
<event>
 6    1  0.4180481E-002  0.2303179E+03  0.7546771E-02  0.1126416E+00
         21   -1    0    0  504  502  0.00000000000E+00  0.00000000000E+00  0.57507362807E+03  0.57507362807E+03  0.00000000000E+00 0.  1.
         21   -1    0    0  502  503 -0.00000000000E+00 -0.00000000000E+00 -0.80060643634E+02  0.80060643634E+02  0.00000000000E+00 0.  1.
         25    2    1    2    0    0 -0.10999167759E+03  0.15913286016E+03  0.32001156766E+03  0.39427620264E+03  0.12499953685E+03 0.  0.
          5    1    3    3  501    0  0.15441353946E+01  0.67212642301E+02  0.37603975137E+02  0.77032412563E+02  0.10000000000E+00 0. -1.
         -5    1    3    3    0  501 -0.11153581298E+03  0.91920217861E+02  0.28240759252E+03  0.31724379008E+03  0.10000000000E+00 0. -1.
         21    1    1    2  504  503  0.10999167759E+03 -0.15913286016E+03  0.17500141678E+03  0.26085806906E+03  0.00000000000E+00 0.  1.
<mgrwt>
<rscale>  1 0.23031787E+03</rscale>
<asrwt>0</asrwt>
<pdfrwt beam="1">  1       21 0.88472863E-01 0.23031787E+03</pdfrwt>
<pdfrwt beam="2">  1       21 0.12317022E-01 0.23031787E+03</pdfrwt>
<totfact> 0.60159643E+04</totfact>
</mgrwt>
</event>
<event>
 6    1  0.4180481E-002  0.1261799E+03  0.7546771E-02  0.1233237E+00
         21   -1    0    0  504  502  0.00000000000E+00  0.00000000000E+00  0.52051184346E+02  0.52051184346E+02  0.00000000000E+00 0.  1.
         21   -1    0    0  502  503 -0.00000000000E+00 -0.00000000000E+00 -0.98936749605E+02  0.98936749605E+02  0.00000000000E+00 0.  1.
         25    2    1    2    0    0  0.11216097748E+02 -0.13103187070E+02 -0.43020480669E+02  0.13331215281E+03  0.12499549580E+03 0.  0.
          5    1    3    3  501    0  0.54559922977E+02 -0.23957066711E+02  0.13663744177E+02  0.61134557703E+02  0.10000000000E+00 0. -1.
         -5    1    3    3    0  501 -0.43343825230E+02  0.10853879640E+02 -0.56684224846E+02  0.72177595106E+02  0.10000000000E+00 0. -1.
         21    1    1    2  504  503 -0.11216097748E+02  0.13103187070E+02 -0.38650845895E+01  0.17675781142E+02  0.00000000000E+00 0.  1.
<mgrwt>
<rscale>  1 0.12617990E+03</rscale>
<asrwt>0</asrwt>
<pdfrwt beam="1">  1       21 0.80078746E-02 0.12617990E+03</pdfrwt>
<pdfrwt beam="2">  1       21 0.15221038E-01 0.12617990E+03</pdfrwt>
<totfact> 0.45069728E+06</totfact>
</mgrwt>
</event>
<event>
 6    1  0.4180481E-002  0.1264757E+03  0.7546771E-02  0.1232781E+00
         21   -1    0    0  504  502  0.00000000000E+00  0.00000000000E+00  0.12843924296E+02  0.12843924296E+02  0.00000000000E+00 0. -1.
         21   -1    0    0  502  503 -0.00000000000E+00 -0.00000000000E+00 -0.47125358805E+03  0.47125358805E+03  0.00000000000E+00 0. -1.
         25    2    1    2    0    0  0.19274207439E+02 -0.23262106664E+00 -0.43854316735E+03  0.45641670917E+03  0.12499821438E+03 0.  0.
          5    1    3    3  501    0 -0.39006612940E+02  0.26024593324E+02 -0.30239635498E+03  0.30601039332E+03  0.10000000000E+00 0.  1.
         -5    1    3    3    0  501  0.58280820379E+02 -0.26257214391E+02 -0.13614681237E+03  0.15040631585E+03  0.10000000000E+00 0.  1.
         21    1    1    2  504  503 -0.19274207439E+02  0.23262106664E+00 -0.19866496406E+02  0.27680803175E+02  0.00000000000E+00 0.  1.
<mgrwt>
<rscale>  1 0.12647570E+03</rscale>
<asrwt>0</asrwt>
<pdfrwt beam="1">  1       21 0.19759882E-02 0.12647570E+03</pdfrwt>
<pdfrwt beam="2">  1       21 0.72500559E-01 0.12647570E+03</pdfrwt>
<totfact> 0.21440106E+06</totfact>
</mgrwt>
</event>
<event>
 6    1  0.4180481E-002  0.1816768E+03  0.7546771E-02  0.1166190E+00
         21   -1    0    0  503  502  0.00000000000E+00  0.00000000000E+00  0.18070762824E+02  0.18070762824E+02  0.00000000000E+00 0.  1.
         21   -1    0    0  504  503 -0.00000000000E+00 -0.00000000000E+00 -0.13720919681E+04  0.13720919681E+04  0.00000000000E+00 0.  1.
         25    2    1    2    0    0 -0.10373004411E+03 -0.81362731075E+02 -0.84872682729E+03  0.86795374548E+03  0.12500664328E+03 0.  0.
          5    1    3    3  501    0 -0.23601356830E+02 -0.93658700400E+02 -0.55030739524E+03  0.55871926355E+03  0.10000000000E+00 0. -1.
         -5    1    3    3    0  501 -0.80128687282E+02  0.12295969325E+02 -0.29841943205E+03  0.30923448193E+03  0.10000000000E+00 0. -1.
         21    1    1    2  504  502  0.10373004411E+03  0.81362731075E+02 -0.50529437796E+03  0.52220898542E+03  0.00000000000E+00 0.  1.
<mgrwt>
<rscale>  1 0.18167685E+03</rscale>
<asrwt>0</asrwt>
<pdfrwt beam="1">  1       21 0.27801179E-02 0.18167685E+03</pdfrwt>
<pdfrwt beam="2">  1       21 0.21109103E+00 0.18167685E+03</pdfrwt>
<totfact> 0.82528204E+04</totfact>
</mgrwt>
</event>
<event>
 6    1  0.4180481E-002  0.2165134E+03  0.7546771E-02  0.1136509E+00
         21   -1    0    0  504  502  0.00000000000E+00  0.00000000000E+00  0.22544388352E+02  0.22544388352E+02  0.00000000000E+00 0.  1.
         21   -1    0    0  502  503 -0.00000000000E+00 -0.00000000000E+00 -0.17327854981E+04  0.17327854981E+04  0.00000000000E+00 0.  1.
         25    2    1    2    0    0 -0.12961518947E+03 -0.12021085409E+03 -0.85284468462E+03  0.87989892024E+03  0.12500922754E+03 0.  0.
          5    1    3    3  501    0 -0.91924050191E+02 -0.29624025317E+01 -0.31625054212E+03  0.32935273222E+03  0.10000000000E+00 0. -1.
         -5    1    3    3    0  501 -0.37691139280E+02 -0.11724845156E+03 -0.53659414250E+03  0.55054618801E+03  0.10000000000E+00 0. -1.
         21    1    1    2  504  503  0.12961518947E+03  0.12021085409E+03 -0.85739642509E+03  0.87543096617E+03  0.00000000000E+00 0.  1.
<mgrwt>
<rscale>  1 0.21651340E+03</rscale>
<asrwt>0</asrwt>
<pdfrwt beam="1">  1       21 0.34683671E-02 0.21651340E+03</pdfrwt>
<pdfrwt beam="2">  1       21 0.26658241E+00 0.21651340E+03</pdfrwt>
<totfact> 0.25927969E+04</totfact>
</mgrwt>
</event>
<event>
 6    1  0.4180481E-002  0.1279117E+03  0.7546771E-02  0.1230588E+00
         21   -1    0    0  503  502  0.00000000000E+00  0.00000000000E+00  0.51335049010E+02  0.51335049010E+02  0.00000000000E+00 0. -1.
         21   -1    0    0  504  503 -0.00000000000E+00 -0.00000000000E+00 -0.14162332767E+03  0.14162332767E+03  0.00000000000E+00 0. -1.
         25    2    1    2    0    0  0.15288197328E+02 -0.22481884974E+02 -0.37033053509E+02  0.13316470531E+03  0.12498890975E+03 0.  0.
          5    1    3    3  501    0  0.21827175362E+02  0.42945799885E+02  0.13733406588E+02  0.50093749796E+02  0.10000000000E+00 0.  1.
         -5    1    3    3    0  501 -0.65389780341E+01 -0.65427684859E+02 -0.50766460097E+02  0.83070955518E+02  0.10000000000E+00 0.  1.
         21    1    1    2  504  502 -0.15288197328E+02  0.22481884974E+02 -0.53255225149E+02  0.59793671364E+02  0.00000000000E+00 0. -1.
<mgrwt>
<rscale>  1 0.12791166E+03</rscale>
<asrwt>0</asrwt>
<pdfrwt beam="1">  1       21 0.78977000E-02 0.12791166E+03</pdfrwt>
<pdfrwt beam="2">  1       21 0.21788204E-01 0.12791166E+03</pdfrwt>
<totfact> 0.23934660E+06</totfact>
</mgrwt>
</event>
<event>
 6    1  0.4180481E-002  0.1295714E+03  0.7546771E-02  0.1228093E+00
         21   -1    0    0  504  502  0.00000000000E+00  0.00000000000E+00  0.59644039900E+01  0.59644039900E+01  0.00000000000E+00 0. -1.
         21   -1    0    0  502  503 -0.00000000000E+00 -0.00000000000E+00 -0.11975839957E+04  0.11975839957E+04  0.00000000000E+00 0. -1.
         25    2    1    2    0    0 -0.31250301182E+02  0.13714637779E+02 -0.79785789401E+03  0.80831056346E+03  0.12499630135E+03 0.  0.
          5    1    3    3  501    0  0.43550607099E+02  0.22281948392E+02 -0.20844977788E+03  0.21411319553E+03  0.10000000000E+00 0. -1.
         -5    1    3    3    0  501 -0.74800908281E+02 -0.85673106133E+01 -0.58940811613E+03  0.59419736793E+03  0.10000000000E+00 0. -1.
         21    1    1    2  504  503  0.31250301182E+02 -0.13714637779E+02 -0.39376169775E+03  0.39523783628E+03  0.00000000000E+00 0. -1.
<mgrwt>
<rscale>  1 0.12957140E+03</rscale>
<asrwt>0</asrwt>
<pdfrwt beam="1">  1       21 0.91760083E-03 0.12957140E+03</pdfrwt>
<pdfrwt beam="2">  1       21 0.18424365E+00 0.12957140E+03</pdfrwt>
<totfact> 0.74644747E+05</totfact>
</mgrwt>
</event>
<event>
 6    1  0.4180481E-002  0.1310526E+03  0.7546771E-02  0.1225902E+00
         21   -1    0    0  504  502  0.00000000000E+00  0.00000000000E+00  0.77912647549E+03  0.77912647549E+03  0.00000000000E+00 0. -1.
         21   -1    0    0  502  503 -0.00000000000E+00 -0.00000000000E+00 -0.94611074274E+02  0.94611074274E+02  0.00000000000E+00 0. -1.
         25    2    1    2    0    0  0.18484361871E+02  0.34763063466E+02  0.76923367037E+03  0.78031738416E+03  0.12499855271E+03 0.  0.
          5    1    3    3  501    0 -0.36723874764E+02 -0.28912276314E+02  0.26562595426E+03  0.26970673012E+03  0.10000000000E+00 0.  1.
         -5    1    3    3    0  501  0.55208236635E+02  0.63675339780E+02  0.50360771611E+03  0.51061065404E+03  0.10000000000E+00 0.  1.
         21    1    1    2  504  503 -0.18484361871E+02 -0.34763063466E+02 -0.84718269147E+02  0.93420165609E+02  0.00000000000E+00 0. -1.
<mgrwt>
<rscale>  1 0.13105259E+03</rscale>
<asrwt>0</asrwt>
<pdfrwt beam="1">  1       21 0.11986561E+00 0.13105259E+03</pdfrwt>
<pdfrwt beam="2">  1       21 0.14555550E-01 0.13105259E+03</pdfrwt>
<totfact> 0.22872245E+04</totfact>
</mgrwt>
</event>
<event>
 6    1  0.4180481E-002  0.1273051E+03  0.7546771E-02  0.1231510E+00
         21   -1    0    0  504  502  0.00000000000E+00  0.00000000000E+00  0.89799162286E+03  0.89799162286E+03  0.00000000000E+00 0. -1.
         21   -1    0    0  502  503 -0.00000000000E+00 -0.00000000000E+00 -0.65439779394E+01  0.65439779394E+01  0.00000000000E+00 0. -1.
         25    2    1    2    0    0  0.88313872955E+00  0.24085635123E+02  0.79463713585E+03  0.80477001345E+03  0.12500279644E+03 0.  0.
          5    1    3    3  501    0  0.10889051816E+02  0.36506566769E+02  0.67893652413E+02  0.77851518320E+02  0.10000000000E+00 0. -1.
         -5    1    3    3    0  501 -0.10005913087E+02 -0.12420931646E+02  0.72674348344E+03  0.72691849513E+03  0.10000000000E+00 0. -1.
         21    1    1    2  504  503 -0.88313872955E+00 -0.24085635123E+02  0.96810509072E+02  0.99765587354E+02  0.00000000000E+00 0. -1.
<mgrwt>
<rscale>  1 0.12730513E+03</rscale>
<asrwt>0</asrwt>
<pdfrwt beam="1">  1       21 0.13815246E+00 0.12730513E+03</pdfrwt>
<pdfrwt beam="2">  1       21 0.10067665E-02 0.12730513E+03</pdfrwt>
<totfact> 0.13840939E+06</totfact>
</mgrwt>
</event>
<event>
 6    1  0.4180481E-002  0.2033074E+03  0.7546771E-02  0.1146978E+00
         21   -1    0    0  503  502  0.00000000000E+00  0.00000000000E+00  0.58329625178E+03  0.58329625178E+03  0.00000000000E+00 0.  1.
         21   -1    0    0  504  503 -0.00000000000E+00 -0.00000000000E+00 -0.22453330722E+03  0.22453330722E+03  0.00000000000E+00 0.  1.
         25    2    1    2    0    0 -0.84983527613E+02 -0.13596321758E+03  0.53335129940E+03  0.57078675664E+03  0.12500286591E+03 0.  0.
          5    1    3    3  501    0  0.20129705222E+02 -0.93261419417E+01  0.17559223408E+03  0.17698820476E+03  0.10000000000E+00 0.  1.
         -5    1    3    3    0  501 -0.10511323284E+03 -0.12663707564E+03  0.35775906532E+03  0.39379855188E+03  0.10000000000E+00 0.  1.
         21    1    1    2  504  502  0.84983527613E+02  0.13596321758E+03 -0.17458835484E+03  0.23704280235E+03  0.00000000000E+00 0.  1.
<mgrwt>
<rscale>  1 0.20330743E+03</rscale>
<asrwt>0</asrwt>
<pdfrwt beam="1">  1       21 0.89737884E-01 0.20330743E+03</pdfrwt>
<pdfrwt beam="2">  1       21 0.34543586E-01 0.20330743E+03</pdfrwt>
<totfact> 0.84778096E+03</totfact>
</mgrwt>
</event>
<event>
 6    1  0.4180481E-002  0.1277023E+03  0.7546771E-02  0.1230906E+00
         21   -1    0    0  503  502  0.00000000000E+00  0.00000000000E+00  0.24910061471E+03  0.24910061471E+03  0.00000000000E+00 0. -1.
         21   -1    0    0  504  503 -0.00000000000E+00 -0.00000000000E+00 -0.89106198470E+02  0.89106198470E+02  0.00000000000E+00 0. -1.
         25    2    1    2    0    0 -0.95937796473E+01 -0.24403337819E+02  0.23020855049E+03  0.26325624178E+03  0.12498123304E+03 0.  0.
          5    1    3    3  501    0 -0.36379689442E+01 -0.35324119264E+02  0.29237316885E+01  0.35631256318E+02  0.10000000000E+00 0. -1.
         -5    1    3    3    0  501 -0.59558107031E+01  0.10920781444E+02  0.22728481880E+03  0.22762498546E+03  0.10000000000E+00 0. -1.
         21    1    1    2  504  502  0.95937796473E+01  0.24403337819E+02 -0.70214134251E+02  0.74950571400E+02  0.00000000000E+00 0. -1.
<mgrwt>
<rscale>  1 0.12770228E+03</rscale>
<asrwt>0</asrwt>
<pdfrwt beam="1">  1       21 0.38323171E-01 0.12770228E+03</pdfrwt>
<pdfrwt beam="2">  1       21 0.13708646E-01 0.12770228E+03</pdfrwt>
<totfact> 0.30736353E+05</totfact>
</mgrwt>
</event>
<event>
 6    1  0.4180481E-002  0.1362398E+03  0.7546771E-02  0.1218480E+00
         21   -1    0    0  503  502  0.00000000000E+00  0.00000000000E+00  0.20430103609E+02  0.20430103609E+02  0.00000000000E+00 0. -1.
         21   -1    0    0  504  503 -0.00000000000E+00 -0.00000000000E+00 -0.52850337672E+03  0.52850337672E+03  0.00000000000E+00 0. -1.
         25    2    1    2    0    0 -0.53533400817E+02  0.82857070999E+01 -0.24492087466E+03  0.28026330566E+03  0.12500723064E+03 0.  0.
          5    1    3    3  501    0  0.21611626359E+02 -0.39991333295E+02 -0.64052479678E+02  0.78543613906E+02  0.10000000000E+00 0. -1.
         -5    1    3    3    0  501 -0.75145027177E+02  0.48277040395E+02 -0.18086839498E+03  0.20171969176E+03  0.10000000000E+00 0. -1.
         21    1    1    2  504  502  0.53533400817E+02 -0.82857070999E+01 -0.26315239845E+03  0.26867017467E+03  0.00000000000E+00 0. -1.
<mgrwt>
<rscale>  1 0.13623981E+03</rscale>
<asrwt>0</asrwt>
<pdfrwt beam="1">  1       21 0.31430933E-02 0.13623981E+03</pdfrwt>
<pdfrwt beam="2">  1       21 0.81308200E-01 0.13623981E+03</pdfrwt>
<totfact> 0.78124031E+05</totfact>
</mgrwt>
</event>
<event>
 6    1  0.4180481E-002  0.1587595E+03  0.7546771E-02  0.1190104E+00
         21   -1    0    0  504  502  0.00000000000E+00  0.00000000000E+00  0.19584150150E+02  0.19584150150E+02  0.00000000000E+00 0. -1.
         21   -1    0    0  502  503 -0.00000000000E+00 -0.00000000000E+00 -0.85040114144E+03  0.85040114144E+03  0.00000000000E+00 0. -1.
         25    2    1    2    0    0  0.20278987588E+02  0.95768400862E+02 -0.46803982935E+03  0.49423258945E+03  0.12498698602E+03 0.  0.
          5    1    3    3  501    0  0.69177224640E+02  0.77581731089E+02 -0.26660700298E+03  0.28615331108E+03  0.10000000000E+00 0. -1.
         -5    1    3    3    0  501 -0.48898237052E+02  0.18186669772E+02 -0.20143282637E+03  0.20807927836E+03  0.10000000000E+00 0. -1.
         21    1    1    2  504  503 -0.20278987588E+02 -0.95768400862E+02 -0.36277716194E+03  0.37575270214E+03  0.00000000000E+00 0. -1.
<mgrwt>
<rscale>  1 0.15875947E+03</rscale>
<asrwt>0</asrwt>
<pdfrwt beam="1">  1       21 0.30129460E-02 0.15875947E+03</pdfrwt>
<pdfrwt beam="2">  1       21 0.13083095E+00 0.15875947E+03</pdfrwt>
<totfact> 0.27030028E+05</totfact>
</mgrwt>
</event>
<event>
 6    1  0.4180481E-002  0.1259456E+03  0.7546771E-02  0.1233599E+00
         21   -1    0    0  503  502  0.00000000000E+00  0.00000000000E+00  0.78703224819E+02  0.78703224819E+02  0.00000000000E+00 0. -1.
         21   -1    0    0  504  503 -0.00000000000E+00 -0.00000000000E+00 -0.71126522248E+02  0.71126522248E+02  0.00000000000E+00 0. -1.
         25    2    1    2    0    0 -0.68303621640E+00  0.15407983950E+02  0.22988179501E+02  0.12802639574E+03  0.12499771639E+03 0.  0.
          5    1    3    3  501    0 -0.64559100281E+01  0.59175832257E+02  0.48724281418E+02  0.76925441158E+02  0.10000000000E+00 0.  1.
         -5    1    3    3    0  501  0.57728738117E+01 -0.43767848307E+02 -0.25736101918E+02  0.51100954584E+02  0.10000000000E+00 0.  1.
         21    1    1    2  504  502  0.68303621640E+00 -0.15407983950E+02 -0.15411476930E+02  0.21803351326E+02  0.00000000000E+00 0. -1.
<mgrwt>
<rscale>  1 0.12594563E+03</rscale>
<asrwt>0</asrwt>
<pdfrwt beam="1">  1       21 0.12108188E-01 0.12594563E+03</pdfrwt>
<pdfrwt beam="2">  1       21 0.10942542E-01 0.12594563E+03</pdfrwt>
<totfact> 0.39392937E+06</totfact>
</mgrwt>
</event>
<event>
 6    1  0.4180481E-002  0.1298410E+03  0.7546771E-02  0.1227692E+00
         21   -1    0    0  504  502  0.00000000000E+00  0.00000000000E+00  0.28025872390E+03  0.28025872390E+03  0.00000000000E+00 0.  1.
         21   -1    0    0  502  503 -0.00000000000E+00 -0.00000000000E+00 -0.97957853234E+02  0.97957853234E+02  0.00000000000E+00 0.  1.
         25    2    1    2    0    0 -0.15248129967E+01 -0.35092970704E+02  0.26128829903E+03  0.29177089774E+03  0.12499935964E+03 0.  0.
          5    1    3    3  501    0  0.19593118778E+02 -0.55811046783E+02  0.47271413540E+02  0.75718952611E+02  0.10000000000E+00 0.  1.
         -5    1    3    3    0  501 -0.21117931775E+02  0.20718076079E+02  0.21401688549E+03  0.21605194513E+03  0.10000000000E+00 0.  1.
         21    1    1    2  504  503  0.15248129967E+01  0.35092970704E+02 -0.78987428360E+02  0.86445679398E+02  0.00000000000E+00 0.  1.
<mgrwt>
<rscale>  1 0.12984099E+03</rscale>
<asrwt>0</asrwt>
<pdfrwt beam="1">  1       21 0.43116726E-01 0.12984099E+03</pdfrwt>
<pdfrwt beam="2">  1       21 0.15070439E-01 0.12984099E+03</pdfrwt>
<totfact> 0.20465023E+05</totfact>
</mgrwt>
</event>
<event>
 6    1  0.4180481E-002  0.1266138E+03  0.7546771E-02  0.1232569E+00
         21   -1    0    0  504  502  0.00000000000E+00  0.00000000000E+00  0.18055095641E+03  0.18055095641E+03  0.00000000000E+00 0.  1.
         21   -1    0    0  502  503 -0.00000000000E+00 -0.00000000000E+00 -0.83537479287E+03  0.83537479287E+03  0.00000000000E+00 0.  1.
         25    2    1    2    0    0 -0.20139998437E+02 -0.15401552461E+01  0.15821267782E+03  0.20263836763E+03  0.12499225974E+03 0.  0.
          5    1    3    3  501    0 -0.58075611873E+02  0.26543871077E+01  0.23641592302E+02  0.62759520011E+02  0.10000000000E+00 0.  1.
         -5    1    3    3    0  501  0.37935613436E+02 -0.41945423539E+01  0.13457108552E+03  0.13987884762E+03  0.10000000000E+00 0.  1.
         21    1    1    2  504  503  0.20139998437E+02  0.15401552461E+01 -0.81303651427E+03  0.81328738165E+03  0.00000000000E+00 0.  1.
<mgrwt>
<rscale>  1 0.12661381E+03</rscale>
<asrwt>0</asrwt>
<pdfrwt beam="1">  1       21 0.27777070E-01 0.12661381E+03</pdfrwt>
<pdfrwt beam="2">  1       21 0.12851920E+00 0.12661381E+03</pdfrwt>
<totfact> 0.58475523E+03</totfact>
</mgrwt>
</event>
<event>
 6    1  0.4180481E-002  0.1291970E+03  0.7546771E-02  0.1228652E+00
         21   -1    0    0  503  502  0.00000000000E+00  0.00000000000E+00  0.25738730228E+02  0.25738730228E+02  0.00000000000E+00 0. -1.
         21   -1    0    0  504  503 -0.00000000000E+00 -0.00000000000E+00 -0.35012424405E+03  0.35012424405E+03  0.00000000000E+00 0. -1.
         25    2    1    2    0    0 -0.30749693141E+02 -0.11026033571E+02 -0.14791439303E+03  0.19639383064E+03  0.12499900801E+03 0.  0.
          5    1    3    3  501    0 -0.18211070477E+02  0.13625369912E+02  0.17490989512E+02  0.28692133195E+02  0.10000000000E+00 0. -1.
         -5    1    3    3    0  501 -0.12538622664E+02 -0.24651403483E+02 -0.16540538254E+03  0.16770169745E+03  0.10000000000E+00 0. -1.
         21    1    1    2  504  502  0.30749693141E+02  0.11026033571E+02 -0.17647112079E+03  0.17946914363E+03  0.00000000000E+00 0. -1.
<mgrwt>
<rscale>  1 0.12919702E+03</rscale>
<asrwt>0</asrwt>
<pdfrwt beam="1">  1       21 0.39598049E-02 0.12919702E+03</pdfrwt>
<pdfrwt beam="2">  1       21 0.53865265E-01 0.12919702E+03</pdfrwt>
<totfact> 0.12990035E+06</totfact>
</mgrwt>
</event>
<event>
 6    1  0.4180481E-002  0.1411334E+03  0.7546771E-02  0.1211812E+00
         21   -1    0    0  504  502  0.00000000000E+00  0.00000000000E+00  0.12908372801E+03  0.12908372801E+03  0.00000000000E+00 0. -1.
         21   -1    0    0  502  503 -0.00000000000E+00 -0.00000000000E+00 -0.14420556664E+03  0.14420556664E+03  0.00000000000E+00 0. -1.
         25    2    1    2    0    0 -0.19620191603E+01 -0.65504437230E+02  0.76584968268E+02  0.16057363803E+03  0.12499582013E+03 0.  0.
          5    1    3    3  501    0  0.42874311095E+02 -0.40229332438E+02  0.89892169906E+02  0.10741144236E+03  0.10000000000E+00 0. -1.
         -5    1    3    3    0  501 -0.44836330255E+02 -0.25275104792E+02 -0.13307201638E+02  0.53162195670E+02  0.10000000000E+00 0. -1.
         21    1    1    2  504  503  0.19620191603E+01  0.65504437230E+02 -0.91706806896E+02  0.11271565662E+03  0.00000000000E+00 0. -1.
<mgrwt>
<rscale>  1 0.14113340E+03</rscale>
<asrwt>0</asrwt>
<pdfrwt beam="1">  1       21 0.19859035E-01 0.14113340E+03</pdfrwt>
<pdfrwt beam="2">  1       21 0.22185472E-01 0.14113340E+03</pdfrwt>
<totfact> 0.44789836E+05</totfact>
</mgrwt>
</event>
<event>
 6    1  0.4180481E-002  0.1290008E+03  0.7546771E-02  0.1228946E+00
         21   -1    0    0  503  502  0.00000000000E+00  0.00000000000E+00  0.92590270038E+03  0.92590270038E+03  0.00000000000E+00 0.  1.
         21   -1    0    0  504  503 -0.00000000000E+00 -0.00000000000E+00 -0.14138615484E+02  0.14138615484E+02  0.00000000000E+00 0.  1.
         25    2    1    2    0    0 -0.18803587409E+02 -0.25803313755E+02  0.89448199541E+03  0.90373626777E+03  0.12498726199E+03 0.  0.
          5    1    3    3  501    0 -0.93069453894E+01 -0.46723976741E+02  0.12288264075E+03  0.13179492643E+03  0.10000000000E+00 0. -1.
         -5    1    3    3    0  501 -0.94966420193E+01  0.20920662986E+02  0.77159935467E+03  0.77194134134E+03  0.10000000000E+00 0. -1.
         21    1    1    2  504  502  0.18803587409E+02  0.25803313755E+02  0.17282089479E+02  0.36305048092E+02  0.00000000000E+00 0.  1.
<mgrwt>
<rscale>  1 0.12900078E+03</rscale>
<asrwt>0</asrwt>
<pdfrwt beam="1">  1       21 0.14244652E+00 0.12900078E+03</pdfrwt>
<pdfrwt beam="2">  1       21 0.21751723E-02 0.12900078E+03</pdfrwt>
<totfact> 0.37422367E+05</totfact>
</mgrwt>
</event>
<event>
 6    1  0.4180481E-002  0.1259569E+03  0.7546771E-02  0.1233581E+00
         21   -1    0    0  504  502  0.00000000000E+00  0.00000000000E+00  0.77761419194E+01  0.77761419194E+01  0.00000000000E+00 0. -1.
         21   -1    0    0  502  503 -0.00000000000E+00 -0.00000000000E+00 -0.87943271372E+03  0.87943271372E+03  0.00000000000E+00 0. -1.
         25    2    1    2    0    0 -0.39677880615E+01  0.14983708746E+02 -0.51369291907E+03  0.52890977450E+03  0.12499951835E+03 0.  0.
          5    1    3    3  501    0  0.54861889909E+01 -0.21205963030E+01 -0.50870616570E+03  0.50874017752E+03  0.10000000000E+00 0. -1.
         -5    1    3    3    0  501 -0.94539770524E+01  0.17104305049E+02 -0.49867533717E+01  0.20169596984E+02  0.10000000000E+00 0. -1.
         21    1    1    2  504  503  0.39677880615E+01 -0.14983708746E+02 -0.35796365273E+03  0.35829908114E+03  0.00000000000E+00 0. -1.
<mgrwt>
<rscale>  1 0.12595688E+03</rscale>
<asrwt>0</asrwt>
<pdfrwt beam="1">  1       21 0.11963295E-02 0.12595688E+03</pdfrwt>
<pdfrwt beam="2">  1       21 0.13529734E+00 0.12595688E+03</pdfrwt>
<totfact> 0.11109296E+06</totfact>
</mgrwt>
</event>
<event>
 6    1  0.4180481E-002  0.1266908E+03  0.7546771E-02  0.1232450E+00
         21   -1    0    0  503  502  0.00000000000E+00  0.00000000000E+00  0.24743083574E+03  0.24743083574E+03  0.00000000000E+00 0. -1.
         21   -1    0    0  504  503 -0.00000000000E+00 -0.00000000000E+00 -0.28231580946E+02  0.28231580946E+02  0.00000000000E+00 0. -1.
         25    2    1    2    0    0 -0.13006537915E+02 -0.16055566928E+02  0.22119088940E+03  0.25490385540E+03  0.12499445863E+03 0.  0.
          5    1    3    3  501    0 -0.85728465699E+01 -0.12321581305E+02 -0.13471752568E+02  0.20169610343E+02  0.10000000000E+00 0.  1.
         -5    1    3    3    0  501 -0.44336913454E+01 -0.37339856237E+01  0.23466264197E+03  0.23473424506E+03  0.10000000000E+00 0.  1.
         21    1    1    2  504  502  0.13006537915E+02  0.16055566928E+02 -0.19916346124E+01  0.20758561279E+02  0.00000000000E+00 0. -1.
<mgrwt>
<rscale>  1 0.12669083E+03</rscale>
<asrwt>0</asrwt>
<pdfrwt beam="1">  1       21 0.38066281E-01 0.12669083E+03</pdfrwt>
<pdfrwt beam="2">  1       21 0.43433203E-02 0.12669083E+03</pdfrwt>
<totfact> 0.22558288E+06</totfact>
</mgrwt>
</event>
<event>
 6    1  0.4180481E-002  0.1260810E+03  0.7546771E-02  0.1233389E+00
         21   -1    0    0  504  502  0.00000000000E+00  0.00000000000E+00  0.19391708224E+04  0.19391708224E+04  0.00000000000E+00 0. -1.
         21   -1    0    0  502  503 -0.00000000000E+00 -0.00000000000E+00 -0.28865914291E+01  0.28865914291E+01  0.00000000000E+00 0. -1.
         25    2    1    2    0    0 -0.14047303501E+02  0.82506937067E+01  0.18470557470E+04  0.18513539242E+04  0.12502407520E+03 0.  0.
          5    1    3    3  501    0  0.48244818718E+02  0.24119933645E+02  0.53182955000E+03  0.53455777422E+03  0.10000000000E+00 0. -1.
         -5    1    3    3    0  501 -0.62292122219E+02 -0.15869239938E+02  0.13152261970E+04  0.13167961500E+04  0.10000000000E+00 0. -1.
         21    1    1    2  504  503  0.14047303501E+02 -0.82506937067E+01  0.89228483988E+02  0.90703489663E+02  0.00000000000E+00 0.  1.
<mgrwt>
<rscale>  1 0.12608101E+03</rscale>
<asrwt>0</asrwt>
<pdfrwt beam="1">  1       21 0.29833293E+00 0.12608101E+03</pdfrwt>
<pdfrwt beam="2">  1       21 0.44409254E-03 0.12608101E+03</pdfrwt>
<totfact> 0.49152207E+05</totfact>
</mgrwt>
</event>
<event>
 6    1  0.4180481E-002  0.1284738E+03  0.7546771E-02  0.1229738E+00
         21   -1    0    0  504  502  0.00000000000E+00  0.00000000000E+00  0.53548944370E+02  0.53548944370E+02  0.00000000000E+00 0. -1.
         21   -1    0    0  502  503 -0.00000000000E+00 -0.00000000000E+00 -0.15824584642E+03  0.15824584642E+03  0.00000000000E+00 0. -1.
         25    2    1    2    0    0  0.54808887604E+01 -0.29174356890E+02 -0.30736149990E+02  0.13209926967E+03  0.12499729153E+03 0.  0.
          5    1    3    3  501    0  0.54980748212E+02 -0.10193102081E+02 -0.50670796819E+02  0.75460729219E+02  0.10000000000E+00 0. -1.
         -5    1    3    3    0  501 -0.49499859452E+02 -0.18981254809E+02  0.19934646829E+02  0.56638540448E+02  0.10000000000E+00 0. -1.
         21    1    1    2  504  503 -0.54808887604E+01  0.29174356890E+02 -0.73960752057E+02  0.79695521119E+02  0.00000000000E+00 0. -1.
<mgrwt>
<rscale>  1 0.12847376E+03</rscale>
<asrwt>0</asrwt>
<pdfrwt beam="1">  1       21 0.82382993E-02 0.12847376E+03</pdfrwt>
<pdfrwt beam="2">  1       21 0.24345514E-01 0.12847376E+03</pdfrwt>
<totfact> 0.18077641E+06</totfact>
</mgrwt>
</event>
<event>
 6    1  0.4180481E-002  0.1267212E+03  0.7546771E-02  0.1232404E+00
         21   -1    0    0  503  502  0.00000000000E+00  0.00000000000E+00  0.75294067598E+03  0.75294067598E+03  0.00000000000E+00 0. -1.
         21   -1    0    0  504  503 -0.00000000000E+00 -0.00000000000E+00 -0.81206446369E+02  0.81206446369E+02  0.00000000000E+00 0. -1.
         25    2    1    2    0    0 -0.44118747269E+01  0.20294209543E+02  0.74617739787E+03  0.75686125767E+03  0.12500773855E+03 0.  0.
          5    1    3    3  501    0  0.35790198386E+02  0.20695725998E+02  0.66489736611E+03  0.66618148341E+03  0.10000000000E+00 0.  1.
         -5    1    3    3    0  501 -0.40202073113E+02 -0.40151645568E+00  0.81280031754E+02  0.90679774261E+02  0.10000000000E+00 0.  1.
         21    1    1    2  504  502  0.44118747269E+01 -0.20294209543E+02 -0.74443168254E+02  0.77285864679E+02  0.00000000000E+00 0. -1.
<mgrwt>
<rscale>  1 0.12672117E+03</rscale>
<asrwt>0</asrwt>
<pdfrwt beam="1">  1       21 0.11583702E+00 0.12672117E+03</pdfrwt>
<pdfrwt beam="2">  1       21 0.12493300E-01 0.12672117E+03</pdfrwt>
<totfact> 0.32756821E+04</totfact>
</mgrwt>
</event>
<event>
 6    1  0.4180481E-002  0.1263203E+03  0.7546771E-02  0.1233020E+00
         21   -1    0    0  504  502  0.00000000000E+00  0.00000000000E+00  0.96372399323E+03  0.96372399323E+03  0.00000000000E+00 0. -1.
         21   -1    0    0  502  503 -0.00000000000E+00 -0.00000000000E+00 -0.14514711595E+03  0.14514711595E+03  0.00000000000E+00 0.  1.
         25    2    1    2    0    0  0.89889287798E+01 -0.15822726644E+02  0.95899496737E+03  0.96727873812E+03  0.12500260105E+03 0.  0.
          5    1    3    3  501    0  0.54730261535E+02  0.89181649752E+01  0.74479265325E+03  0.74685409655E+03  0.10000000000E+00 0. -1.
         -5    1    3    3    0  501 -0.45741332755E+02 -0.24740891619E+02  0.21420231412E+03  0.22042464158E+03  0.10000000000E+00 0. -1.
         21    1    1    2  504  503 -0.89889287798E+01  0.15822726644E+02 -0.14041809008E+03  0.14159237106E+03  0.00000000000E+00 0.  1.
<mgrwt>
<rscale>  1 0.12632027E+03</rscale>
<asrwt>0</asrwt>
<pdfrwt beam="1">  1       21 0.14826523E+00 0.12632027E+03</pdfrwt>
<pdfrwt beam="2">  1       21 0.22330326E-01 0.12632027E+03</pdfrwt>
<totfact> 0.61547668E+03</totfact>
</mgrwt>
</event>
<event>
 6    1  0.4180481E-002  0.1303229E+03  0.7546771E-02  0.1226977E+00
         21   -1    0    0  503  502  0.00000000000E+00  0.00000000000E+00  0.23728363254E+03  0.23728363254E+03  0.00000000000E+00 0. -1.
         21   -1    0    0  504  503 -0.00000000000E+00 -0.00000000000E+00 -0.59857562207E+02  0.59857562207E+02  0.00000000000E+00 0. -1.
         25    2    1    2    0    0  0.25271994920E+02  0.26840961116E+02  0.21052410018E+03  0.24759737071E+03  0.12499980123E+03 0.  0.
          5    1    3    3  501    0 -0.25374950262E+02 -0.34642361233E+02  0.11764909389E+03  0.12524097008E+03  0.10000000000E+00 0. -1.
         -5    1    3    3    0  501  0.50646945182E+02  0.61483322349E+02  0.92875006286E+02  0.12235640063E+03  0.10000000000E+00 0. -1.
         21    1    1    2  504  502 -0.25271994920E+02 -0.26840961116E+02 -0.33098029843E+02  0.49543824038E+02  0.00000000000E+00 0. -1.
<mgrwt>
<rscale>  1 0.13032291E+03</rscale>
<asrwt>0</asrwt>
<pdfrwt beam="1">  1       21 0.36505174E-01 0.13032291E+03</pdfrwt>
<pdfrwt beam="2">  1       21 0.92088559E-02 0.13032291E+03</pdfrwt>
<totfact> 0.68254422E+05</totfact>
</mgrwt>
</event>
<event>
 6    1  0.4180481E-002  0.2156285E+03  0.7546771E-02  0.1137185E+00
         21   -1    0    0  503  502  0.00000000000E+00  0.00000000000E+00  0.33435485848E+02  0.33435485848E+02  0.00000000000E+00 0.  1.
         21   -1    0    0  504  503 -0.00000000000E+00 -0.00000000000E+00 -0.12085236590E+04  0.12085236590E+04  0.00000000000E+00 0.  1.
         25    2    1    2    0    0 -0.11115587016E+03 -0.13606974666E+03 -0.78597739880E+03  0.81501910438E+03  0.12500026265E+03 0.  0.
          5    1    3    3  501    0  0.23493621191E+02 -0.13984698162E+02 -0.18956391743E+03  0.19152548345E+03  0.10000000000E+00 0.  1.
         -5    1    3    3    0  501 -0.13464949136E+03 -0.12208504850E+03 -0.59641348137E+03  0.62349362094E+03  0.10000000000E+00 0.  1.
         21    1    1    2  504  502  0.11115587016E+03  0.13606974666E+03 -0.38911077432E+03  0.42694004043E+03  0.00000000000E+00 0.  1.
<mgrwt>
<rscale>  1 0.21562854E+03</rscale>
<asrwt>0</asrwt>
<pdfrwt beam="1">  1       21 0.51439219E-02 0.21562854E+03</pdfrwt>
<pdfrwt beam="2">  1       21 0.18592668E+00 0.21562854E+03</pdfrwt>
<totfact> 0.41932736E+04</totfact>
</mgrwt>
</event>
<event>
 6    1  0.4180481E-002  0.1314721E+03  0.7546771E-02  0.1225288E+00
         21   -1    0    0  504  502  0.00000000000E+00  0.00000000000E+00  0.16012675230E+02  0.16012675230E+02  0.00000000000E+00 0.  1.
         21   -1    0    0  502  503 -0.00000000000E+00 -0.00000000000E+00 -0.22619768558E+04  0.22619768558E+04  0.00000000000E+00 0.  1.
         25    2    1    2    0    0 -0.28455140376E+02 -0.29156464587E+02 -0.25762222842E+03  0.28923024114E+03  0.12500050149E+03 0.  0.
          5    1    3    3  501    0 -0.16304870726E+02 -0.85751396905E+00 -0.25791530390E+03  0.25843161208E+03  0.10000000000E+00 0.  1.
         -5    1    3    3    0  501 -0.12150269650E+02 -0.28298950618E+02  0.29307547520E+00  0.30798629059E+02  0.10000000000E+00 0.  1.
         21    1    1    2  504  503  0.28455140376E+02  0.29156464587E+02 -0.19883419521E+04  0.19887592898E+04  0.00000000000E+00 0.  1.
<mgrwt>
<rscale>  1 0.13147213E+03</rscale>
<asrwt>0</asrwt>
<pdfrwt beam="1">  1       21 0.24634879E-02 0.13147213E+03</pdfrwt>
<pdfrwt beam="2">  1       21 0.34799653E+00 0.13147213E+03</pdfrwt>
<totfact> 0.17049727E+04</totfact>
</mgrwt>
</event>
<event>
 6    1  0.4180481E-002  0.1265609E+03  0.7546771E-02  0.1232650E+00
         21   -1    0    0  504  502  0.00000000000E+00  0.00000000000E+00  0.38846013773E+02  0.38846013773E+02  0.00000000000E+00 0.  1.
         21   -1    0    0  502  503 -0.00000000000E+00 -0.00000000000E+00 -0.23823447114E+03  0.23823447114E+03  0.00000000000E+00 0.  1.
         25    2    1    2    0    0 -0.46608670675E+01 -0.19247317742E+02 -0.66966214312E+02  0.14318562550E+03  0.12500186626E+03 0.  0.
          5    1    3    3  501    0  0.40550457774E+02  0.35189345096E+02 -0.16149705598E+02  0.56066501807E+02  0.10000000000E+00 0. -1.
         -5    1    3    3    0  501 -0.45211324841E+02 -0.54436662838E+02 -0.50816508714E+02  0.87119123691E+02  0.10000000000E+00 0. -1.
         21    1    1    2  504  503  0.46608670675E+01  0.19247317742E+02 -0.13242224306E+03  0.13389485942E+03  0.00000000000E+00 0.  1.
<mgrwt>
<rscale>  1 0.12656085E+03</rscale>
<asrwt>0</asrwt>
<pdfrwt beam="1">  1       21 0.59763099E-02 0.12656085E+03</pdfrwt>
<pdfrwt beam="2">  1       21 0.36651457E-01 0.12656085E+03</pdfrwt>
<totfact> 0.14220612E+06</totfact>
</mgrwt>
</event>
<event>
 6    1  0.4180481E-002  0.1496508E+03  0.7546771E-02  0.1200903E+00
         21   -1    0    0  503  502  0.00000000000E+00  0.00000000000E+00  0.70284579250E+03  0.70284579250E+03  0.00000000000E+00 0. -1.
         21   -1    0    0  504  503 -0.00000000000E+00 -0.00000000000E+00 -0.21205311001E+02  0.21205311001E+02  0.00000000000E+00 0. -1.
         25    2    1    2    0    0  0.52409017710E+02  0.63417994498E+02  0.53895833883E+03  0.55934912719E+03  0.12500723153E+03 0.  0.
          5    1    3    3  501    0  0.61035121217E+02  0.66756616221E+02  0.54208887401E+03  0.54958355976E+03  0.10000000000E+00 0.  1.
         -5    1    3    3    0  501 -0.86261035076E+01 -0.33386217232E+01 -0.31305351831E+01  0.97655674319E+01  0.10000000000E+00 0.  1.
         21    1    1    2  504  502 -0.52409017710E+02 -0.63417994498E+02  0.14268214267E+03  0.16470197631E+03  0.00000000000E+00 0. -1.
<mgrwt>
<rscale>  1 0.14965078E+03</rscale>
<asrwt>0</asrwt>
<pdfrwt beam="1">  1       21 0.10813010E+00 0.14965078E+03</pdfrwt>
<pdfrwt beam="2">  1       21 0.32623561E-02 0.14965078E+03</pdfrwt>
<totfact> 0.37888281E+05</totfact>
</mgrwt>
</event>
<event>
 6    1  0.4180481E-002  0.1432344E+03  0.7546771E-02  0.1209042E+00
         21   -1    0    0  503  502  0.00000000000E+00  0.00000000000E+00  0.20114090961E+03  0.20114090961E+03  0.00000000000E+00 0.  1.
         21   -1    0    0  504  503 -0.00000000000E+00 -0.00000000000E+00 -0.11130573204E+03  0.11130573204E+03  0.00000000000E+00 0.  1.
         25    2    1    2    0    0 -0.52393760417E+02 -0.46323763657E+02  0.15905787291E+03  0.21404553008E+03  0.12500033921E+03 0.  0.
          5    1    3    3  501    0  0.79938692054E+01  0.22722030619E+02 -0.63461554607E+01  0.24909361884E+02  0.10000000000E+00 0.  1.
         -5    1    3    3    0  501 -0.60387629622E+02 -0.69045794276E+02  0.16540402837E+03  0.18913616819E+03  0.10000000000E+00 0.  1.
         21    1    1    2  504  502  0.52393760417E+02  0.46323763657E+02 -0.69222695331E+02  0.98401111573E+02  0.00000000000E+00 0.  1.
<mgrwt>
<rscale>  1 0.14323436E+03</rscale>
<asrwt>0</asrwt>
<pdfrwt beam="1">  1       21 0.30944755E-01 0.14323436E+03</pdfrwt>
<pdfrwt beam="2">  1       21 0.17123959E-01 0.14323436E+03</pdfrwt>
<totfact> 0.31197237E+05</totfact>
</mgrwt>
</event>
<event>
 6    1  0.4180481E-002  0.1307218E+03  0.7546771E-02  0.1226389E+00
         21   -1    0    0  503  502  0.00000000000E+00  0.00000000000E+00  0.12000261828E+04  0.12000261828E+04  0.00000000000E+00 0.  1.
         21   -1    0    0  504  503 -0.00000000000E+00 -0.00000000000E+00 -0.70976092194E+02  0.70976092194E+02  0.00000000000E+00 0.  1.
         25    2    1    2    0    0  0.38170603395E+02 -0.25542386655E+01  0.11910215592E+04  0.11981738326E+04  0.12499863842E+03 0.  0.
          5    1    3    3  501    0  0.16420441359E+02 -0.70606083624E+01  0.11593596983E+04  0.11594974787E+04  0.10000000000E+00 0. -1.
         -5    1    3    3    0  501  0.21750162036E+02  0.45063696969E+01  0.31661860883E+02  0.38676353900E+02  0.10000000000E+00 0. -1.
         21    1    1    2  504  502 -0.38170603395E+02  0.25542386655E+01 -0.61971468593E+02  0.72828442371E+02  0.00000000000E+00 0.  1.
<mgrwt>
<rscale>  1 0.13072176E+03</rscale>
<asrwt>0</asrwt>
<pdfrwt beam="1">  1       21 0.18461940E+00 0.13072176E+03</pdfrwt>
<pdfrwt beam="2">  1       21 0.10919400E-01 0.13072176E+03</pdfrwt>
<totfact> 0.12422246E+04</totfact>
</mgrwt>
</event>
<event>
 6    1  0.4180481E-002  0.1277836E+03  0.7546771E-02  0.1230782E+00
         21   -1    0    0  503  502  0.00000000000E+00  0.00000000000E+00  0.37438869887E+02  0.37438869887E+02  0.00000000000E+00 0. -1.
         21   -1    0    0  504  503 -0.00000000000E+00 -0.00000000000E+00 -0.37782549607E+03  0.37782549607E+03  0.00000000000E+00 0. -1.
         25    2    1    2    0    0  0.17715083324E+02 -0.19778458376E+02 -0.74215360774E+02  0.14777202191E+03  0.12499455625E+03 0.  0.
          5    1    3    3  501    0 -0.10694497344E+02 -0.40369725785E+02  0.20676784315E+02  0.46600712902E+02  0.10000000000E+00 0.  1.
         -5    1    3    3    0  501  0.28409580667E+02  0.20591267409E+02 -0.94892145089E+02  0.10117130901E+03  0.10000000000E+00 0.  1.
         21    1    1    2  504  502 -0.17715083324E+02  0.19778458376E+02 -0.26617126541E+03  0.26749234404E+03  0.00000000000E+00 0. -1.
<mgrwt>
<rscale>  1 0.12778361E+03</rscale>
<asrwt>0</asrwt>
<pdfrwt beam="1">  1       21 0.57598261E-02 0.12778361E+03</pdfrwt>
<pdfrwt beam="2">  1       21 0.58127000E-01 0.12778361E+03</pdfrwt>
<totfact> 0.59088642E+05</totfact>
</mgrwt>
</event>
<event>
 6    1  0.4180481E-002  0.1266629E+03  0.7546771E-02  0.1232493E+00
         21   -1    0    0  504  502  0.00000000000E+00  0.00000000000E+00  0.52842179131E+02  0.52842179131E+02  0.00000000000E+00 0. -1.
         21   -1    0    0  502  503 -0.00000000000E+00 -0.00000000000E+00 -0.10371440799E+03  0.10371440799E+03  0.00000000000E+00 0. -1.
         25    2    1    2    0    0 -0.17337465193E+02  0.10818452267E+02 -0.49772477416E+02  0.13609110247E+03  0.12500344817E+03 0.  0.
          5    1    3    3  501    0  0.93775266718E+01 -0.91189592761E+01  0.39069549324E+02  0.41201129950E+02  0.10000000000E+00 0.  1.
         -5    1    3    3    0  501 -0.26714991865E+02  0.19937411543E+02 -0.88842026741E+02  0.94889972519E+02  0.10000000000E+00 0.  1.
         21    1    1    2  504  503  0.17337465193E+02 -0.10818452267E+02 -0.10997514420E+01  0.20465484651E+02  0.00000000000E+00 0. -1.
<mgrwt>
<rscale>  1 0.12666289E+03</rscale>
<asrwt>0</asrwt>
<pdfrwt beam="1">  1       21 0.81295661E-02 0.12666289E+03</pdfrwt>
<pdfrwt beam="2">  1       21 0.15956063E-01 0.12666289E+03</pdfrwt>
<totfact> 0.40332523E+06</totfact>
</mgrwt>
</event>
<event>
 6    1  0.4180481E-002  0.1280967E+03  0.7546771E-02  0.1230308E+00
         21   -1    0    0  504  502  0.00000000000E+00  0.00000000000E+00  0.13225825649E+02  0.13225825649E+02  0.00000000000E+00 0. -1.
         21   -1    0    0  502  503 -0.00000000000E+00 -0.00000000000E+00 -0.48273093596E+03  0.48273093596E+03  0.00000000000E+00 0. -1.
         25    2    1    2    0    0  0.21988669613E+02  0.17301204174E+02 -0.33687181249E+03  0.36040446562E+03  0.12500371007E+03 0.  0.
          5    1    3    3  501    0  0.26137209834E+02  0.63237244120E+02 -0.27408536081E+03  0.28249760670E+03  0.10000000000E+00 0. -1.
         -5    1    3    3    0  501 -0.41485402201E+01 -0.45936039946E+02 -0.62786451685E+02  0.77906858921E+02  0.10000000000E+00 0. -1.
         21    1    1    2  504  503 -0.21988669613E+02 -0.17301204174E+02 -0.13263329782E+03  0.13555229599E+03  0.00000000000E+00 0. -1.
<mgrwt>
<rscale>  1 0.12809669E+03</rscale>
<asrwt>0</asrwt>
<pdfrwt beam="1">  1       21 0.20347423E-02 0.12809669E+03</pdfrwt>
<pdfrwt beam="2">  1       21 0.74266303E-01 0.12809669E+03</pdfrwt>
<totfact> 0.19401782E+06</totfact>
</mgrwt>
</event>
<event>
 6    1  0.4180481E-002  0.1292660E+03  0.7546771E-02  0.1228549E+00
         21   -1    0    0  503  502  0.00000000000E+00  0.00000000000E+00  0.57264816792E+02  0.57264816792E+02  0.00000000000E+00 0.  1.
         21   -1    0    0  504  503 -0.00000000000E+00 -0.00000000000E+00 -0.15366474833E+03  0.15366474833E+03  0.00000000000E+00 0.  1.
         25    2    1    2    0    0 -0.12487040686E+02 -0.30473606637E+02 -0.11507841324E+03  0.17306860151E+03  0.12500053099E+03 0.  0.
          5    1    3    3  501    0 -0.36640728863E+02  0.20782284637E+02 -0.10805181227E+03  0.11597262824E+03  0.10000000000E+00 0.  1.
         -5    1    3    3    0  501  0.24153688178E+02 -0.51255891274E+02 -0.70266009749E+01  0.57095973274E+02  0.10000000000E+00 0.  1.
         21    1    1    2  504  502  0.12487040686E+02  0.30473606637E+02  0.18678481705E+02  0.37860963609E+02  0.00000000000E+00 0.  1.
<mgrwt>
<rscale>  1 0.12926600E+03</rscale>
<asrwt>0</asrwt>
<pdfrwt beam="1">  1       21 0.88099719E-02 0.12926600E+03</pdfrwt>
<pdfrwt beam="2">  1       21 0.23640730E-01 0.12926600E+03</pdfrwt>
<totfact> 0.17013342E+06</totfact>
</mgrwt>
</event>
<event>
 6    1  0.4180481E-002  0.1264936E+03  0.7546771E-02  0.1232753E+00
         21   -1    0    0  503  502  0.00000000000E+00  0.00000000000E+00  0.22486535226E+04  0.22486535226E+04  0.00000000000E+00 0. -1.
         21   -1    0    0  504  503 -0.00000000000E+00 -0.00000000000E+00 -0.83084072844E+02  0.83084072844E+02  0.00000000000E+00 0.  1.
         25    2    1    2    0    0  0.81675903585E+00  0.19363246341E+02  0.22457187673E+04  0.22492784207E+04  0.12500011802E+03 0.  0.
          5    1    3    3  501    0  0.46894971832E+01  0.28384155475E+02  0.22331239294E+04  0.22333092365E+04  0.10000000000E+00 0. -1.
         -5    1    3    3    0  501 -0.38727381473E+01 -0.90209091338E+01  0.12594837912E+02  0.15969184212E+02  0.10000000000E+00 0. -1.
         21    1    1    2  504  502 -0.81675903585E+00 -0.19363246341E+02 -0.80149317534E+02  0.82459174780E+02  0.00000000000E+00 0.  1.
<mgrwt>
<rscale>  1 0.12649360E+03</rscale>
<asrwt>0</asrwt>
<pdfrwt beam="1">  1       21 0.34594665E+00 0.12649360E+03</pdfrwt>
<pdfrwt beam="2">  1       21 0.12782167E-01 0.12649360E+03</pdfrwt>
<totfact> 0.10871793E+03</totfact>
</mgrwt>
</event>
<event>
 6    1  0.4180481E-002  0.1402712E+03  0.7546771E-02  0.1212965E+00
         21   -1    0    0  503  502  0.00000000000E+00  0.00000000000E+00  0.26765251013E+03  0.26765251013E+03  0.00000000000E+00 0. -1.
         21   -1    0    0  504  503 -0.00000000000E+00 -0.00000000000E+00 -0.22972604213E+03  0.22972604213E+03  0.00000000000E+00 0.  1.
         25    2    1    2    0    0  0.34452257319E+02 -0.53501495349E+02  0.24414120987E+03  0.28156871049E+03  0.12500656117E+03 0.  0.
          5    1    3    3  501    0  0.50411773859E+02 -0.69372267344E+02  0.24445368339E+03  0.25905881908E+03  0.10000000000E+00 0. -1.
         -5    1    3    3    0  501 -0.15959516539E+02  0.15870771995E+02 -0.31247352006E+00  0.22509891417E+02  0.10000000000E+00 0. -1.
         21    1    1    2  504  502 -0.34452257319E+02  0.53501495349E+02 -0.20621474187E+03  0.21580984176E+03  0.00000000000E+00 0.  1.
<mgrwt>
<rscale>  1 0.14027120E+03</rscale>
<asrwt>0</asrwt>
<pdfrwt beam="1">  1       21 0.41177309E-01 0.14027120E+03</pdfrwt>
<pdfrwt beam="2">  1       21 0.35342468E-01 0.14027120E+03</pdfrwt>
<totfact> 0.45022162E+04</totfact>
</mgrwt>
</event>
<event>
 6    1  0.4180481E-002  0.1286152E+03  0.7546771E-02  0.1229525E+00
         21   -1    0    0  503  502  0.00000000000E+00  0.00000000000E+00  0.15385164989E+03  0.15385164989E+03  0.00000000000E+00 0. -1.
         21   -1    0    0  504  503 -0.00000000000E+00 -0.00000000000E+00 -0.41132669750E+02  0.41132669750E+02  0.00000000000E+00 0. -1.
         25    2    1    2    0    0 -0.86093755826E+01 -0.28968858414E+02  0.95578146549E+02  0.16024062551E+03  0.12501423863E+03 0.  0.
          5    1    3    3  501    0  0.21129654679E+02  0.32119209243E+02 -0.50986222320E+01  0.38782880991E+02  0.10000000000E+00 0.  1.
         -5    1    3    3    0  501 -0.29739030261E+02 -0.61088067657E+02  0.10067676878E+03  0.12145774452E+03  0.10000000000E+00 0.  1.
         21    1    1    2  504  502  0.86093755826E+01  0.28968858414E+02  0.17140833588E+02  0.34743694130E+02  0.00000000000E+00 0. -1.
<mgrwt>
<rscale>  1 0.12861522E+03</rscale>
<asrwt>0</asrwt>
<pdfrwt beam="1">  1       21 0.23669484E-01 0.12861522E+03</pdfrwt>
<pdfrwt beam="2">  1       21 0.63281031E-02 0.12861522E+03</pdfrwt>
<totfact> 0.29956860E+06</totfact>
</mgrwt>
</event>
<event>
 6    1  0.4180481E-002  0.1260562E+03  0.7546771E-02  0.1233428E+00
         21   -1    0    0  503  502  0.00000000000E+00  0.00000000000E+00  0.10486790550E+03  0.10486790550E+03  0.00000000000E+00 0. -1.
         21   -1    0    0  504  503 -0.00000000000E+00 -0.00000000000E+00 -0.55005164852E+02  0.55005164852E+02  0.00000000000E+00 0. -1.
         25    2    1    2    0    0  0.15298648614E+02  0.55610759779E+01  0.61109478242E+02  0.14008763828E+03  0.12500081541E+03 0.  0.
          5    1    3    3  501    0  0.60655481257E+02  0.24281602203E+02  0.49661887873E+01  0.65523710542E+02  0.10000000000E+00 0. -1.
         -5    1    3    3    0  501 -0.45356832644E+02 -0.18720526225E+02  0.56143289455E+02  0.74563927743E+02  0.10000000000E+00 0. -1.
         21    1    1    2  504  502 -0.15298648614E+02 -0.55610759779E+01 -0.11246737596E+02  0.19785432065E+02  0.00000000000E+00 0.  1.
<mgrwt>
<rscale>  1 0.12605625E+03</rscale>
<asrwt>0</asrwt>
<pdfrwt beam="1">  1       21 0.16133524E-01 0.12605625E+03</pdfrwt>
<pdfrwt beam="2">  1       21 0.84623331E-02 0.12605625E+03</pdfrwt>
<totfact> 0.36878240E+06</totfact>
</mgrwt>
</event>
<event>
 6    1  0.4180481E-002  0.1262816E+03  0.7546771E-02  0.1233080E+00
         21   -1    0    0  503  502  0.00000000000E+00  0.00000000000E+00  0.19880372863E+03  0.19880372863E+03  0.00000000000E+00 0. -1.
         21   -1    0    0  504  503 -0.00000000000E+00 -0.00000000000E+00 -0.30120779176E+02  0.30120779176E+02  0.00000000000E+00 0. -1.
         25    2    1    2    0    0 -0.16101417209E+02  0.79247984423E+01  0.16900784768E+03  0.21097559070E+03  0.12499995691E+03 0.  0.
          5    1    3    3  501    0  0.39919161418E+02  0.44069079081E+02  0.74526636436E+02  0.95340719097E+02  0.10000000000E+00 0.  1.
         -5    1    3    3    0  501 -0.56020578626E+02 -0.36144280639E+02  0.94481211242E+02  0.11563487160E+03  0.10000000000E+00 0.  1.
         21    1    1    2  504  502  0.16101417209E+02 -0.79247984423E+01 -0.32489822509E+00  0.17948917107E+02  0.00000000000E+00 0. -1.
<mgrwt>
<rscale>  1 0.12628162E+03</rscale>
<asrwt>0</asrwt>
<pdfrwt beam="1">  1       21 0.30585188E-01 0.12628162E+03</pdfrwt>
<pdfrwt beam="2">  1       21 0.46339662E-02 0.12628162E+03</pdfrwt>
<totfact> 0.31067522E+06</totfact>
</mgrwt>
</event>
<event>
 6    1  0.4180481E-002  0.1310686E+03  0.7546771E-02  0.1225879E+00
         21   -1    0    0  503  502  0.00000000000E+00  0.00000000000E+00  0.74303828231E+03  0.74303828231E+03  0.00000000000E+00 0. -1.
         21   -1    0    0  504  503 -0.00000000000E+00 -0.00000000000E+00 -0.17315725989E+03  0.17315725989E+03  0.00000000000E+00 0. -1.
         25    2    1    2    0    0 -0.37221620814E+01 -0.39237584448E+02  0.73491967397E+03  0.74651584681E+03  0.12500215932E+03 0.  0.
          5    1    3    3  501    0 -0.44571412900E+02 -0.47064142198E+02  0.63479587529E+03  0.63809674628E+03  0.10000000000E+00 0. -1.
         -5    1    3    3    0  501  0.40849250818E+02  0.78265577499E+01  0.10012379867E+03  0.10841910053E+03  0.10000000000E+00 0. -1.
         21    1    1    2  504  502  0.37221620814E+01  0.39237584448E+02 -0.16503865154E+03  0.16967969539E+03  0.00000000000E+00 0. -1.
<mgrwt>
<rscale>  1 0.13106862E+03</rscale>
<asrwt>0</asrwt>
<pdfrwt beam="1">  1       21 0.11431358E+00 0.13106862E+03</pdfrwt>
<pdfrwt beam="2">  1       21 0.26639579E-01 0.13106862E+03</pdfrwt>
<totfact> 0.83947019E+03</totfact>
</mgrwt>
</event>
<event>
 6    1  0.4180481E-002  0.1889643E+03  0.7546771E-02  0.1159399E+00
         21   -1    0    0  503  502  0.00000000000E+00  0.00000000000E+00  0.19008702908E+03  0.19008702908E+03  0.00000000000E+00 0.  1.
         21   -1    0    0  504  503 -0.00000000000E+00 -0.00000000000E+00 -0.53610827786E+03  0.53610827786E+03  0.00000000000E+00 0.  1.
         25    2    1    2    0    0  0.12218342551E+03 -0.71782375008E+02  0.13010844643E+03  0.22942475075E+03  0.12500403830E+03 0.  0.
          5    1    3    3  501    0  0.12933070897E+03 -0.31932365336E+02  0.13375309670E+03  0.18877502249E+03  0.10000000000E+00 0. -1.
         -5    1    3    3    0  501 -0.71472834627E+01 -0.39850009672E+02 -0.36446502708E+01  0.40649728257E+02  0.10000000000E+00 0. -1.
         21    1    1    2  504  502 -0.12218342551E+03  0.71782375008E+02 -0.47612969521E+03  0.49677055619E+03  0.00000000000E+00 0.  1.
<mgrwt>
<rscale>  1 0.18896430E+03</rscale>
<asrwt>0</asrwt>
<pdfrwt beam="1">  1       21 0.29244159E-01 0.18896430E+03</pdfrwt>
<pdfrwt beam="2">  1       21 0.82478196E-01 0.18896430E+03</pdfrwt>
<totfact> 0.14407499E+04</totfact>
</mgrwt>
</event>
<event>
 6    1  0.4180481E-002  0.1266787E+03  0.7546771E-02  0.1232469E+00
         21   -1    0    0  504  502  0.00000000000E+00  0.00000000000E+00  0.32667163512E+02  0.32667163512E+02  0.00000000000E+00 0. -1.
         21   -1    0    0  502  503 -0.00000000000E+00 -0.00000000000E+00 -0.26763507913E+03  0.26763507913E+03  0.00000000000E+00 0. -1.
         25    2    1    2    0    0  0.13923911988E+02 -0.15162710285E+02 -0.93761115807E+02  0.15760275623E+03  0.12499479520E+03 0.  0.
          5    1    3    3  501    0  0.72279367570E+01 -0.56280613577E+02 -0.19435547603E+01  0.56776209273E+02  0.10000000000E+00 0.  1.
         -5    1    3    3    0  501  0.66959752313E+01  0.41117903292E+02 -0.91817561047E+02  0.10082654696E+03  0.10000000000E+00 0.  1.
         21    1    1    2  504  503 -0.13923911988E+02  0.15162710285E+02 -0.14120679981E+03  0.14269948641E+03  0.00000000000E+00 0. -1.
<mgrwt>
<rscale>  1 0.12667866E+03</rscale>
<asrwt>0</asrwt>
<pdfrwt beam="1">  1       21 0.50257173E-02 0.12667866E+03</pdfrwt>
<pdfrwt beam="2">  1       21 0.41174629E-01 0.12667866E+03</pdfrwt>
<totfact> 0.15109441E+06</totfact>
</mgrwt>
</event>
<event>
 6    1  0.4180481E-002  0.1292127E+03  0.7546771E-02  0.1228629E+00
         21   -1    0    0  503  502  0.00000000000E+00  0.00000000000E+00  0.21436399367E+03  0.21436399367E+03  0.00000000000E+00 0. -1.
         21   -1    0    0  504  503 -0.00000000000E+00 -0.00000000000E+00 -0.31734192298E+02  0.31734192298E+02  0.00000000000E+00 0. -1.
         25    2    1    2    0    0  0.22530234609E+02 -0.23730441821E+02  0.16276553512E+03  0.20781849926E+03  0.12500065549E+03 0.  0.
          5    1    3    3  501    0  0.40369206641E+02  0.23722958292E+02  0.14768077289E+03  0.15492602194E+03  0.10000000000E+00 0. -1.
         -5    1    3    3    0  501 -0.17838972032E+02 -0.47453400113E+02  0.15084762236E+02  0.52892477321E+02  0.10000000000E+00 0. -1.
         21    1    1    2  504  502 -0.22530234609E+02  0.23730441821E+02  0.19864266252E+02  0.38279686706E+02  0.00000000000E+00 0. -1.
<mgrwt>
<rscale>  1 0.12921265E+03</rscale>
<asrwt>0</asrwt>
<pdfrwt beam="1">  1       21 0.32979075E-01 0.12921265E+03</pdfrwt>
<pdfrwt beam="2">  1       21 0.48821836E-02 0.12921265E+03</pdfrwt>
<totfact> 0.24613189E+06</totfact>
</mgrwt>
</event>
<event>
 6    1  0.4180481E-002  0.1328964E+03  0.7546771E-02  0.1223220E+00
         21   -1    0    0  504  502  0.00000000000E+00  0.00000000000E+00  0.13568871112E+02  0.13568871112E+02  0.00000000000E+00 0. -1.
         21   -1    0    0  502  503 -0.00000000000E+00 -0.00000000000E+00 -0.58592326463E+03  0.58592326463E+03  0.00000000000E+00 0. -1.
         25    2    1    2    0    0 -0.40092458951E+02  0.20753332638E+02 -0.44157665341E+03  0.46114140973E+03  0.12499341123E+03 0.  0.
          5    1    3    3  501    0 -0.37333337043E+02  0.67066815252E+02 -0.18316802990E+03  0.19860078787E+03  0.10000000000E+00 0.  1.
         -5    1    3    3    0  501 -0.27591219077E+01 -0.46313482614E+02 -0.25840862350E+03  0.26254062186E+03  0.10000000000E+00 0.  1.
         21    1    1    2  504  503  0.40092458951E+02 -0.20753332638E+02 -0.13077774012E+03  0.13835072602E+03  0.00000000000E+00 0. -1.
<mgrwt>
<rscale>  1 0.13289642E+03</rscale>
<asrwt>0</asrwt>
<pdfrwt beam="1">  1       21 0.20875188E-02 0.13289642E+03</pdfrwt>
<pdfrwt beam="2">  1       21 0.90142036E-01 0.13289642E+03</pdfrwt>
<totfact> 0.12054513E+06</totfact>
</mgrwt>
</event>
<event>
 6    1  0.4180481E-002  0.1357112E+03  0.7546771E-02  0.1219219E+00
         21   -1    0    0  503  502  0.00000000000E+00  0.00000000000E+00  0.28275070799E+03  0.28275070799E+03  0.00000000000E+00 0. -1.
         21   -1    0    0  504  503 -0.00000000000E+00 -0.00000000000E+00 -0.36175586020E+02  0.36175586020E+02  0.00000000000E+00 0. -1.
         25    2    1    2    0    0 -0.49398363517E+02 -0.18735155885E+02  0.22305408541E+03  0.26109512988E+03  0.12500534966E+03 0.  0.
          5    1    3    3  501    0  0.96855052156E+01 -0.39116802196E+02  0.13625623967E+02  0.42539403543E+02  0.10000000000E+00 0. -1.
         -5    1    3    3    0  501 -0.59083868732E+02  0.20381646310E+02  0.20942846144E+03  0.21855572633E+03  0.10000000000E+00 0. -1.
         21    1    1    2  504  502  0.49398363517E+02  0.18735155885E+02  0.23521036561E+02  0.57831164134E+02  0.00000000000E+00 0. -1.
<mgrwt>
<rscale>  1 0.13571124E+03</rscale>
<asrwt>0</asrwt>
<pdfrwt beam="1">  1       21 0.43500108E-01 0.13571124E+03</pdfrwt>
<pdfrwt beam="2">  1       21 0.55654749E-02 0.13571124E+03</pdfrwt>
<totfact> 0.11399825E+06</totfact>
</mgrwt>
</event>
<event>
 6    1  0.4180481E-002  0.1268580E+03  0.7546771E-02  0.1232194E+00
         21   -1    0    0  504  502  0.00000000000E+00  0.00000000000E+00  0.41039477146E+03  0.41039477146E+03  0.00000000000E+00 0.  1.
         21   -1    0    0  502  503 -0.00000000000E+00 -0.00000000000E+00 -0.14096257224E+02  0.14096257224E+02  0.00000000000E+00 0.  1.
         25    2    1    2    0    0  0.17473869222E+02 -0.12830211702E+02  0.29884811095E+03  0.32465851124E+03  0.12499202001E+03 0.  0.
          5    1    3    3  501    0 -0.25213391679E+02 -0.24304080493E+02  0.26912040328E+03  0.27138939719E+03  0.10000000000E+00 0. -1.
         -5    1    3    3    0  501  0.42687260901E+02  0.11473868792E+02  0.29727707671E+02  0.53269114049E+02  0.10000000000E+00 0. -1.
         21    1    1    2  504  503 -0.17473869222E+02  0.12830211702E+02  0.97450403286E+02  0.99832517440E+02  0.00000000000E+00 0.  1.
<mgrwt>
<rscale>  1 0.12685801E+03</rscale>
<asrwt>0</asrwt>
<pdfrwt beam="1">  1       21 0.63137648E-01 0.12685801E+03</pdfrwt>
<pdfrwt beam="2">  1       21 0.21686553E-02 0.12685801E+03</pdfrwt>
<totfact> 0.24894155E+06</totfact>
</mgrwt>
</event>
<event>
 6    1  0.4180481E-002  0.1266984E+03  0.7546771E-02  0.1232439E+00
         21   -1    0    0  503  502  0.00000000000E+00  0.00000000000E+00  0.17887488276E+02  0.17887488276E+02  0.00000000000E+00 0.  1.
         21   -1    0    0  504  503 -0.00000000000E+00 -0.00000000000E+00 -0.30682806217E+03  0.30682806217E+03  0.00000000000E+00 0.  1.
         25    2    1    2    0    0 -0.18114307759E+02  0.99576363710E+01 -0.25905009841E+03  0.28837379496E+03  0.12500083784E+03 0.  0.
          5    1    3    3  501    0  0.36676426115E+02 -0.36431889349E+02 -0.14134967141E+03  0.15050641980E+03  0.10000000000E+00 0.  1.
         -5    1    3    3    0  501 -0.54790733873E+02  0.46389525720E+02 -0.11770042700E+03  0.13786737515E+03  0.10000000000E+00 0.  1.
         21    1    1    2  504  502  0.18114307759E+02 -0.99576363710E+01 -0.29890475482E+02  0.36341755492E+02  0.00000000000E+00 0.  1.
<mgrwt>
<rscale>  1 0.12669843E+03</rscale>
<asrwt>0</asrwt>
<pdfrwt beam="1">  1       21 0.27519215E-02 0.12669843E+03</pdfrwt>
<pdfrwt beam="2">  1       21 0.47204314E-01 0.12669843E+03</pdfrwt>
<totfact> 0.31047756E+06</totfact>
</mgrwt>
</event>
<event>
 6    1  0.4180481E-002  0.1550653E+03  0.7546771E-02  0.1194383E+00
         21   -1    0    0  504  502  0.00000000000E+00  0.00000000000E+00  0.35568648196E+03  0.35568648196E+03  0.00000000000E+00 0.  1.
         21   -1    0    0  502  503 -0.00000000000E+00 -0.00000000000E+00 -0.54450767150E+02  0.54450767150E+02  0.00000000000E+00 0.  1.
         25    2    1    2    0    0 -0.89527227091E+02  0.20135969820E+02  0.27328135268E+03  0.31421004737E+03  0.12499869789E+03 0.  0.
          5    1    3    3  501    0 -0.45434516557E+01 -0.25847899102E+02  0.17289395812E+03  0.17487449098E+03  0.10000000000E+00 0.  1.
         -5    1    3    3    0  501 -0.84983775435E+02  0.45983868923E+02  0.10038739456E+03  0.13933555639E+03  0.10000000000E+00 0.  1.
         21    1    1    2  504  503  0.89527227091E+02 -0.20135969820E+02  0.27954362126E+02  0.95927201737E+02  0.00000000000E+00 0.  1.
<mgrwt>
<rscale>  1 0.15506533E+03</rscale>
<asrwt>0</asrwt>
<pdfrwt beam="1">  1       21 0.54720996E-01 0.15506533E+03</pdfrwt>
<pdfrwt beam="2">  1       21 0.83770413E-02 0.15506533E+03</pdfrwt>
<totfact> 0.35203129E+05</totfact>
</mgrwt>
</event>
<event>
 6    1  0.4180481E-002  0.1260835E+03  0.7546771E-02  0.1233386E+00
         21   -1    0    0  504  502  0.00000000000E+00  0.00000000000E+00  0.17913351604E+03  0.17913351604E+03  0.00000000000E+00 0. -1.
         21   -1    0    0  502  503 -0.00000000000E+00 -0.00000000000E+00 -0.28554849585E+02  0.28554849585E+02  0.00000000000E+00 0. -1.
         25    2    1    2    0    0  0.15700864823E+02 -0.51211494185E+01  0.13802535388E+03  0.18694399327E+03  0.12499725989E+03 0.  0.
          5    1    3    3  501    0  0.59729639998E+02 -0.33344063590E+02  0.10424296030E+03  0.12468384515E+03  0.10000000000E+00 0.  1.
         -5    1    3    3    0  501 -0.44028775175E+02  0.28222914172E+02  0.33782393584E+02  0.62260148121E+02  0.10000000000E+00 0.  1.
         21    1    1    2  504  503 -0.15700864823E+02  0.51211494185E+01  0.12553312573E+02  0.20744372348E+02  0.00000000000E+00 0. -1.
<mgrwt>
<rscale>  1 0.12608354E+03</rscale>
<asrwt>0</asrwt>
<pdfrwt beam="1">  1       21 0.27559002E-01 0.12608354E+03</pdfrwt>
<pdfrwt beam="2">  1       21 0.43930539E-02 0.12608354E+03</pdfrwt>
<totfact> 0.41486809E+06</totfact>
</mgrwt>
</event>
<event>
 6    1  0.4180481E-002  0.1330261E+03  0.7546771E-02  0.1223033E+00
         21   -1    0    0  504  502  0.00000000000E+00  0.00000000000E+00  0.37824837655E+03  0.37824837655E+03  0.00000000000E+00 0.  1.
         21   -1    0    0  502  503 -0.00000000000E+00 -0.00000000000E+00 -0.26130932319E+02  0.26130932319E+02  0.00000000000E+00 0.  1.
         25    2    1    2    0    0  0.26806950293E+02 -0.36785506678E+02  0.32554129620E+03  0.35167183568E+03  0.12499663354E+03 0.  0.
          5    1    3    3  501    0 -0.85857360401E+01  0.22691087336E+02  0.63711873403E+01  0.25083905915E+02  0.10000000000E+00 0. -1.
         -5    1    3    3    0  501  0.35392686333E+02 -0.59476594014E+02  0.31917010886E+03  0.32658792977E+03  0.10000000000E+00 0. -1.
         21    1    1    2  504  503 -0.26806950293E+02  0.36785506678E+02  0.26576148035E+02  0.52707473189E+02  0.00000000000E+00 0.  1.
<mgrwt>
<rscale>  1 0.13302610E+03</rscale>
<asrwt>0</asrwt>
<pdfrwt beam="1">  1       21 0.58192054E-01 0.13302610E+03</pdfrwt>
<pdfrwt beam="2">  1       21 0.40201437E-02 0.13302610E+03</pdfrwt>
<totfact> 0.10773277E+06</totfact>
</mgrwt>
</event>
<event>
 6    1  0.4180481E-002  0.1272765E+03  0.7546771E-02  0.1231554E+00
         21   -1    0    0  503  502  0.00000000000E+00  0.00000000000E+00  0.95715064068E+03  0.95715064068E+03  0.00000000000E+00 0.  1.
         21   -1    0    0  504  503 -0.00000000000E+00 -0.00000000000E+00 -0.59770173786E+01  0.59770173786E+01  0.00000000000E+00 0.  1.
         25    2    1    2    0    0 -0.19896739831E+02  0.13365925766E+02  0.79360261572E+03  0.80374399937E+03  0.12499910645E+03 0.  0.
          5    1    3    3  501    0 -0.64095870274E+02  0.34262823586E+02  0.35074442327E+03  0.35819531281E+03  0.10000000000E+00 0. -1.
         -5    1    3    3    0  501  0.44199130443E+02 -0.20896897820E+02  0.44285819245E+03  0.44554868656E+03  0.10000000000E+00 0. -1.
         21    1    1    2  504  502  0.19896739831E+02 -0.13365925766E+02  0.15757100758E+03  0.15938365869E+03  0.00000000000E+00 0. -1.
<mgrwt>
<rscale>  1 0.12727649E+03</rscale>
<asrwt>0</asrwt>
<pdfrwt beam="1">  1       21 0.14725382E+00 0.12727649E+03</pdfrwt>
<pdfrwt beam="2">  1       21 0.91954190E-03 0.12727649E+03</pdfrwt>
<totfact> 0.13561360E+06</totfact>
</mgrwt>
</event>
<event>
 6    1  0.4180481E-002  0.1280924E+03  0.7546771E-02  0.1230314E+00
         21   -1    0    0  504  502  0.00000000000E+00  0.00000000000E+00  0.29835684015E+02  0.29835684015E+02  0.00000000000E+00 0. -1.
         21   -1    0    0  502  503 -0.00000000000E+00 -0.00000000000E+00 -0.22423812269E+03  0.22423812269E+03  0.00000000000E+00 0. -1.
         25    2    1    2    0    0  0.26115006764E+02 -0.10022146853E+02 -0.12383642846E+03  0.17816597573E+03  0.12500086755E+03 0.  0.
          5    1    3    3  501    0 -0.10002574672E+02  0.50113503369E+02 -0.24797615340E+02  0.56800937021E+02  0.10000000000E+00 0.  1.
         -5    1    3    3    0  501  0.36117581436E+02 -0.60135650222E+02 -0.99038813125E+02  0.12136503871E+03  0.10000000000E+00 0.  1.
         21    1    1    2  504  503 -0.26115006764E+02  0.10022146853E+02 -0.70566010210E+02  0.75907830971E+02  0.00000000000E+00 0. -1.
<mgrwt>
<rscale>  1 0.12809236E+03</rscale>
<asrwt>0</asrwt>
<pdfrwt beam="1">  1       21 0.45901050E-02 0.12809236E+03</pdfrwt>
<pdfrwt beam="2">  1       21 0.34498174E-01 0.12809236E+03</pdfrwt>
<totfact> 0.24984876E+06</totfact>
</mgrwt>
</event>
<event>
 6    1  0.4180481E-002  0.1442536E+03  0.7546771E-02  0.1207717E+00
         21   -1    0    0  504  502  0.00000000000E+00  0.00000000000E+00  0.13335281812E+03  0.13335281812E+03  0.00000000000E+00 0. -1.
         21   -1    0    0  502  503 -0.00000000000E+00 -0.00000000000E+00 -0.39459756799E+03  0.39459756799E+03  0.00000000000E+00 0.  1.
         25    2    1    2    0    0  0.65658469009E-01 -0.72004021555E+02  0.89585213327E+02  0.16980761220E+03  0.12499812511E+03 0.  0.
          5    1    3    3  501    0  0.14912635792E+02 -0.68637124770E+02  0.11814292098E+03  0.13744526686E+03  0.10000000000E+00 0. -1.
         -5    1    3    3    0  501 -0.14846977323E+02 -0.33668967857E+01 -0.28557707654E+02  0.32362345342E+02  0.10000000000E+00 0. -1.
         21    1    1    2  504  503 -0.65658469009E-01  0.72004021555E+02 -0.35082996320E+03  0.35814277392E+03  0.00000000000E+00 0.  1.
<mgrwt>
<rscale>  1 0.14425365E+03</rscale>
<asrwt>0</asrwt>
<pdfrwt beam="1">  1       21 0.20515819E-01 0.14425365E+03</pdfrwt>
<pdfrwt beam="2">  1       21 0.60707317E-01 0.14425365E+03</pdfrwt>
<totfact> 0.56905119E+04</totfact>
</mgrwt>
</event>
<event>
 6    1  0.4180481E-002  0.1261731E+03  0.7546771E-02  0.1233247E+00
         21   -1    0    0  504  502  0.00000000000E+00  0.00000000000E+00  0.20698418684E+02  0.20698418684E+02  0.00000000000E+00 0. -1.
         21   -1    0    0  502  503 -0.00000000000E+00 -0.00000000000E+00 -0.26873326281E+03  0.26873326281E+03  0.00000000000E+00 0. -1.
         25    2    1    2    0    0  0.46705086309E+01 -0.16504853598E+02 -0.23847103558E+03  0.26979268261E+03  0.12500173174E+03 0.  0.
          5    1    3    3  501    0  0.23445257848E+02  0.23885878368E+02 -0.21838005257E+03  0.22093001757E+03  0.10000000000E+00 0. -1.
         -5    1    3    3    0  501 -0.18774749217E+02 -0.40390731966E+02 -0.20090983004E+02  0.48862665041E+02  0.10000000000E+00 0. -1.
         21    1    1    2  504  503 -0.46705086309E+01  0.16504853598E+02 -0.95638085440E+01  0.19638998880E+02  0.00000000000E+00 0. -1.
<mgrwt>
<rscale>  1 0.12617312E+03</rscale>
<asrwt>0</asrwt>
<pdfrwt beam="1">  1       21 0.31843723E-02 0.12617312E+03</pdfrwt>
<pdfrwt beam="2">  1       21 0.41343576E-01 0.12617312E+03</pdfrwt>
<totfact> 0.31970214E+06</totfact>
</mgrwt>
</event>
<event>
 6    1  0.4180481E-002  0.1262884E+03  0.7546771E-02  0.1233069E+00
         21   -1    0    0  503  502  0.00000000000E+00  0.00000000000E+00  0.41721305434E+03  0.41721305434E+03  0.00000000000E+00 0.  1.
         21   -1    0    0  504  503 -0.00000000000E+00 -0.00000000000E+00 -0.21349772963E+02  0.21349772963E+02  0.00000000000E+00 0.  1.
         25    2    1    2    0    0 -0.28090949326E+01  0.17784104968E+02  0.40052614010E+03  0.41996423447E+03  0.12499841570E+03 0.  0.
          5    1    3    3  501    0  0.48467970161E+02 -0.10846965207E+02  0.80461870896E+02  0.94556456436E+02  0.10000000000E+00 0. -1.
         -5    1    3    3    0  501 -0.51277065093E+02  0.28631070174E+02  0.32006426920E+03  0.32540777803E+03  0.10000000000E+00 0. -1.
         21    1    1    2  504  502  0.28090949326E+01 -0.17784104968E+02 -0.46628587240E+01  0.18598592832E+02  0.00000000000E+00 0.  1.
<mgrwt>
<rscale>  1 0.12628844E+03</rscale>
<asrwt>0</asrwt>
<pdfrwt beam="1">  1       21 0.64186618E-01 0.12628844E+03</pdfrwt>
<pdfrwt beam="2">  1       21 0.32845808E-02 0.12628844E+03</pdfrwt>
<totfact> 0.12206617E+06</totfact>
</mgrwt>
</event>
<event>
 6    1  0.4180481E-002  0.1264120E+03  0.7546771E-02  0.1232879E+00
         21   -1    0    0  504  502  0.00000000000E+00  0.00000000000E+00  0.27686613945E+03  0.27686613945E+03  0.00000000000E+00 0. -1.
         21   -1    0    0  502  503 -0.00000000000E+00 -0.00000000000E+00 -0.19172806388E+02  0.19172806388E+02  0.00000000000E+00 0. -1.
         25    2    1    2    0    0 -0.55342187323E+01 -0.18047680880E+02  0.23129545439E+03  0.26358598972E+03  0.12499456146E+03 0.  0.
          5    1    3    3  501    0 -0.42564327455E+02  0.19205537786E+02  0.19303306363E+03  0.19860097761E+03  0.10000000000E+00 0.  1.
         -5    1    3    3    0  501  0.37030108723E+02 -0.37253218666E+02  0.38262390766E+02  0.64985012119E+02  0.10000000000E+00 0.  1.
         21    1    1    2  504  503  0.55342187323E+01  0.18047680880E+02  0.26397878667E+02  0.32452956109E+02  0.00000000000E+00 0.  1.
<mgrwt>
<rscale>  1 0.12641197E+03</rscale>
<asrwt>0</asrwt>
<pdfrwt beam="1">  1       21 0.42594788E-01 0.12641197E+03</pdfrwt>
<pdfrwt beam="2">  1       21 0.29496627E-02 0.12641197E+03</pdfrwt>
<totfact> 0.34142389E+06</totfact>
</mgrwt>
</event>
<event>
 6    1  0.4180481E-002  0.1364864E+03  0.7546771E-02  0.1218136E+00
         21   -1    0    0  503  502  0.00000000000E+00  0.00000000000E+00  0.49917809365E+03  0.49917809365E+03  0.00000000000E+00 0. -1.
         21   -1    0    0  504  503 -0.00000000000E+00 -0.00000000000E+00 -0.19161865438E+02  0.19161865438E+02  0.00000000000E+00 0. -1.
         25    2    1    2    0    0 -0.30444428580E+01 -0.54722083009E+02  0.28885663635E+03  0.31947879002E+03  0.12499906364E+03 0.  0.
          5    1    3    3  501    0 -0.42909676434E+02 -0.10131479822E+02  0.23465416867E+03  0.23876029001E+03  0.10000000000E+00 0.  1.
         -5    1    3    3    0  501  0.39865233576E+02 -0.44590603188E+02  0.54202467683E+02  0.80718500008E+02  0.10000000000E+00 0.  1.
         21    1    1    2  504  502  0.30444428580E+01  0.54722083009E+02  0.19115959186E+03  0.19886116906E+03  0.00000000000E+00 0. -1.
<mgrwt>
<rscale>  1 0.13648641E+03</rscale>
<asrwt>0</asrwt>
<pdfrwt beam="1">  1       21 0.76796620E-01 0.13648641E+03</pdfrwt>
<pdfrwt beam="2">  1       21 0.29479797E-02 0.13648641E+03</pdfrwt>
<totfact> 0.98599287E+05</totfact>
</mgrwt>
</event>
<event>
 6    1  0.4180481E-002  0.1273168E+03  0.7546771E-02  0.1231492E+00
         21   -1    0    0  503  502  0.00000000000E+00  0.00000000000E+00  0.35252475338E+03  0.35252475338E+03  0.00000000000E+00 0.  1.
         21   -1    0    0  504  503 -0.00000000000E+00 -0.00000000000E+00 -0.18166088027E+02  0.18166088027E+02  0.00000000000E+00 0.  1.
         25    2    1    2    0    0 -0.41585750836E+01  0.23856144165E+02  0.31477204363E+03  0.33954529419E+03  0.12499263175E+03 0.  0.
          5    1    3    3  501    0 -0.62212213464E+02  0.11191010427E+02  0.11628110305E+03  0.13235143801E+03  0.10000000000E+00 0.  1.
         -5    1    3    3    0  501  0.58053638380E+02  0.12665133738E+02  0.19849094059E+03  0.20719385617E+03  0.10000000000E+00 0.  1.
         21    1    1    2  504  502  0.41585750836E+01 -0.23856144165E+02  0.19586621721E+02  0.31145547219E+02  0.00000000000E+00 0.  1.
<mgrwt>
<rscale>  1 0.12731680E+03</rscale>
<asrwt>0</asrwt>
<pdfrwt beam="1">  1       21 0.54234572E-01 0.12731680E+03</pdfrwt>
<pdfrwt beam="2">  1       21 0.27947830E-02 0.12731680E+03</pdfrwt>
<totfact> 0.22728284E+06</totfact>
</mgrwt>
</event>
<event>
 6    1  0.4180481E-002  0.1359147E+03  0.7546771E-02  0.1218934E+00
         21   -1    0    0  504  502  0.00000000000E+00  0.00000000000E+00  0.20996072422E+02  0.20996072422E+02  0.00000000000E+00 0.  1.
         21   -1    0    0  502  503 -0.00000000000E+00 -0.00000000000E+00 -0.13723802200E+04  0.13723802200E+04  0.00000000000E+00 0.  1.
         25    2    1    2    0    0  0.39949284091E+02  0.35397994518E+02 -0.20629234559E+03  0.24704117637E+03  0.12499539055E+03 0.  0.
          5    1    3    3  501    0 -0.11024813318E+02 -0.25575634978E+02 -0.14231739582E+03  0.14501693269E+03  0.10000000000E+00 0.  1.
         -5    1    3    3    0  501  0.50974097409E+02  0.60973629497E+02 -0.63974949767E+02  0.10202424368E+03  0.10000000000E+00 0.  1.
         21    1    1    2  504  503 -0.39949284091E+02 -0.35397994518E+02 -0.11450918019E+04  0.11463351160E+04  0.00000000000E+00 0.  1.
<mgrwt>
<rscale>  1 0.13591472E+03</rscale>
<asrwt>0</asrwt>
<pdfrwt beam="1">  1       21 0.32301642E-02 0.13591472E+03</pdfrwt>
<pdfrwt beam="2">  1       21 0.21113547E+00 0.13591472E+03</pdfrwt>
<totfact> 0.66477652E+04</totfact>
</mgrwt>
</event>
<event>
 6    1  0.4180481E-002  0.1268674E+03  0.7546771E-02  0.1232179E+00
         21   -1    0    0  503  502  0.00000000000E+00  0.00000000000E+00  0.37046954396E+03  0.37046954396E+03  0.00000000000E+00 0.  1.
         21   -1    0    0  504  503 -0.00000000000E+00 -0.00000000000E+00 -0.16046921850E+02  0.16046921850E+02  0.00000000000E+00 0.  1.
         25    2    1    2    0    0  0.14930238764E+02  0.15963067623E+02  0.33099688235E+03  0.35447747643E+03  0.12497045095E+03 0.  0.
          5    1    3    3  501    0  0.38472399486E+02  0.54655888442E+02  0.10863565263E+03  0.12755040841E+03  0.10000000000E+00 0. -1.
         -5    1    3    3    0  501 -0.23542160721E+02 -0.38692820819E+02  0.22236122973E+03  0.22692706802E+03  0.10000000000E+00 0. -1.
         21    1    1    2  504  502 -0.14930238764E+02 -0.15963067623E+02  0.23425739760E+02  0.32038989385E+02  0.00000000000E+00 0.  1.
<mgrwt>
<rscale>  1 0.12686743E+03</rscale>
<asrwt>0</asrwt>
<pdfrwt beam="1">  1       21 0.56995308E-01 0.12686743E+03</pdfrwt>
<pdfrwt beam="2">  1       21 0.24687575E-02 0.12686743E+03</pdfrwt>
<totfact> 0.25070005E+06</totfact>
</mgrwt>
</event>
<event>
 6    1  0.4180481E-002  0.1460974E+03  0.7546771E-02  0.1205352E+00
         21   -1    0    0  504  502  0.00000000000E+00  0.00000000000E+00  0.15216684310E+03  0.15216684310E+03  0.00000000000E+00 0.  1.
         21   -1    0    0  502  503 -0.00000000000E+00 -0.00000000000E+00 -0.88091863156E+02  0.88091863156E+02  0.00000000000E+00 0.  1.
         25    2    1    2    0    0 -0.29973049281E+02 -0.69440627384E+02  0.74354755792E+02  0.16393008642E+03  0.12499623639E+03 0.  0.
          5    1    3    3  501    0  0.15559423207E+02  0.65867668428E+01 -0.25393931970E+02  0.30501523386E+02  0.10000000000E+00 0. -1.
         -5    1    3    3    0  501 -0.45532472488E+02 -0.76027394227E+02  0.99748687762E+02  0.13342856304E+03  0.10000000000E+00 0. -1.
         21    1    1    2  504  503  0.29973049281E+02  0.69440627384E+02 -0.10279775845E+02  0.76328619836E+02  0.00000000000E+00 0.  1.
<mgrwt>
<rscale>  1 0.14609738E+03</rscale>
<asrwt>0</asrwt>
<pdfrwt beam="1">  1       21 0.23410284E-01 0.14609738E+03</pdfrwt>
<pdfrwt beam="2">  1       21 0.13552594E-01 0.14609738E+03</pdfrwt>
<totfact> 0.81195819E+05</totfact>
</mgrwt>
</event>
<event>
 6    1  0.4180481E-002  0.1262891E+03  0.7546771E-02  0.1233068E+00
         21   -1    0    0  503  502  0.00000000000E+00  0.00000000000E+00  0.52475054526E+03  0.52475054526E+03  0.00000000000E+00 0.  1.
         21   -1    0    0  504  503 -0.00000000000E+00 -0.00000000000E+00 -0.26306416530E+03  0.26306416530E+03  0.00000000000E+00 0.  1.
         25    2    1    2    0    0  0.39628876277E+01 -0.17564725133E+02  0.51683031259E+03  0.53203619230E+03  0.12499885539E+03 0.  0.
          5    1    3    3  501    0 -0.97394749893E+00  0.37201176247E+02  0.51887224210E+02  0.63852722136E+02  0.10000000000E+00 0. -1.
         -5    1    3    3    0  501  0.49368351267E+01 -0.54765901380E+02  0.46494308838E+03  0.46818347016E+03  0.10000000000E+00 0. -1.
         21    1    1    2  504  502 -0.39628876277E+01  0.17564725133E+02 -0.25514393263E+03  0.25577851826E+03  0.00000000000E+00 0.  1.
<mgrwt>
<rscale>  1 0.12628910E+03</rscale>
<asrwt>0</asrwt>
<pdfrwt beam="1">  1       21 0.80730853E-01 0.12628910E+03</pdfrwt>
<pdfrwt beam="2">  1       21 0.40471410E-01 0.12628910E+03</pdfrwt>
<totfact> 0.83642015E+03</totfact>
</mgrwt>
</event>
<event>
 6    1  0.4180481E-002  0.1284859E+03  0.7546771E-02  0.1229720E+00
         21   -1    0    0  503  502  0.00000000000E+00  0.00000000000E+00  0.24762573648E+03  0.24762573648E+03  0.00000000000E+00 0.  1.
         21   -1    0    0  504  503 -0.00000000000E+00 -0.00000000000E+00 -0.87843770166E+02  0.87843770166E+02  0.00000000000E+00 0. -1.
         25    2    1    2    0    0 -0.29641827503E+02 -0.22015536262E+01  0.22763425915E+03  0.26139239533E+03  0.12500057448E+03 0.  0.
          5    1    3    3  501    0 -0.13505610950E+02 -0.49995135756E+02  0.19392734881E+03  0.20072304737E+03  0.10000000000E+00 0.  1.
         -5    1    3    3    0  501 -0.16136216553E+02  0.47793582130E+02  0.33706910340E+02  0.60669347962E+02  0.10000000000E+00 0.  1.
         21    1    1    2  504  502  0.29641827503E+02  0.22015536262E+01 -0.67852292844E+02  0.74077111312E+02  0.00000000000E+00 0. -1.
<mgrwt>
<rscale>  1 0.12848591E+03</rscale>
<asrwt>0</asrwt>
<pdfrwt beam="1">  1       21 0.38096267E-01 0.12848591E+03</pdfrwt>
<pdfrwt beam="2">  1       21 0.13514426E-01 0.12848591E+03</pdfrwt>
<totfact> 0.31900828E+05</totfact>
</mgrwt>
</event>
<event>
 6    1  0.4180481E-002  0.1305821E+03  0.7546771E-02  0.1226595E+00
         21   -1    0    0  503  502  0.00000000000E+00  0.00000000000E+00  0.38793139420E+03  0.38793139420E+03  0.00000000000E+00 0.  1.
         21   -1    0    0  504  503 -0.00000000000E+00 -0.00000000000E+00 -0.23105426895E+02  0.23105426895E+02  0.00000000000E+00 0.  1.
         25    2    1    2    0    0 -0.22082981249E+02 -0.30600061184E+02  0.34396593008E+03  0.36791880910E+03  0.12501066846E+03 0.  0.
          5    1    3    3  501    0  0.37709126357E+01  0.24868902537E+02  0.27322318859E+03  0.27437857584E+03  0.10000000000E+00 0. -1.
         -5    1    3    3    0  501 -0.25853893885E+02 -0.55468963721E+02  0.70742741488E+02  0.93540233261E+02  0.10000000000E+00 0. -1.
         21    1    1    2  504  502  0.22082981249E+02  0.30600061184E+02  0.20860037226E+02  0.43118011995E+02  0.00000000000E+00 0.  1.
<mgrwt>
<rscale>  1 0.13058212E+03</rscale>
<asrwt>0</asrwt>
<pdfrwt beam="1">  1       21 0.59681748E-01 0.13058212E+03</pdfrwt>
<pdfrwt beam="2">  1       21 0.35546813E-02 0.13058212E+03</pdfrwt>
<totfact> 0.12519960E+06</totfact>
</mgrwt>
</event>
<event>
 6    1  0.4180481E-002  0.1277794E+03  0.7546771E-02  0.1230788E+00
         21   -1    0    0  503  502  0.00000000000E+00  0.00000000000E+00  0.57396462700E+03  0.57396462700E+03  0.00000000000E+00 0.  1.
         21   -1    0    0  504  503 -0.00000000000E+00 -0.00000000000E+00 -0.10490412256E+02  0.10490412256E+02  0.00000000000E+00 0.  1.
         25    2    1    2    0    0 -0.20501765246E+02  0.16751436536E+02  0.48882883963E+03  0.50525361862E+03  0.12500660652E+03 0.  0.
          5    1    3    3  501    0  0.27353340336E+02 -0.30858036276E+02  0.33149405461E+03  0.33404901118E+03  0.10000000000E+00 0. -1.
         -5    1    3    3    0  501 -0.47855105581E+02  0.47609472812E+02  0.15733478502E+03  0.17120460744E+03  0.10000000000E+00 0. -1.
         21    1    1    2  504  502  0.20501765246E+02 -0.16751436536E+02  0.74645375114E+02  0.79201420632E+02  0.00000000000E+00 0.  1.
<mgrwt>
<rscale>  1 0.12777944E+03</rscale>
<asrwt>0</asrwt>
<pdfrwt beam="1">  1       21 0.88302226E-01 0.12777944E+03</pdfrwt>
<pdfrwt beam="2">  1       21 0.16139100E-02 0.12777944E+03</pdfrwt>
<totfact> 0.19108388E+06</totfact>
</mgrwt>
</event>
<event>
 6    1  0.4180481E-002  0.1354326E+03  0.7546771E-02  0.1219610E+00
         21   -1    0    0  504  502  0.00000000000E+00  0.00000000000E+00  0.15654151670E+03  0.15654151670E+03  0.00000000000E+00 0.  1.
         21   -1    0    0  502  503 -0.00000000000E+00 -0.00000000000E+00 -0.28700170279E+03  0.28700170279E+03  0.00000000000E+00 0. -1.
         25    2    1    2    0    0 -0.40472780509E+02  0.32882133135E+02  0.12410279126E+03  0.18369405155E+03  0.12499088421E+03 0.  0.
          5    1    3    3  501    0 -0.46209153285E+02 -0.40680283679E+02  0.59645538787E+02  0.85719143864E+02  0.10000000000E+00 0.  1.
         -5    1    3    3    0  501  0.57363727758E+01  0.73562416815E+02  0.64457252472E+02  0.97974907688E+02  0.10000000000E+00 0.  1.
         21    1    1    2  504  503  0.40472780509E+02 -0.32882133135E+02 -0.25456297735E+03  0.25984916794E+03  0.00000000000E+00 0. -1.
<mgrwt>
<rscale>  1 0.13543265E+03</rscale>
<asrwt>0</asrwt>
<pdfrwt beam="1">  1       21 0.24083310E-01 0.13543265E+03</pdfrwt>
<pdfrwt beam="2">  1       21 0.44154108E-01 0.13543265E+03</pdfrwt>
<totfact> 0.82060812E+04</totfact>
</mgrwt>
</event>
<event>
 6    1  0.4180481E-002  0.1270706E+03  0.7546771E-02  0.1231868E+00
         21   -1    0    0  503  502  0.00000000000E+00  0.00000000000E+00  0.17788121160E+04  0.17788121160E+04  0.00000000000E+00 0. -1.
         21   -1    0    0  504  503 -0.00000000000E+00 -0.00000000000E+00 -0.46415951394E+01  0.46415951394E+01  0.00000000000E+00 0.  1.
         25    2    1    2    0    0  0.14149067991E+02 -0.17961227371E+02  0.17195739881E+04  0.17242626375E+04  0.12499656229E+03 0.  0.
          5    1    3    3  501    0 -0.12115735472E+02 -0.29024125543E+02  0.16291528404E+04  0.16294564058E+04  0.10000000000E+00 0.  1.
         -5    1    3    3    0  501  0.26264803463E+02  0.11062898172E+02  0.90421147688E+02  0.94806231684E+02  0.10000000000E+00 0.  1.
         21    1    1    2  504  502 -0.14149067991E+02  0.17961227371E+02  0.54596532772E+02  0.59191073689E+02  0.00000000000E+00 0.  1.
<mgrwt>
<rscale>  1 0.12707062E+03</rscale>
<asrwt>0</asrwt>
<pdfrwt beam="1">  1       21 0.27366286E+00 0.12707062E+03</pdfrwt>
<pdfrwt beam="2">  1       21 0.71409298E-03 0.12707062E+03</pdfrwt>
<totfact> 0.32370766E+05</totfact>
</mgrwt>
</event>
<event>
 6    1  0.4180481E-002  0.1263142E+03  0.7546771E-02  0.1233030E+00
         21   -1    0    0  503  502  0.00000000000E+00  0.00000000000E+00  0.37369228399E+03  0.37369228399E+03  0.00000000000E+00 0.  1.
         21   -1    0    0  504  503 -0.00000000000E+00 -0.00000000000E+00 -0.16149016065E+02  0.16149016065E+02  0.00000000000E+00 0.  1.
         25    2    1    2    0    0  0.15757823867E+02  0.92385727938E+01  0.34574418131E+03  0.36809552609E+03  0.12498646798E+03 0.  0.
          5    1    3    3  501    0  0.43162596712E+02 -0.35497868607E+02  0.27146226890E+03  0.27715497807E+03  0.10000000000E+00 0.  1.
         -5    1    3    3    0  501 -0.27404772845E+02  0.44736441401E+02  0.74281912407E+02  0.90940548023E+02  0.10000000000E+00 0.  1.
         21    1    1    2  504  502 -0.15757823867E+02 -0.92385727938E+01  0.11799086617E+02  0.21745773963E+02  0.00000000000E+00 0.  1.
<mgrwt>
<rscale>  1 0.12631420E+03</rscale>
<asrwt>0</asrwt>
<pdfrwt beam="1">  1       21 0.57491114E-01 0.12631420E+03</pdfrwt>
<pdfrwt beam="2">  1       21 0.24844643E-02 0.12631420E+03</pdfrwt>
<totfact> 0.24361325E+06</totfact>
</mgrwt>
</event>
<event>
 6    1  0.4180481E-002  0.1717955E+03  0.7546771E-02  0.1175988E+00
         21   -1    0    0  504  502  0.00000000000E+00  0.00000000000E+00  0.41623102212E+02  0.41623102212E+02  0.00000000000E+00 0. -1.
         21   -1    0    0  502  503 -0.00000000000E+00 -0.00000000000E+00 -0.89421900410E+03  0.89421900410E+03  0.00000000000E+00 0. -1.
         25    2    1    2    0    0 -0.11055176921E+03  0.40802036526E+02 -0.16492308580E+03  0.23814560937E+03  0.12500882838E+03 0.  0.
          5    1    3    3  501    0 -0.25345040407E+02 -0.39962386518E+02 -0.81079882708E+02  0.93879288395E+02  0.10000000000E+00 0. -1.
         -5    1    3    3    0  501 -0.85206728802E+02  0.80764423044E+02 -0.83843203090E+02  0.14426632097E+03  0.10000000000E+00 0. -1.
         21    1    1    2  504  503  0.11055176921E+03 -0.40802036526E+02 -0.68767281609E+03  0.69769649694E+03  0.00000000000E+00 0. -1.
<mgrwt>
<rscale>  1 0.17179554E+03</rscale>
<asrwt>0</asrwt>
<pdfrwt beam="1">  1       21 0.64035543E-02 0.17179554E+03</pdfrwt>
<pdfrwt beam="2">  1       21 0.13757215E+00 0.17179554E+03</pdfrwt>
<totfact> 0.66728146E+04</totfact>
</mgrwt>
</event>
<event>
 6    1  0.4180481E-002  0.1279317E+03  0.7546771E-02  0.1230557E+00
         21   -1    0    0  503  502  0.00000000000E+00  0.00000000000E+00  0.20471430473E+02  0.20471430473E+02  0.00000000000E+00 0. -1.
         21   -1    0    0  504  503 -0.00000000000E+00 -0.00000000000E+00 -0.29402610954E+03  0.29402610954E+03  0.00000000000E+00 0. -1.
         25    2    1    2    0    0 -0.11102111980E+02  0.24861114521E+02 -0.22668670406E+03  0.26029478190E+03  0.12500071912E+03 0.  0.
          5    1    3    3  501    0 -0.62101698997E+02  0.23641639025E+02 -0.74715825773E+02  0.99990063182E+02  0.10000000000E+00 0.  1.
         -5    1    3    3    0  501  0.50999587017E+02  0.12194754963E+01 -0.15197087828E+03  0.16030471871E+03  0.10000000000E+00 0.  1.
         21    1    1    2  504  502  0.11102111980E+02 -0.24861114521E+02 -0.46867975013E+02  0.54202758117E+02  0.00000000000E+00 0. -1.
<mgrwt>
<rscale>  1 0.12793167E+03</rscale>
<asrwt>0</asrwt>
<pdfrwt beam="1">  1       21 0.31494507E-02 0.12793167E+03</pdfrwt>
<pdfrwt beam="2">  1       21 0.45234787E-01 0.12793167E+03</pdfrwt>
<totfact> 0.27158999E+06</totfact>
</mgrwt>
</event>
<event>
 6    1  0.4180481E-002  0.1896684E+03  0.7546771E-02  0.1158761E+00
         21   -1    0    0  504  502  0.00000000000E+00  0.00000000000E+00  0.11893167230E+03  0.11893167230E+03  0.00000000000E+00 0. -1.
         21   -1    0    0  502  503 -0.00000000000E+00 -0.00000000000E+00 -0.30669526537E+03  0.30669526537E+03  0.00000000000E+00 0.  1.
         25    2    1    2    0    0  0.11652893457E+03  0.82282322848E+02  0.19118417842E+00  0.18966852706E+03  0.12499896144E+03 0.  0.
          5    1    3    3  501    0  0.47820851681E+01 -0.30292219821E+02  0.44639281228E+01  0.30990701420E+02  0.10000000000E+00 0. -1.
         -5    1    3    3    0  501  0.11174684941E+03  0.11257454267E+03 -0.42727439444E+01  0.15867782564E+03  0.10000000000E+00 0. -1.
         21    1    1    2  504  503 -0.11652893457E+03 -0.82282322848E+02 -0.18795477725E+03  0.23595841061E+03  0.00000000000E+00 0.  1.
<mgrwt>
<rscale>  1 0.18966843E+03</rscale>
<asrwt>0</asrwt>
<pdfrwt beam="1">  1       21 0.18297180E-01 0.18966843E+03</pdfrwt>
<pdfrwt beam="2">  1       21 0.47183887E-01 0.18966843E+03</pdfrwt>
<totfact> 0.11719003E+05</totfact>
</mgrwt>
</event>
<event>
 6    1  0.4180481E-002  0.1381737E+03  0.7546771E-02  0.1215808E+00
         21   -1    0    0  504  502  0.00000000000E+00  0.00000000000E+00  0.90216096808E+03  0.90216096808E+03  0.00000000000E+00 0.  1.
         21   -1    0    0  502  503 -0.00000000000E+00 -0.00000000000E+00 -0.10944508850E+02  0.10944508850E+02  0.00000000000E+00 0.  1.
         25    2    1    2    0    0 -0.16482061400E+02 -0.56525821056E+02  0.56759012572E+03  0.58416653041E+03  0.12500063058E+03 0.  0.
          5    1    3    3  501    0  0.17953252717E+02 -0.45565406456E+02  0.52913264420E+03  0.53139428931E+03  0.10000000000E+00 0.  1.
         -5    1    3    3    0  501 -0.34435314117E+02 -0.10960414599E+02  0.38457481516E+02  0.52772241104E+02  0.10000000000E+00 0.  1.
         21    1    1    2  504  503  0.16482061400E+02  0.56525821056E+02  0.32362633351E+03  0.32893894651E+03  0.00000000000E+00 0.  1.
<mgrwt>
<rscale>  1 0.13817375E+03</rscale>
<asrwt>0</asrwt>
<pdfrwt beam="1">  1       21 0.13879394E+00 0.13817375E+03</pdfrwt>
<pdfrwt beam="2">  1       21 0.16837713E-02 0.13817375E+03</pdfrwt>
<totfact> 0.60291113E+05</totfact>
</mgrwt>
</event>
<event>
 6    1  0.4180481E-002  0.1405775E+03  0.7546771E-02  0.1212554E+00
         21   -1    0    0  504  502  0.00000000000E+00  0.00000000000E+00  0.54064517803E+03  0.54064517803E+03  0.00000000000E+00 0.  1.
         21   -1    0    0  502  503 -0.00000000000E+00 -0.00000000000E+00 -0.33867474156E+02  0.33867474156E+02  0.00000000000E+00 0.  1.
         25    2    1    2    0    0  0.49900958232E+02  0.40571999300E+02  0.48751226771E+03  0.50737585311E+03  0.12500340951E+03 0.  0.
          5    1    3    3  501    0 -0.25157550184E+02  0.55733840573E+02  0.16699814596E+03  0.17784137334E+03  0.10000000000E+00 0.  1.
         -5    1    3    3    0  501  0.75058508415E+02 -0.15161841274E+02  0.32051412175E+03  0.32953447977E+03  0.10000000000E+00 0.  1.
         21    1    1    2  504  503 -0.49900958232E+02 -0.40571999300E+02  0.19265436159E+02  0.67136799075E+02  0.00000000000E+00 0.  1.
<mgrwt>
<rscale>  1 0.14057754E+03</rscale>
<asrwt>0</asrwt>
<pdfrwt beam="1">  1       21 0.83176175E-01 0.14057754E+03</pdfrwt>
<pdfrwt beam="2">  1       21 0.52103810E-02 0.14057754E+03</pdfrwt>
<totfact> 0.31972648E+05</totfact>
</mgrwt>
</event>
<event>
 6    1  0.4180481E-002  0.1269053E+03  0.7546771E-02  0.1232121E+00
         21   -1    0    0  504  502  0.00000000000E+00  0.00000000000E+00  0.19089880345E+03  0.19089880345E+03  0.00000000000E+00 0. -1.
         21   -1    0    0  502  503 -0.00000000000E+00 -0.00000000000E+00 -0.29884281521E+02  0.29884281521E+02  0.00000000000E+00 0. -1.
         25    2    1    2    0    0 -0.20431838473E+02 -0.79855806472E+01  0.14918469473E+03  0.19585971575E+03  0.12499490226E+03 0.  0.
          5    1    3    3  501    0 -0.68523481588E+02 -0.14825273517E+02  0.52258883935E+02  0.87442879721E+02  0.10000000000E+00 0. -1.
         -5    1    3    3    0  501  0.48091643115E+02  0.68396928695E+01  0.96925810798E+02  0.10841683603E+03  0.10000000000E+00 0. -1.
         21    1    1    2  504  503  0.20431838473E+02  0.79855806472E+01  0.11829827191E+02  0.24923369215E+02  0.00000000000E+00 0. -1.
<mgrwt>
<rscale>  1 0.12690530E+03</rscale>
<asrwt>0</asrwt>
<pdfrwt beam="1">  1       21 0.29369046E-01 0.12690530E+03</pdfrwt>
<pdfrwt beam="2">  1       21 0.45975819E-02 0.12690530E+03</pdfrwt>
<totfact> 0.34047427E+06</totfact>
</mgrwt>
</event>
<event>
 6    1  0.4180481E-002  0.1281084E+03  0.7546771E-02  0.1230290E+00
         21   -1    0    0  504  502  0.00000000000E+00  0.00000000000E+00  0.27799849936E+02  0.27799849936E+02  0.00000000000E+00 0.  1.
         21   -1    0    0  502  503 -0.00000000000E+00 -0.00000000000E+00 -0.28056902389E+03  0.28056902389E+03  0.00000000000E+00 0.  1.
         25    2    1    2    0    0  0.27488519343E+02  0.55950845399E+01 -0.13030339978E+03  0.18273134157E+03  0.12499937412E+03 0.  0.
          5    1    3    3  501    0 -0.49415378487E+02 -0.33231127726E+01 -0.39111942366E+02  0.63108452248E+02  0.10000000000E+00 0.  1.
         -5    1    3    3    0  501  0.76903897830E+02  0.89181973126E+01 -0.91191457410E+02  0.11962288932E+03  0.10000000000E+00 0.  1.
         21    1    1    2  504  503 -0.27488519343E+02 -0.55950845399E+01 -0.12246577418E+03  0.12563753226E+03  0.00000000000E+00 0.  1.
<mgrwt>
<rscale>  1 0.12810842E+03</rscale>
<asrwt>0</asrwt>
<pdfrwt beam="1">  1       21 0.42769002E-02 0.12810842E+03</pdfrwt>
<pdfrwt beam="2">  1       21 0.43164464E-01 0.12810842E+03</pdfrwt>
<totfact> 0.18001191E+06</totfact>
</mgrwt>
</event>
<event>
 6    1  0.4180481E-002  0.1264841E+03  0.7546771E-02  0.1232768E+00
         21   -1    0    0  503  502  0.00000000000E+00  0.00000000000E+00  0.20672421734E+03  0.20672421734E+03  0.00000000000E+00 0.  1.
         21   -1    0    0  504  503 -0.00000000000E+00 -0.00000000000E+00 -0.27110801901E+02  0.27110801901E+02  0.00000000000E+00 0.  1.
         25    2    1    2    0    0 -0.11499852776E+02  0.15561529410E+02  0.17089800773E+03  0.21261318749E+03  0.12499532246E+03 0.  0.
          5    1    3    3  501    0 -0.51693487950E+02  0.35452267427E+02  0.40274952002E+02  0.74506118681E+02  0.10000000000E+00 0. -1.
         -5    1    3    3    0  501  0.40193635174E+02 -0.19890738017E+02  0.13062305572E+03  0.13810706881E+03  0.10000000000E+00 0. -1.
         21    1    1    2  504  502  0.11499852776E+02 -0.15561529410E+02  0.87154077121E+01  0.21221831755E+02  0.00000000000E+00 0. -1.
<mgrwt>
<rscale>  1 0.12648414E+03</rscale>
<asrwt>0</asrwt>
<pdfrwt beam="1">  1       21 0.31803725E-01 0.12648414E+03</pdfrwt>
<pdfrwt beam="2">  1       21 0.41708927E-02 0.12648414E+03</pdfrwt>
<totfact> 0.34336062E+06</totfact>
</mgrwt>
</event>
<event>
 6    1  0.4180481E-002  0.1278256E+03  0.7546771E-02  0.1230718E+00
         21   -1    0    0  504  502  0.00000000000E+00  0.00000000000E+00  0.19599750359E+04  0.19599750359E+04  0.00000000000E+00 0.  1.
         21   -1    0    0  502  503 -0.00000000000E+00 -0.00000000000E+00 -0.36425895620E+03  0.36425895620E+03  0.00000000000E+00 0.  1.
         25    2    1    2    0    0 -0.24715735654E+02  0.10139612957E+02  0.19573977452E+04  0.19615670561E+04  0.12500281297E+03 0.  0.
          5    1    3    3  501    0  0.28973695435E+02  0.51858133084E+02  0.83298899117E+03  0.83510443084E+03  0.10000000000E+00 0. -1.
         -5    1    3    3    0  501 -0.53689431089E+02 -0.41718520127E+02  0.11244087541E+04  0.11264626253E+04  0.10000000000E+00 0. -1.
         21    1    1    2  504  503  0.24715735654E+02 -0.10139612957E+02 -0.36168166549E+03  0.36266693603E+03  0.00000000000E+00 0.  1.
<mgrwt>
<rscale>  1 0.12782559E+03</rscale>
<asrwt>0</asrwt>
<pdfrwt beam="1">  1       21 0.30153461E+00 0.12782559E+03</pdfrwt>
<pdfrwt beam="2">  1       21 0.56039841E-01 0.12782559E+03</pdfrwt>
<totfact> 0.11405717E+02</totfact>
</mgrwt>
</event>
<event>
 6    1  0.4180481E-002  0.1526909E+03  0.7546771E-02  0.1197205E+00
         21   -1    0    0  503  502  0.00000000000E+00  0.00000000000E+00  0.51188337420E+03  0.51188337420E+03  0.00000000000E+00 0. -1.
         21   -1    0    0  504  503 -0.00000000000E+00 -0.00000000000E+00 -0.31121678797E+02  0.31121678797E+02  0.00000000000E+00 0. -1.
         25    2    1    2    0    0  0.85995396935E+02  0.16571374745E+02  0.37984732692E+03  0.40938795633E+03  0.12507872828E+03 0.  0.
          5    1    3    3  501    0  0.38122529264E+02  0.68472245170E+02  0.15453385499E+03  0.17327001453E+03  0.10000000000E+00 0.  1.
         -5    1    3    3    0  501  0.47872867671E+02 -0.51900870425E+02  0.22531347192E+03  0.23611794180E+03  0.10000000000E+00 0.  1.
         21    1    1    2  504  502 -0.85995396935E+02 -0.16571374745E+02  0.10091436849E+03  0.13361709667E+03  0.00000000000E+00 0. -1.
<mgrwt>
<rscale>  1 0.15269089E+03</rscale>
<asrwt>0</asrwt>
<pdfrwt beam="1">  1       21 0.78751282E-01 0.15269089E+03</pdfrwt>
<pdfrwt beam="2">  1       21 0.47879510E-02 0.15269089E+03</pdfrwt>
<totfact> 0.41597568E+05</totfact>
</mgrwt>
</event>
<event>
 6    1  0.4180481E-002  0.1281009E+03  0.7546771E-02  0.1230301E+00
         21   -1    0    0  504  502  0.00000000000E+00  0.00000000000E+00  0.12833532288E+03  0.12833532288E+03  0.00000000000E+00 0.  1.
         21   -1    0    0  502  503 -0.00000000000E+00 -0.00000000000E+00 -0.20903722843E+03  0.20903722843E+03  0.00000000000E+00 0. -1.
         25    2    1    2    0    0  0.12289472329E+02 -0.25049417436E+02  0.94991142280E+02  0.15947777482E+03  0.12502535386E+03 0.  0.
          5    1    3    3  501    0  0.51769689592E+02  0.19944556450E+02  0.80709237005E+02  0.97938128583E+02  0.10000000000E+00 0. -1.
         -5    1    3    3    0  501 -0.39480217263E+02 -0.44993973886E+02  0.14281905275E+02  0.61539646241E+02  0.10000000000E+00 0. -1.
         21    1    1    2  504  503 -0.12289472329E+02  0.25049417436E+02 -0.17569304783E+03  0.17789477649E+03  0.00000000000E+00 0. -1.
<mgrwt>
<rscale>  1 0.12810091E+03</rscale>
<asrwt>0</asrwt>
<pdfrwt beam="1">  1       21 0.19743896E-01 0.12810091E+03</pdfrwt>
<pdfrwt beam="2">  1       21 0.32159573E-01 0.12810091E+03</pdfrwt>
<totfact> 0.22357267E+05</totfact>
</mgrwt>
</event>
<event>
 6    1  0.4180481E-002  0.1262217E+03  0.7546771E-02  0.1233172E+00
         21   -1    0    0  503  502  0.00000000000E+00  0.00000000000E+00  0.33091003753E+02  0.33091003753E+02  0.00000000000E+00 0. -1.
         21   -1    0    0  504  503 -0.00000000000E+00 -0.00000000000E+00 -0.17396025817E+03  0.17396025817E+03  0.00000000000E+00 0. -1.
         25    2    1    2    0    0 -0.97859696854E+01  0.14569812575E+02 -0.95116646664E+02  0.15804773391E+03  0.12499546024E+03 0.  0.
          5    1    3    3  501    0 -0.34951728960E+02 -0.44516286150E+02 -0.21980376756E+02  0.60716307959E+02  0.10000000000E+00 0.  1.
         -5    1    3    3    0  501  0.25165759274E+02  0.59086098725E+02 -0.73136269907E+02  0.97331425954E+02  0.10000000000E+00 0.  1.
         21    1    1    2  504  502  0.97859696854E+01 -0.14569812575E+02 -0.45752607750E+02  0.49003528007E+02  0.00000000000E+00 0. -1.
<mgrwt>
<rscale>  1 0.12622167E+03</rscale>
<asrwt>0</asrwt>
<pdfrwt beam="1">  1       21 0.50909237E-02 0.12622167E+03</pdfrwt>
<pdfrwt beam="2">  1       21 0.26763117E-01 0.12622167E+03</pdfrwt>
<totfact> 0.34276456E+06</totfact>
</mgrwt>
</event>
<event>
 6    1  0.4180481E-002  0.1267573E+03  0.7546771E-02  0.1232348E+00
         21   -1    0    0  504  502  0.00000000000E+00  0.00000000000E+00  0.32176339373E+02  0.32176339373E+02  0.00000000000E+00 0.  1.
         21   -1    0    0  502  503 -0.00000000000E+00 -0.00000000000E+00 -0.18555560484E+03  0.18555560484E+03  0.00000000000E+00 0.  1.
         25    2    1    2    0    0 -0.19411515866E+02 -0.80642764847E+01 -0.15009248862E+03  0.19645654985E+03  0.12500232531E+03 0.  0.
          5    1    3    3  501    0  0.16363629262E+01  0.29750596054E+01  0.22237428395E+02  0.22495374745E+02  0.10000000000E+00 0.  1.
         -5    1    3    3    0  501 -0.21047878792E+02 -0.11039336090E+02 -0.17232991702E+03  0.17396117510E+03  0.10000000000E+00 0.  1.
         21    1    1    2  504  503  0.19411515866E+02  0.80642764847E+01 -0.32867768431E+01  0.21275394367E+02  0.00000000000E+00 0.  1.
<mgrwt>
<rscale>  1 0.12675733E+03</rscale>
<asrwt>0</asrwt>
<pdfrwt beam="1">  1       21 0.49502061E-02 0.12675733E+03</pdfrwt>
<pdfrwt beam="2">  1       21 0.28547016E-01 0.12675733E+03</pdfrwt>
<totfact> 0.31767572E+06</totfact>
</mgrwt>
</event>
<event>
 6    1  0.4180481E-002  0.1479319E+03  0.7546771E-02  0.1203038E+00
         21   -1    0    0  504  502  0.00000000000E+00  0.00000000000E+00  0.31509758783E+02  0.31509758783E+02  0.00000000000E+00 0.  1.
         21   -1    0    0  502  503 -0.00000000000E+00 -0.00000000000E+00 -0.60158252193E+03  0.60158252193E+03  0.00000000000E+00 0.  1.
         25    2    1    2    0    0 -0.11807609483E+02 -0.78227437325E+02 -0.17035562252E+03  0.22562112333E+03  0.12499960630E+03 0.  0.
          5    1    3    3  501    0 -0.34102053691E+02 -0.10582681624E+03 -0.14105251184E+03  0.17960536238E+03  0.10000000000E+00 0. -1.
         -5    1    3    3    0  501  0.22294444208E+02  0.27599378918E+02 -0.29303110686E+02  0.46015760942E+02  0.10000000000E+00 0. -1.
         21    1    1    2  504  503  0.11807609483E+02  0.78227437325E+02 -0.39971714062E+03  0.40747115738E+03  0.00000000000E+00 0.  1.
<mgrwt>
<rscale>  1 0.14793192E+03</rscale>
<asrwt>0</asrwt>
<pdfrwt beam="1">  1       21 0.48476557E-02 0.14793192E+03</pdfrwt>
<pdfrwt beam="2">  1       21 0.92551147E-01 0.14793192E+03</pdfrwt>
<totfact> 0.28247970E+05</totfact>
</mgrwt>
</event>
<event>
 6    1  0.4180481E-002  0.1271038E+03  0.7546771E-02  0.1231817E+00
         21   -1    0    0  504  502  0.00000000000E+00  0.00000000000E+00  0.16754103063E+03  0.16754103063E+03  0.00000000000E+00 0.  1.
         21   -1    0    0  502  503 -0.00000000000E+00 -0.00000000000E+00 -0.56632192748E+02  0.56632192748E+02  0.00000000000E+00 0.  1.
         25    2    1    2    0    0 -0.22866787143E+02  0.27017010240E+01  0.13866818687E+03  0.18810702593E+03  0.12500079205E+03 0.  0.
          5    1    3    3  501    0  0.11576565957E+02  0.53716490525E+02  0.10358409890E+03  0.11725678564E+03  0.10000000000E+00 0. -1.
         -5    1    3    3    0  501 -0.34443353100E+02 -0.51014789501E+02  0.35084087967E+02  0.70850240290E+02  0.10000000000E+00 0. -1.
         21    1    1    2  504  503  0.22866787143E+02 -0.27017010240E+01 -0.27759348982E+02  0.36066197451E+02  0.00000000000E+00 0.  1.
<mgrwt>
<rscale>  1 0.12710384E+03</rscale>
<asrwt>0</asrwt>
<pdfrwt beam="1">  1       21 0.25775543E-01 0.12710384E+03</pdfrwt>
<pdfrwt beam="2">  1       21 0.87126451E-02 0.12710384E+03</pdfrwt>
<totfact> 0.14727926E+06</totfact>
</mgrwt>
</event>
<event>
 6    1  0.4180481E-002  0.1316378E+03  0.7546771E-02  0.1225046E+00
         21   -1    0    0  503  502  0.00000000000E+00  0.00000000000E+00  0.30356958782E+03  0.30356958782E+03  0.00000000000E+00 0. -1.
         21   -1    0    0  504  503 -0.00000000000E+00 -0.00000000000E+00 -0.39837043624E+02  0.39837043624E+02  0.00000000000E+00 0. -1.
         25    2    1    2    0    0 -0.28888619476E+02  0.29457409612E+02  0.27121650235E+03  0.30147453221E+03  0.12500484434E+03 0.  0.
          5    1    3    3  501    0  0.59269319595E+01  0.73752725730E+02  0.13261243971E+03  0.15185737467E+03  0.10000000000E+00 0.  1.
         -5    1    3    3    0  501 -0.34815551435E+02 -0.44295316117E+02  0.13860406263E+03  0.14961715754E+03  0.10000000000E+00 0.  1.
         21    1    1    2  504  502  0.28888619476E+02 -0.29457409612E+02 -0.74839581535E+01  0.41932099231E+02  0.00000000000E+00 0. -1.
<mgrwt>
<rscale>  1 0.13163777E+03</rscale>
<asrwt>0</asrwt>
<pdfrwt beam="1">  1       21 0.46703012E-01 0.13163777E+03</pdfrwt>
<pdfrwt beam="2">  1       21 0.61287761E-02 0.13163777E+03</pdfrwt>
<totfact> 0.83776762E+05</totfact>
</mgrwt>
</event>
<event>
 6    1  0.4180481E-002  0.1301957E+03  0.7546771E-02  0.1227166E+00
         21   -1    0    0  503  502  0.00000000000E+00  0.00000000000E+00  0.19474349862E+02  0.19474349862E+02  0.00000000000E+00 0.  1.
         21   -1    0    0  504  503 -0.00000000000E+00 -0.00000000000E+00 -0.35634811324E+03  0.35634811324E+03  0.00000000000E+00 0.  1.
         25    2    1    2    0    0 -0.29298591237E+02  0.21621441595E+02 -0.26285422785E+03  0.29333133736E+03  0.12500013679E+03 0.  0.
          5    1    3    3  501    0 -0.71443941921E+02  0.37788517003E+02 -0.20195241327E+03  0.21752470223E+03  0.10000000000E+00 0. -1.
         -5    1    3    3    0  501  0.42145350684E+02 -0.16167075408E+02 -0.60901814572E+02  0.75806635130E+02  0.10000000000E+00 0. -1.
         21    1    1    2  504  502  0.29298591237E+02 -0.21621441595E+02 -0.74019535529E+02  0.82491125735E+02  0.00000000000E+00 0.  1.
<mgrwt>
<rscale>  1 0.13019573E+03</rscale>
<asrwt>0</asrwt>
<pdfrwt beam="1">  1       21 0.29960541E-02 0.13019573E+03</pdfrwt>
<pdfrwt beam="2">  1       21 0.54822782E-01 0.13019573E+03</pdfrwt>
<totfact> 0.19840962E+06</totfact>
</mgrwt>
</event>
<event>
 6    1  0.4180481E-002  0.1261406E+03  0.7546771E-02  0.1233297E+00
         21   -1    0    0  503  502  0.00000000000E+00  0.00000000000E+00  0.17041652632E+03  0.17041652632E+03  0.00000000000E+00 0.  1.
         21   -1    0    0  504  503 -0.00000000000E+00 -0.00000000000E+00 -0.32766307023E+03  0.32766307023E+03  0.00000000000E+00 0. -1.
         25    2    1    2    0    0  0.16939082425E+02  0.21517595507E+01  0.14680212968E+03  0.19355183346E+03  0.12497953582E+03 0.  0.
          5    1    3    3  501    0  0.67687046576E+02 -0.13668383054E+02  0.58584360180E+02  0.90556602339E+02  0.10000000000E+00 0. -1.
         -5    1    3    3    0  501 -0.50747964151E+02  0.15820142605E+02  0.88217769504E+02  0.10299523112E+03  0.10000000000E+00 0. -1.
         21    1    1    2  504  502 -0.16939082425E+02 -0.21517595507E+01 -0.30404867359E+03  0.30452776309E+03  0.00000000000E+00 0. -1.
<mgrwt>
<rscale>  1 0.12614058E+03</rscale>
<asrwt>0</asrwt>
<pdfrwt beam="1">  1       21 0.26217927E-01 0.12614058E+03</pdfrwt>
<pdfrwt beam="2">  1       21 0.50409703E-01 0.12614058E+03</pdfrwt>
<totfact> 0.53528210E+04</totfact>
</mgrwt>
</event>
<event>
 6    1  0.4180481E-002  0.1298063E+03  0.7546771E-02  0.1227743E+00
         21   -1    0    0  504  502  0.00000000000E+00  0.00000000000E+00  0.12382518403E+04  0.12382518403E+04  0.00000000000E+00 0.  1.
         21   -1    0    0  502  503 -0.00000000000E+00 -0.00000000000E+00 -0.70178978360E+03  0.70178978360E+03  0.00000000000E+00 0. -1.
         25    2    1    2    0    0  0.28986469304E+02 -0.19578568521E+02  0.12344107414E+04  0.12412169661E+04  0.12500457037E+03 0.  0.
          5    1    3    3  501    0  0.14366866975E+01  0.22359042160E+02  0.40760735977E+02  0.46512777087E+02  0.10000000000E+00 0. -1.
         -5    1    3    3    0  501  0.27549782607E+02 -0.41937610681E+02  0.11936500054E+04  0.11947041890E+04  0.10000000000E+00 0. -1.
         21    1    1    2  504  503 -0.28986469304E+02  0.19578568521E+02 -0.69794868477E+03  0.69882465778E+03  0.00000000000E+00 0. -1.
<mgrwt>
<rscale>  1 0.12980631E+03</rscale>
<asrwt>0</asrwt>
<pdfrwt beam="1">  1       21 0.19050028E+00 0.12980631E+03</pdfrwt>
<pdfrwt beam="2">  1       21 0.10796766E+00 0.12980631E+03</pdfrwt>
<totfact> 0.11758759E+02</totfact>
</mgrwt>
</event>
<event>
 6    1  0.4180481E-002  0.1267192E+03  0.7546771E-02  0.1232407E+00
         21   -1    0    0  504  502  0.00000000000E+00  0.00000000000E+00  0.13056867166E+03  0.13056867166E+03  0.00000000000E+00 0.  1.
         21   -1    0    0  502  503 -0.00000000000E+00 -0.00000000000E+00 -0.46946130428E+02  0.46946130428E+02  0.00000000000E+00 0.  1.
         25    2    1    2    0    0 -0.13968210579E+02 -0.15446964863E+02  0.90348462509E+02  0.15562970106E+03  0.12499615811E+03 0.  0.
          5    1    3    3  501    0 -0.37826550565E+02 -0.61014525574E+02  0.70142933332E+02  0.10036763101E+03  0.10000000000E+00 0. -1.
         -5    1    3    3    0  501  0.23858339987E+02  0.45567560712E+02  0.20205529177E+02  0.55262070043E+02  0.10000000000E+00 0. -1.
         21    1    1    2  504  503  0.13968210579E+02  0.15446964863E+02 -0.67259212758E+01  0.21885101034E+02  0.00000000000E+00 0.  1.
<mgrwt>
<rscale>  1 0.12671921E+03</rscale>
<asrwt>0</asrwt>
<pdfrwt beam="1">  1       21 0.20087488E-01 0.12671921E+03</pdfrwt>
<pdfrwt beam="2">  1       21 0.72224816E-02 0.12671921E+03</pdfrwt>
<totfact> 0.32438556E+06</totfact>
</mgrwt>
</event>
<event>
 6    1  0.4180481E-002  0.1270969E+03  0.7546771E-02  0.1231828E+00
         21   -1    0    0  503  502  0.00000000000E+00  0.00000000000E+00  0.67865510011E+02  0.67865510011E+02  0.00000000000E+00 0. -1.
         21   -1    0    0  504  503 -0.00000000000E+00 -0.00000000000E+00 -0.91886852878E+02  0.91886852878E+02  0.00000000000E+00 0. -1.
         25    2    1    2    0    0  0.74251023417E+01  0.21769339754E+02 -0.84466645386E+00  0.12709972704E+03  0.12499836341E+03 0.  0.
          5    1    3    3  501    0 -0.21001688772E+02 -0.70506159645E+01  0.54326909907E+02  0.58670309841E+02  0.10000000000E+00 0. -1.
         -5    1    3    3    0  501  0.28426791114E+02  0.28819955718E+02 -0.55171576361E+02  0.68429417203E+02  0.10000000000E+00 0. -1.
         21    1    1    2  504  502 -0.74251023417E+01 -0.21769339754E+02 -0.23176676413E+02  0.32652635845E+02  0.00000000000E+00 0. -1.
<mgrwt>
<rscale>  1 0.12709692E+03</rscale>
<asrwt>0</asrwt>
<pdfrwt beam="1">  1       21 0.10440848E-01 0.12709692E+03</pdfrwt>
<pdfrwt beam="2">  1       21 0.14136439E-01 0.12709692E+03</pdfrwt>
<totfact> 0.32471293E+06</totfact>
</mgrwt>
</event>
<event>
 6    1  0.4180481E-002  0.1398725E+03  0.7546771E-02  0.1213501E+00
         21   -1    0    0  503  502  0.00000000000E+00  0.00000000000E+00  0.18231947940E+02  0.18231947940E+02  0.00000000000E+00 0. -1.
         21   -1    0    0  504  503 -0.00000000000E+00 -0.00000000000E+00 -0.74476873953E+03  0.74476873953E+03  0.00000000000E+00 0. -1.
         25    2    1    2    0    0 -0.45497427932E+02 -0.43215921108E+02 -0.28991673766E+03  0.32189446071E+03  0.12500678893E+03 0.  0.
          5    1    3    3  501    0 -0.74861925028E+02  0.13358303749E+02 -0.16335432353E+03  0.18018711695E+03  0.10000000000E+00 0.  1.
         -5    1    3    3    0  501  0.29364497096E+02 -0.56574224857E+02 -0.12656241413E+03  0.14170734377E+03  0.10000000000E+00 0.  1.
         21    1    1    2  504  502  0.45497427932E+02  0.43215921108E+02 -0.43662005393E+03  0.44110622675E+03  0.00000000000E+00 0. -1.
<mgrwt>
<rscale>  1 0.13987255E+03</rscale>
<asrwt>0</asrwt>
<pdfrwt beam="1">  1       21 0.28049156E-02 0.13987255E+03</pdfrwt>
<pdfrwt beam="2">  1       21 0.11457979E+00 0.13987255E+03</pdfrwt>
<totfact> 0.42350778E+05</totfact>
</mgrwt>
</event>
<event>
 6    1  0.4180481E-002  0.1482677E+03  0.7546771E-02  0.1202618E+00
         21   -1    0    0  504  502  0.00000000000E+00  0.00000000000E+00  0.15582991637E+03  0.15582991637E+03  0.00000000000E+00 0. -1.
         21   -1    0    0  502  503 -0.00000000000E+00 -0.00000000000E+00 -0.31906394376E+03  0.31906394376E+03  0.00000000000E+00 0. -1.
         25    2    1    2    0    0 -0.65386274950E+02 -0.45622060153E+02  0.11361488314E+03  0.18679308507E+03  0.12500631038E+03 0.  0.
          5    1    3    3  501    0  0.46966616504E+01 -0.48975424824E+02  0.10518795598E+03  0.11612565156E+03  0.10000000000E+00 0. -1.
         -5    1    3    3    0  501 -0.70082936600E+02  0.33533646703E+01  0.84269271629E+01  0.70667433507E+02  0.10000000000E+00 0. -1.
         21    1    1    2  504  503  0.65386274950E+02  0.45622060153E+02 -0.27684891053E+03  0.28810077505E+03  0.00000000000E+00 0. -1.
<mgrwt>
<rscale>  1 0.14826771E+03</rscale>
<asrwt>0</asrwt>
<pdfrwt beam="1">  1       21 0.23973833E-01 0.14826771E+03</pdfrwt>
<pdfrwt beam="2">  1       21 0.49086760E-01 0.14826771E+03</pdfrwt>
<totfact> 0.66262895E+04</totfact>
</mgrwt>
</event>
<event>
 6    1  0.4180481E-002  0.1278116E+03  0.7546771E-02  0.1230739E+00
         21   -1    0    0  504  502  0.00000000000E+00  0.00000000000E+00  0.13596350205E+04  0.13596350205E+04  0.00000000000E+00 0. -1.
         21   -1    0    0  502  503 -0.00000000000E+00 -0.00000000000E+00 -0.44590594692E+01  0.44590594692E+01  0.00000000000E+00 0. -1.
         25    2    1    2    0    0 -0.21533391139E+02  0.15689701145E+02  0.11803253610E+04  0.11872252416E+04  0.12500385118E+03 0.  0.
          5    1    3    3  501    0 -0.56985360972E+02 -0.30767258966E+02  0.46047070154E+03  0.46500240060E+03  0.10000000000E+00 0.  1.
         -5    1    3    3    0  501  0.35451969833E+02  0.46456960111E+02  0.71985465948E+03  0.72222284101E+03  0.10000000000E+00 0.  1.
         21    1    1    2  504  503  0.21533391139E+02 -0.15689701145E+02  0.17485060002E+03  0.17686883836E+03  0.00000000000E+00 0. -1.
<mgrwt>
<rscale>  1 0.12781164E+03</rscale>
<asrwt>0</asrwt>
<pdfrwt beam="1">  1       21 0.20917429E+00 0.12781164E+03</pdfrwt>
<pdfrwt beam="2">  1       21 0.68601023E-03 0.12781164E+03</pdfrwt>
<totfact> 0.81788344E+05</totfact>
</mgrwt>
</event>
<event>
 6    1  0.4180481E-002  0.1410814E+03  0.7546771E-02  0.1211881E+00
         21   -1    0    0  504  502  0.00000000000E+00  0.00000000000E+00  0.25891653328E+03  0.25891653328E+03  0.00000000000E+00 0.  1.
         21   -1    0    0  502  503 -0.00000000000E+00 -0.00000000000E+00 -0.41758501710E+02  0.41758501710E+02  0.00000000000E+00 0.  1.
         25    2    1    2    0    0 -0.42179627771E+02 -0.50004557825E+02  0.13123424174E+03  0.19268209790E+03  0.12499755136E+03 0.  0.
          5    1    3    3  501    0 -0.84280735822E+02 -0.18895781798E+02  0.64144932477E+02  0.10758659472E+03  0.10000000000E+00 0. -1.
         -5    1    3    3    0  501  0.42101108051E+02 -0.31108776027E+02  0.67089309261E+02  0.85095503184E+02  0.10000000000E+00 0. -1.
         21    1    1    2  504  503  0.42179627771E+02  0.50004557825E+02  0.85923789834E+02  0.10799293709E+03  0.00000000000E+00 0.  1.
<mgrwt>
<rscale>  1 0.14108141E+03</rscale>
<asrwt>0</asrwt>
<pdfrwt beam="1">  1       21 0.39833312E-01 0.14108141E+03</pdfrwt>
<pdfrwt beam="2">  1       21 0.64243850E-02 0.14108141E+03</pdfrwt>
<totfact> 0.10670286E+06</totfact>
</mgrwt>
</event>
<event>
 6    1  0.4180481E-002  0.1264072E+03  0.7546771E-02  0.1232886E+00
         21   -1    0    0  504  502  0.00000000000E+00  0.00000000000E+00  0.15731879583E+03  0.15731879583E+03  0.00000000000E+00 0. -1.
         21   -1    0    0  502  503 -0.00000000000E+00 -0.00000000000E+00 -0.17522292496E+03  0.17522292496E+03  0.00000000000E+00 0. -1.
         25    2    1    2    0    0  0.18384372399E+02 -0.24930323847E+01  0.13125867017E+03  0.18222957539E+03  0.12503831129E+03 0.  0.
          5    1    3    3  501    0  0.20309853722E+02  0.48485916597E+02  0.11850951760E+03  0.12964524684E+03  0.10000000000E+00 0. -1.
         -5    1    3    3    0  501 -0.19254813225E+01 -0.50978948982E+02  0.12749152577E+02  0.52584328550E+02  0.10000000000E+00 0. -1.
         21    1    1    2  504  503 -0.18384372399E+02  0.24930323847E+01 -0.14916279930E+03  0.15031214540E+03  0.00000000000E+00 0. -1.
<mgrwt>
<rscale>  1 0.12640720E+03</rscale>
<asrwt>0</asrwt>
<pdfrwt beam="1">  1       21 0.24202892E-01 0.12640720E+03</pdfrwt>
<pdfrwt beam="2">  1       21 0.26957373E-01 0.12640720E+03</pdfrwt>
<totfact> 0.21488166E+05</totfact>
</mgrwt>
</event>
<event>
 6    1  0.4180481E-002  0.1502937E+03  0.7546771E-02  0.1200113E+00
         21   -1    0    0  503  502  0.00000000000E+00  0.00000000000E+00  0.59933166068E+03  0.59933166068E+03  0.00000000000E+00 0.  1.
         21   -1    0    0  504  503 -0.00000000000E+00 -0.00000000000E+00 -0.91716316981E+02  0.91716316981E+02  0.00000000000E+00 0.  1.
         25    2    1    2    0    0  0.29574225250E+02 -0.78028071117E+02  0.56832098194E+03  0.58785791421E+03  0.12500069641E+03 0.  0.
          5    1    3    3  501    0 -0.21975009505E+02 -0.55777305635E+02  0.10311383676E+03  0.11927481795E+03  0.10000000000E+00 0. -1.
         -5    1    3    3    0  501  0.51549234756E+02 -0.22250765482E+02  0.46520714518E+03  0.46858309626E+03  0.10000000000E+00 0. -1.
         21    1    1    2  504  502 -0.29574225250E+02  0.78028071117E+02 -0.60705638239E+02  0.10319006345E+03  0.00000000000E+00 0.  1.
<mgrwt>
<rscale>  1 0.15029368E+03</rscale>
<asrwt>0</asrwt>
<pdfrwt beam="1">  1       21 0.92204868E-01 0.15029368E+03</pdfrwt>
<pdfrwt beam="2">  1       21 0.14110203E-01 0.15029368E+03</pdfrwt>
<totfact> 0.44526662E+04</totfact>
</mgrwt>
</event>
<event>
 6    1  0.4180481E-002  0.1318246E+03  0.7546771E-02  0.1224773E+00
         21   -1    0    0  503  502  0.00000000000E+00  0.00000000000E+00  0.43220659514E+02  0.43220659514E+02  0.00000000000E+00 0.  1.
         21   -1    0    0  504  503 -0.00000000000E+00 -0.00000000000E+00 -0.25318136193E+03  0.25318136193E+03  0.00000000000E+00 0.  1.
         25    2    1    2    0    0 -0.38807600154E+02 -0.15720309187E+02 -0.67869336352E+02  0.14826993761E+03  0.12499827852E+03 0.  0.
          5    1    3    3  501    0 -0.78728828952E+02 -0.27537018625E+02 -0.21866129755E+02  0.86224436985E+02  0.10000000000E+00 0.  1.
         -5    1    3    3    0  501  0.39921228798E+02  0.11816709438E+02 -0.46003206597E+02  0.62045500626E+02  0.10000000000E+00 0.  1.
         21    1    1    2  504  502  0.38807600154E+02  0.15720309187E+02 -0.14209136607E+03  0.14813208383E+03  0.00000000000E+00 0.  1.
<mgrwt>
<rscale>  1 0.13182461E+03</rscale>
<asrwt>0</asrwt>
<pdfrwt beam="1">  1       21 0.66493324E-02 0.13182461E+03</pdfrwt>
<pdfrwt beam="2">  1       21 0.38950978E-01 0.13182461E+03</pdfrwt>
<totfact> 0.10518014E+06</totfact>
</mgrwt>
</event>
<event>
 6    1  0.4180481E-002  0.1270105E+03  0.7546771E-02  0.1231960E+00
         21   -1    0    0  504  502  0.00000000000E+00  0.00000000000E+00  0.14518909666E+03  0.14518909666E+03  0.00000000000E+00 0.  1.
         21   -1    0    0  502  503 -0.00000000000E+00 -0.00000000000E+00 -0.39522429589E+02  0.39522429589E+02  0.00000000000E+00 0.  1.
         25    2    1    2    0    0  0.22471503313E+02 -0.12039444279E+01  0.99596076980E+02  0.16140337301E+03  0.12500100930E+03 0.  0.
          5    1    3    3  501    0 -0.93645189205E+01  0.58210954314E+02  0.38402599036E+02  0.70363193713E+02  0.10000000000E+00 0.  1.
         -5    1    3    3    0  501  0.31836022234E+02 -0.59414898741E+02  0.61193477943E+02  0.91040179300E+02  0.10000000000E+00 0.  1.
         21    1    1    2  504  503 -0.22471503313E+02  0.12039444279E+01  0.60705900942E+01  0.23308153239E+02  0.00000000000E+00 0.  1.
<mgrwt>
<rscale>  1 0.12701051E+03</rscale>
<asrwt>0</asrwt>
<pdfrwt beam="1">  1       21 0.22336784E-01 0.12701051E+03</pdfrwt>
<pdfrwt beam="2">  1       21 0.60803739E-02 0.12701051E+03</pdfrwt>
<totfact> 0.35717752E+06</totfact>
</mgrwt>
</event>
<event>
 6    1  0.4180481E-002  0.1369041E+03  0.7546771E-02  0.1217557E+00
         21   -1    0    0  503  502  0.00000000000E+00  0.00000000000E+00  0.72628147469E+03  0.72628147469E+03  0.00000000000E+00 0.  1.
         21   -1    0    0  504  503 -0.00000000000E+00 -0.00000000000E+00 -0.14266876058E+02  0.14266876058E+02  0.00000000000E+00 0.  1.
         25    2    1    2    0    0  0.33471802712E+01 -0.55727773759E+02  0.59964148524E+03  0.61507124129E+03  0.12500373059E+03 0.  0.
          5    1    3    3  501    0  0.56481050125E+02 -0.61298240730E+02  0.35239419824E+03  0.36211774921E+03  0.10000000000E+00 0.  1.
         -5    1    3    3    0  501 -0.53133869854E+02  0.55704669711E+01  0.24724728700E+03  0.25295349208E+03  0.10000000000E+00 0.  1.
         21    1    1    2  504  502 -0.33471802712E+01  0.55727773759E+02  0.11237311340E+03  0.12547710946E+03  0.00000000000E+00 0.  1.
<mgrwt>
<rscale>  1 0.13690406E+03</rscale>
<asrwt>0</asrwt>
<pdfrwt beam="1">  1       21 0.11173558E+00 0.13690406E+03</pdfrwt>
<pdfrwt beam="2">  1       21 0.21949046E-02 0.13690406E+03</pdfrwt>
<totfact> 0.67128446E+05</totfact>
</mgrwt>
</event>
<event>
 6    1  0.4180481E-002  0.1267996E+03  0.7546771E-02  0.1232283E+00
         21   -1    0    0  504  502  0.00000000000E+00  0.00000000000E+00  0.19249281252E+02  0.19249281252E+02  0.00000000000E+00 0. -1.
         21   -1    0    0  502  503 -0.00000000000E+00 -0.00000000000E+00 -0.30124813829E+03  0.30124813829E+03  0.00000000000E+00 0. -1.
         25    2    1    2    0    0  0.21169178166E+02  0.24569867582E+01 -0.20905201227E+03  0.24450128115E+03  0.12499584699E+03 0.  0.
          5    1    3    3  501    0  0.14666819870E+02 -0.55689539824E+00  0.14618705402E+02  0.20715749690E+02  0.10000000000E+00 0. -1.
         -5    1    3    3    0  501  0.65023582969E+01  0.30138821565E+01 -0.22367071767E+03  0.22378553146E+03  0.10000000000E+00 0. -1.
         21    1    1    2  504  503 -0.21169178166E+02 -0.24569867582E+01 -0.72946844773E+02  0.75996138392E+02  0.00000000000E+00 0. -1.
<mgrwt>
<rscale>  1 0.12679958E+03</rscale>
<asrwt>0</asrwt>
<pdfrwt beam="1">  1       21 0.29614279E-02 0.12679958E+03</pdfrwt>
<pdfrwt beam="2">  1       21 0.46345867E-01 0.12679958E+03</pdfrwt>
<totfact> 0.28588884E+06</totfact>
</mgrwt>
</event>
<event>
 6    1  0.4180481E-002  0.1460004E+03  0.7546771E-02  0.1205476E+00
         21   -1    0    0  503  502  0.00000000000E+00  0.00000000000E+00  0.18182099102E+03  0.18182099102E+03  0.00000000000E+00 0. -1.
         21   -1    0    0  504  503 -0.00000000000E+00 -0.00000000000E+00 -0.73563417009E+02  0.73563417009E+02  0.00000000000E+00 0. -1.
         25    2    1    2    0    0 -0.75380405609E+02  0.28101940300E+01  0.10508310659E+03  0.17988487171E+03  0.12500402010E+03 0.  0.
          5    1    3    3  501    0  0.19843025606E+02  0.33977981718E+02  0.55660317088E+02  0.68163991998E+02  0.10000000000E+00 0.  1.
         -5    1    3    3    0  501 -0.95223431216E+02 -0.31167787688E+02  0.49422789499E+02  0.11172087971E+03  0.10000000000E+00 0.  1.
         21    1    1    2  504  502  0.75380405609E+02 -0.28101940300E+01  0.31744674216E+01  0.75499536315E+02  0.00000000000E+00 0. -1.
<mgrwt>
<rscale>  1 0.14600037E+03</rscale>
<asrwt>0</asrwt>
<pdfrwt beam="1">  1       21 0.27972460E-01 0.14600037E+03</pdfrwt>
<pdfrwt beam="2">  1       21 0.11317449E-01 0.14600037E+03</pdfrwt>
<totfact> 0.79798751E+05</totfact>
</mgrwt>
</event>
<event>
 6    1  0.4180481E-002  0.1290007E+03  0.7546771E-02  0.1228946E+00
         21   -1    0    0  503  502  0.00000000000E+00  0.00000000000E+00  0.24016768421E+02  0.24016768421E+02  0.00000000000E+00 0. -1.
         21   -1    0    0  504  503 -0.00000000000E+00 -0.00000000000E+00 -0.27578516307E+03  0.27578516307E+03  0.00000000000E+00 0. -1.
         25    2    1    2    0    0 -0.31843106272E+02 -0.44963309364E+01 -0.18313741236E+03  0.22401003127E+03  0.12492790679E+03 0.  0.
          5    1    3    3  501    0 -0.55442474237E+01 -0.52233550641E+02 -0.27887111249E+02  0.59470862327E+02  0.10000000000E+00 0. -1.
         -5    1    3    3    0  501 -0.26298858849E+02  0.47737219705E+02 -0.15525030111E+03  0.16453916894E+03  0.10000000000E+00 0. -1.
         21    1    1    2  504  502  0.31843106272E+02  0.44963309364E+01 -0.68630982289E+02  0.75791900220E+02  0.00000000000E+00 0. -1.
<mgrwt>
<rscale>  1 0.12900071E+03</rscale>
<asrwt>0</asrwt>
<pdfrwt beam="1">  1       21 0.36948876E-02 0.12900071E+03</pdfrwt>
<pdfrwt beam="2">  1       21 0.42428485E-01 0.12900071E+03</pdfrwt>
<totfact> 0.23764870E+06</totfact>
</mgrwt>
</event>
<event>
 6    1  0.4180481E-002  0.1374575E+03  0.7546771E-02  0.1216792E+00
         21   -1    0    0  504  502  0.00000000000E+00  0.00000000000E+00  0.16278087889E+04  0.16278087889E+04  0.00000000000E+00 0.  1.
         21   -1    0    0  502  503 -0.00000000000E+00 -0.00000000000E+00 -0.12985175901E+02  0.12985175901E+02  0.00000000000E+00 0.  1.
         25    2    1    2    0    0  0.44080920794E+02 -0.36387803266E+02  0.15424874088E+04  0.15486000049E+04  0.12500947604E+03 0.  0.
          5    1    3    3  501    0 -0.20900452929E+01 -0.57504962096E+02  0.32502783350E+03  0.33008224961E+03  0.10000000000E+00 0. -1.
         -5    1    3    3    0  501  0.46170966087E+02  0.21117158830E+02  0.12174595753E+04  0.12185177553E+04  0.10000000000E+00 0. -1.
         21    1    1    2  504  503 -0.44080920794E+02  0.36387803266E+02  0.72336204262E+02  0.92193959952E+02  0.00000000000E+00 0.  1.
<mgrwt>
<rscale>  1 0.13745752E+03</rscale>
<asrwt>0</asrwt>
<pdfrwt beam="1">  1       21 0.25043196E+00 0.13745752E+03</pdfrwt>
<pdfrwt beam="2">  1       21 0.19977207E-02 0.13745752E+03</pdfrwt>
<totfact> 0.85093147E+04</totfact>
</mgrwt>
</event>
<event>
 6    1  0.4180481E-002  0.1397043E+03  0.7546771E-02  0.1213727E+00
         21   -1    0    0  503  502  0.00000000000E+00  0.00000000000E+00  0.48967252126E+03  0.48967252126E+03  0.00000000000E+00 0.  1.
         21   -1    0    0  504  503 -0.00000000000E+00 -0.00000000000E+00 -0.23904070298E+02  0.23904070298E+02  0.00000000000E+00 0.  1.
         25    2    1    2    0    0  0.58313571690E+02  0.22142686519E+02  0.39635097637E+03  0.42025158425E+03  0.12500610541E+03 0.  0.
          5    1    3    3  501    0 -0.25578554040E+02 -0.82889107887E+01  0.22918011078E+03  0.23075203497E+03  0.10000000000E+00 0.  1.
         -5    1    3    3    0  501  0.83892125730E+02  0.30431597307E+02  0.16717086559E+03  0.18949954928E+03  0.10000000000E+00 0.  1.
         21    1    1    2  504  502 -0.58313571690E+02 -0.22142686519E+02  0.69417474593E+02  0.93325007304E+02  0.00000000000E+00 0.  1.
<mgrwt>
<rscale>  1 0.13970432E+03</rscale>
<asrwt>0</asrwt>
<pdfrwt beam="1">  1       21 0.75334227E-01 0.13970432E+03</pdfrwt>
<pdfrwt beam="2">  1       21 0.36775496E-02 0.13970432E+03</pdfrwt>
<totfact> 0.71439910E+05</totfact>
</mgrwt>
</event>
<event>
 6    1  0.4180481E-002  0.1279618E+03  0.7546771E-02  0.1230512E+00
         21   -1    0    0  503  502  0.00000000000E+00  0.00000000000E+00  0.87371856907E+02  0.87371856907E+02  0.00000000000E+00 0. -1.
         21   -1    0    0  504  503 -0.00000000000E+00 -0.00000000000E+00 -0.71147391691E+02  0.71147391691E+02  0.00000000000E+00 0. -1.
         25    2    1    2    0    0 -0.27397258634E+02  0.94093126937E-01  0.27588532570E+01  0.12799153431E+03  0.12499441167E+03 0.  0.
          5    1    3    3  501    0 -0.60895985495E+02 -0.15940993281E+01 -0.40575278988E+02  0.73193069802E+02  0.10000000000E+00 0. -1.
         -5    1    3    3    0  501  0.33498726861E+02  0.16881924550E+01  0.43334132245E+02  0.54798464509E+02  0.10000000000E+00 0. -1.
         21    1    1    2  504  502  0.27397258634E+02 -0.94093126937E-01  0.13465611960E+02  0.30527714288E+02  0.00000000000E+00 0.  1.
<mgrwt>
<rscale>  1 0.12796180E+03</rscale>
<asrwt>0</asrwt>
<pdfrwt beam="1">  1       21 0.13441824E-01 0.12796180E+03</pdfrwt>
<pdfrwt beam="2">  1       21 0.10945753E-01 0.12796180E+03</pdfrwt>
<totfact> 0.32716500E+06</totfact>
</mgrwt>
</event>
<event>
 6    1  0.4180481E-002  0.1268927E+03  0.7546771E-02  0.1232141E+00
         21   -1    0    0  503  502  0.00000000000E+00  0.00000000000E+00  0.45598348382E+02  0.45598348382E+02  0.00000000000E+00 0.  1.
         21   -1    0    0  504  503 -0.00000000000E+00 -0.00000000000E+00 -0.14963463693E+03  0.14963463693E+03  0.00000000000E+00 0.  1.
         25    2    1    2    0    0  0.21361250554E+02 -0.46297531196E+01 -0.49016692743E+02  0.13603084378E+03  0.12499606655E+03 0.  0.
          5    1    3    3  501    0  0.53654807091E+02 -0.23080433597E+02 -0.71690096052E+02  0.92471750340E+02  0.10000000000E+00 0. -1.
         -5    1    3    3    0  501 -0.32293556537E+02  0.18450680478E+02  0.22673403309E+02  0.43559093442E+02  0.10000000000E+00 0. -1.
         21    1    1    2  504  502 -0.21361250554E+02  0.46297531196E+01 -0.55019595803E+02  0.59202141528E+02  0.00000000000E+00 0.  1.
<mgrwt>
<rscale>  1 0.12689269E+03</rscale>
<asrwt>0</asrwt>
<pdfrwt beam="1">  1       21 0.70151305E-02 0.12689269E+03</pdfrwt>
<pdfrwt beam="2">  1       21 0.23020714E-01 0.12689269E+03</pdfrwt>
<totfact> 0.26459641E+06</totfact>
</mgrwt>
</event>
<event>
 6    1  0.4180481E-002  0.1260052E+03  0.7546771E-02  0.1233507E+00
         21   -1    0    0  503  502  0.00000000000E+00  0.00000000000E+00  0.20796732033E+03  0.20796732033E+03  0.00000000000E+00 0.  1.
         21   -1    0    0  504  503 -0.00000000000E+00 -0.00000000000E+00 -0.56160393656E+02  0.56160393656E+02  0.00000000000E+00 0.  1.
         25    2    1    2    0    0  0.15391693523E+02  0.36864533910E+01  0.18702771204E+03  0.22551427215E+03  0.12500731062E+03 0.  0.
          5    1    3    3  501    0  0.55059860800E+02  0.27458863077E+02  0.45223020421E+02  0.76359079413E+02  0.10000000000E+00 0.  1.
         -5    1    3    3    0  501 -0.39668167277E+02 -0.23772409686E+02  0.14180469162E+03  0.14915519274E+03  0.10000000000E+00 0.  1.
         21    1    1    2  504  502 -0.15391693523E+02 -0.36864533910E+01 -0.35220785365E+02  0.38613441829E+02  0.00000000000E+00 0.  1.
<mgrwt>
<rscale>  1 0.12600525E+03</rscale>
<asrwt>0</asrwt>
<pdfrwt beam="1">  1       21 0.31994972E-01 0.12600525E+03</pdfrwt>
<pdfrwt beam="2">  1       21 0.86400606E-02 0.12600525E+03</pdfrwt>
<totfact> 0.98695201E+05</totfact>
</mgrwt>
</event>
<event>
 6    1  0.4180481E-002  0.2042811E+03  0.7546771E-02  0.1146177E+00
         21   -1    0    0  504  502  0.00000000000E+00  0.00000000000E+00  0.13486782937E+03  0.13486782937E+03  0.00000000000E+00 0. -1.
         21   -1    0    0  502  503 -0.00000000000E+00 -0.00000000000E+00 -0.27608637140E+03  0.27608637140E+03  0.00000000000E+00 0. -1.
         25    2    1    2    0    0 -0.64311384539E+02  0.14820696712E+03 -0.14304594546E+03  0.24938502460E+03  0.12501795351E+03 0.  0.
          5    1    3    3  501    0  0.37970606149E+02  0.46094772186E+02 -0.39819503956E+02  0.71778115394E+02  0.10000000000E+00 0.  1.
         -5    1    3    3    0  501 -0.10228199069E+03  0.10211219493E+03 -0.10322644150E+03  0.17760690921E+03  0.10000000000E+00 0.  1.
         21    1    1    2  504  503  0.64311384539E+02 -0.14820696712E+03  0.18274034331E+01  0.16156917617E+03  0.00000000000E+00 0. -1.
<mgrwt>
<rscale>  1 0.20428105E+03</rscale>
<asrwt>0</asrwt>
<pdfrwt beam="1">  1       21 0.20748897E-01 0.20428105E+03</pdfrwt>
<pdfrwt beam="2">  1       21 0.42474826E-01 0.20428105E+03</pdfrwt>
<totfact> 0.11439835E+05</totfact>
</mgrwt>
</event>
<event>
 6    1  0.4180481E-002  0.1262626E+03  0.7546771E-02  0.1233109E+00
         21   -1    0    0  503  502  0.00000000000E+00  0.00000000000E+00  0.45947040175E+03  0.45947040175E+03  0.00000000000E+00 0. -1.
         21   -1    0    0  504  503 -0.00000000000E+00 -0.00000000000E+00 -0.11518076481E+02  0.11518076481E+02  0.00000000000E+00 0. -1.
         25    2    1    2    0    0  0.15067882464E+01  0.17771385351E+02  0.41099869561E+03  0.42995601190E+03  0.12499660727E+03 0.  0.
          5    1    3    3  501    0 -0.23523607700E+02  0.46510607524E+02  0.37124109462E+03  0.37488205754E+03  0.10000000000E+00 0. -1.
         -5    1    3    3    0  501  0.25030395946E+02 -0.28739222172E+02  0.39757600988E+02  0.55073954358E+02  0.10000000000E+00 0. -1.
         21    1    1    2  504  502 -0.15067882464E+01 -0.17771385351E+02  0.36953629660E+02  0.41032466331E+02  0.00000000000E+00 0. -1.
<mgrwt>
<rscale>  1 0.12626260E+03</rscale>
<asrwt>0</asrwt>
<pdfrwt beam="1">  1       21 0.70687740E-01 0.12626260E+03</pdfrwt>
<pdfrwt beam="2">  1       21 0.17720121E-02 0.12626260E+03</pdfrwt>
<totfact> 0.27001330E+06</totfact>
</mgrwt>
</event>
<event>
 6    1  0.4180481E-002  0.1401041E+03  0.7546771E-02  0.1213189E+00
         21   -1    0    0  504  502  0.00000000000E+00  0.00000000000E+00  0.13747914460E+02  0.13747914460E+02  0.00000000000E+00 0.  1.
         21   -1    0    0  502  503 -0.00000000000E+00 -0.00000000000E+00 -0.12238438057E+04  0.12238438057E+04  0.00000000000E+00 0.  1.
         25    2    1    2    0    0 -0.44890959552E+01  0.63126967529E+02 -0.37861605443E+03  0.40370690495E+03  0.12499592962E+03 0.  0.
          5    1    3    3  501    0 -0.21680037570E+01 -0.35971948163E+02 -0.59628962728E+02  0.69672838976E+02  0.10000000000E+00 0.  1.
         -5    1    3    3    0  501 -0.23210921982E+01  0.99098915691E+02 -0.31898709170E+03  0.33403406597E+03  0.10000000000E+00 0.  1.
         21    1    1    2  504  503  0.44890959552E+01 -0.63126967529E+02 -0.83147983677E+03  0.83388481516E+03  0.00000000000E+00 0.  1.
<mgrwt>
<rscale>  1 0.14010406E+03</rscale>
<asrwt>0</asrwt>
<pdfrwt beam="1">  1       21 0.21150631E-02 0.14010406E+03</pdfrwt>
<pdfrwt beam="2">  1       21 0.18828372E+00 0.14010406E+03</pdfrwt>
<totfact> 0.18461912E+05</totfact>
</mgrwt>
</event>
<event>
 6    1  0.4180481E-002  0.1263873E+03  0.7546771E-02  0.1232917E+00
         21   -1    0    0  504  502  0.00000000000E+00  0.00000000000E+00  0.19599239663E+02  0.19599239663E+02  0.00000000000E+00 0. -1.
         21   -1    0    0  502  503 -0.00000000000E+00 -0.00000000000E+00 -0.27071699722E+03  0.27071699722E+03  0.00000000000E+00 0. -1.
         25    2    1    2    0    0  0.27083266323E+01  0.18458606476E+02 -0.22714316967E+03  0.25993802017E+03  0.12500279844E+03 0.  0.
          5    1    3    3  501    0 -0.19177837935E+02 -0.33486909346E+02 -0.18648698294E+03  0.19043783073E+03  0.10000000000E+00 0. -1.
         -5    1    3    3    0  501  0.21886164568E+02  0.51945515823E+02 -0.40656186729E+02  0.69500189445E+02  0.10000000000E+00 0. -1.
         21    1    1    2  504  503 -0.27083266323E+01 -0.18458606476E+02 -0.23974587887E+02  0.30378216711E+02  0.00000000000E+00 0. -1.
<mgrwt>
<rscale>  1 0.12638732E+03</rscale>
<asrwt>0</asrwt>
<pdfrwt beam="1">  1       21 0.30152680E-02 0.12638732E+03</pdfrwt>
<pdfrwt beam="2">  1       21 0.41648763E-01 0.12638732E+03</pdfrwt>
<totfact> 0.34455739E+06</totfact>
</mgrwt>
</event>
<event>
 6    1  0.4180481E-002  0.1541556E+03  0.7546771E-02  0.1195458E+00
         21   -1    0    0  504  502  0.00000000000E+00  0.00000000000E+00  0.93985918258E+02  0.93985918258E+02  0.00000000000E+00 0.  1.
         21   -1    0    0  502  503 -0.00000000000E+00 -0.00000000000E+00 -0.21055298404E+03  0.21055298404E+03  0.00000000000E+00 0. -1.
         25    2    1    2    0    0 -0.47989777777E+02 -0.76412048277E+02  0.36830916813E+01  0.15419955195E+03  0.12498846653E+03 0.  0.
          5    1    3    3  501    0 -0.69299209988E+02 -0.21764090146E+02 -0.38253875044E+02  0.82094001491E+02  0.10000000000E+00 0.  1.
         -5    1    3    3    0  501  0.21309432212E+02 -0.54647958131E+02  0.41936966726E+02  0.72105550460E+02  0.10000000000E+00 0.  1.
         21    1    1    2  504  503  0.47989777777E+02  0.76412048277E+02 -0.12025015747E+03  0.15033935035E+03  0.00000000000E+00 0. -1.
<mgrwt>
<rscale>  1 0.15415556E+03</rscale>
<asrwt>0</asrwt>
<pdfrwt beam="1">  1       21 0.14459372E-01 0.15415556E+03</pdfrwt>
<pdfrwt beam="2">  1       21 0.32392767E-01 0.15415556E+03</pdfrwt>
<totfact> 0.38738966E+05</totfact>
</mgrwt>
</event>
<event>
 6    1  0.4180481E-002  0.1261104E+03  0.7546771E-02  0.1233344E+00
         21   -1    0    0  504  502  0.00000000000E+00  0.00000000000E+00  0.26054961190E+02  0.26054961190E+02  0.00000000000E+00 0.  1.
         21   -1    0    0  502  503 -0.00000000000E+00 -0.00000000000E+00 -0.19652258395E+03  0.19652258395E+03  0.00000000000E+00 0.  1.
         25    2    1    2    0    0 -0.16554914644E+02 -0.13709602487E+01 -0.14497071587E+03  0.19214668922E+03  0.12501158742E+03 0.  0.
          5    1    3    3  501    0 -0.34468375174E+02 -0.39162986970E+02 -0.14075434976E+03  0.15011197625E+03  0.10000000000E+00 0.  1.
         -5    1    3    3    0  501  0.17913460530E+02  0.37792026722E+02 -0.42163661085E+01  0.42034712977E+02  0.10000000000E+00 0.  1.
         21    1    1    2  504  503  0.16554914644E+02  0.13709602487E+01 -0.25496906890E+02  0.30430855917E+02  0.00000000000E+00 0.  1.
<mgrwt>
<rscale>  1 0.12611043E+03</rscale>
<asrwt>0</asrwt>
<pdfrwt beam="1">  1       21 0.40084557E-02 0.12611043E+03</pdfrwt>
<pdfrwt beam="2">  1       21 0.30234243E-01 0.12611043E+03</pdfrwt>
<totfact> 0.40448143E+06</totfact>
</mgrwt>
</event>
<event>
 6    1  0.4180481E-002  0.1299757E+03  0.7546771E-02  0.1227492E+00
         21   -1    0    0  503  502  0.00000000000E+00  0.00000000000E+00  0.16797000068E+03  0.16797000068E+03  0.00000000000E+00 0. -1.
         21   -1    0    0  504  503 -0.00000000000E+00 -0.00000000000E+00 -0.46025903900E+02  0.46025903900E+02  0.00000000000E+00 0. -1.
         25    2    1    2    0    0 -0.32714099355E+02 -0.14087936008E+02  0.12216608185E+03  0.17837664694E+03  0.12499997752E+03 0.  0.
          5    1    3    3  501    0  0.38178677479E+02 -0.20844477114E+02  0.90557736118E+02  0.10046301414E+03  0.10000000000E+00 0. -1.
         -5    1    3    3    0  501 -0.70892776834E+02  0.67565411064E+01  0.31608345731E+02  0.77913632792E+02  0.10000000000E+00 0. -1.
         21    1    1    2  504  502  0.32714099355E+02  0.14087936008E+02 -0.22198507188E+00  0.35619257641E+02  0.00000000000E+00 0. -1.
<mgrwt>
<rscale>  1 0.12997568E+03</rscale>
<asrwt>0</asrwt>
<pdfrwt beam="1">  1       21 0.25841538E-01 0.12997568E+03</pdfrwt>
<pdfrwt beam="2">  1       21 0.70809084E-02 0.12997568E+03</pdfrwt>
<totfact> 0.20958863E+06</totfact>
</mgrwt>
</event>
<event>
 6    1  0.4180481E-002  0.1274166E+03  0.7546771E-02  0.1231340E+00
         21   -1    0    0  504  502  0.00000000000E+00  0.00000000000E+00  0.20004454569E+02  0.20004454569E+02  0.00000000000E+00 0. -1.
         21   -1    0    0  502  503 -0.00000000000E+00 -0.00000000000E+00 -0.28986815153E+03  0.28986815153E+03  0.00000000000E+00 0. -1.
         25    2    1    2    0    0 -0.17599271949E+02  0.17262267206E+02 -0.21957025952E+03  0.25386233836E+03  0.12500907060E+03 0.  0.
          5    1    3    3  501    0 -0.99126527620E+00  0.77109851610E+01 -0.23127849601E+03  0.23140914981E+03  0.10000000000E+00 0. -1.
         -5    1    3    3    0  501 -0.16608006673E+02  0.95512820450E+01  0.11708236492E+02  0.22453188551E+02  0.10000000000E+00 0. -1.
         21    1    1    2  504  503  0.17599271949E+02 -0.17262267206E+02 -0.50293437441E+02  0.56010267736E+02  0.00000000000E+00 0. -1.
<mgrwt>
<rscale>  1 0.12741659E+03</rscale>
<asrwt>0</asrwt>
<pdfrwt beam="1">  1       21 0.30776086E-02 0.12741659E+03</pdfrwt>
<pdfrwt beam="2">  1       21 0.44595097E-01 0.12741659E+03</pdfrwt>
<totfact> 0.29031973E+06</totfact>
</mgrwt>
</event>
<event>
 6    1  0.4180481E-002  0.1299228E+03  0.7546771E-02  0.1227570E+00
         21   -1    0    0  504  502  0.00000000000E+00  0.00000000000E+00  0.88499948505E+02  0.88499948505E+02  0.00000000000E+00 0.  1.
         21   -1    0    0  502  503 -0.00000000000E+00 -0.00000000000E+00 -0.57730697238E+03  0.57730697238E+03  0.00000000000E+00 0. -1.
         25    2    1    2    0    0  0.27386879786E+02 -0.22524136280E+02  0.39900424672E+02  0.13591170101E+03  0.12499027435E+03 0.  0.
          5    1    3    3  501    0  0.29565977279E+02 -0.53381657361E+02  0.69921296949E+02  0.92804881995E+02  0.10000000000E+00 0. -1.
         -5    1    3    3    0  501 -0.21790974930E+01  0.30857521081E+02 -0.30020872277E+02  0.43106819013E+02  0.10000000000E+00 0. -1.
         21    1    1    2  504  503 -0.27386879786E+02  0.22524136280E+02 -0.52870744854E+03  0.52989521987E+03  0.00000000000E+00 0. -1.
<mgrwt>
<rscale>  1 0.12992285E+03</rscale>
<asrwt>0</asrwt>
<pdfrwt beam="1">  1       21 0.13615377E-01 0.12992285E+03</pdfrwt>
<pdfrwt beam="2">  1       21 0.88816458E-01 0.12992285E+03</pdfrwt>
<totfact> 0.52313258E+04</totfact>
</mgrwt>
</event>
<event>
 6    1  0.4180481E-002  0.1266507E+03  0.7546771E-02  0.1232512E+00
         21   -1    0    0  504  502  0.00000000000E+00  0.00000000000E+00  0.29737215736E+02  0.29737215736E+02  0.00000000000E+00 0. -1.
         21   -1    0    0  502  503 -0.00000000000E+00 -0.00000000000E+00 -0.18451384917E+03  0.18451384917E+03  0.00000000000E+00 0. -1.
         25    2    1    2    0    0  0.37620930642E+01 -0.20014130063E+02 -0.12327604561E+03  0.17674098920E+03  0.12500270035E+03 0.  0.
          5    1    3    3  501    0  0.29203749588E+02  0.34389665540E+01 -0.13654957647E+03  0.13967992811E+03  0.10000000000E+00 0.  1.
         -5    1    3    3    0  501 -0.25441656524E+02 -0.23453096617E+02  0.13273530862E+02  0.37061061091E+02  0.10000000000E+00 0.  1.
         21    1    1    2  504  503 -0.37620930642E+01  0.20014130063E+02 -0.31500587827E+02  0.37510075711E+02  0.00000000000E+00 0. -1.
<mgrwt>
<rscale>  1 0.12665068E+03</rscale>
<asrwt>0</asrwt>
<pdfrwt beam="1">  1       21 0.45749562E-02 0.12665068E+03</pdfrwt>
<pdfrwt beam="2">  1       21 0.28386746E-01 0.12665068E+03</pdfrwt>
<totfact> 0.36643063E+06</totfact>
</mgrwt>
</event>
<event>
 6    1  0.4180481E-002  0.1601001E+03  0.7546771E-02  0.1188584E+00
         21   -1    0    0  504  502  0.00000000000E+00  0.00000000000E+00  0.31563770342E+03  0.31563770342E+03  0.00000000000E+00 0.  1.
         21   -1    0    0  502  503 -0.00000000000E+00 -0.00000000000E+00 -0.21226091206E+03  0.21226091206E+03  0.00000000000E+00 0.  1.
         25    2    1    2    0    0 -0.30966901358E+02 -0.95101888327E+02  0.28136987291E+03  0.32372992242E+03  0.12501495568E+03 0.  0.
          5    1    3    3  501    0  0.17743800828E+02  0.21889482145E+02  0.89130014824E+02  0.93478133480E+02  0.10000000000E+00 0. -1.
         -5    1    3    3    0  501 -0.48710702186E+02 -0.11699137047E+03  0.19223985809E+03  0.23025178894E+03  0.10000000000E+00 0. -1.
         21    1    1    2  504  503  0.30966901358E+02  0.95101888327E+02 -0.17799308156E+03  0.20416869306E+03  0.00000000000E+00 0.  1.
<mgrwt>
<rscale>  1 0.16010015E+03</rscale>
<asrwt>0</asrwt>
<pdfrwt beam="1">  1       21 0.48559647E-01 0.16010015E+03</pdfrwt>
<pdfrwt beam="2">  1       21 0.32655525E-01 0.16010015E+03</pdfrwt>
<totfact> 0.37191741E+04</totfact>
</mgrwt>
</event>
<event>
 6    1  0.4180481E-002  0.1260744E+03  0.7546771E-02  0.1233400E+00
         21   -1    0    0  503  502  0.00000000000E+00  0.00000000000E+00  0.23702959941E+02  0.23702959941E+02  0.00000000000E+00 0. -1.
         21   -1    0    0  504  503 -0.00000000000E+00 -0.00000000000E+00 -0.24207960470E+03  0.24207960470E+03  0.00000000000E+00 0. -1.
         25    2    1    2    0    0  0.74737582370E+01 -0.14540287233E+02 -0.15229285199E+03  0.19770654330E+03  0.12500994953E+03 0.  0.
          5    1    3    3  501    0  0.12275665210E+02 -0.33377488387E+02  0.78239875932E+01  0.36413918619E+02  0.10000000000E+00 0.  1.
         -5    1    3    3    0  501 -0.48019069725E+01  0.18837201154E+02 -0.16011683958E+03  0.16129262468E+03  0.10000000000E+00 0.  1.
         21    1    1    2  504  502 -0.74737582370E+01  0.14540287233E+02 -0.66083792772E+02  0.68076021345E+02  0.00000000000E+00 0. -1.
<mgrwt>
<rscale>  1 0.12607444E+03</rscale>
<asrwt>0</asrwt>
<pdfrwt beam="1">  1       21 0.36466092E-02 0.12607444E+03</pdfrwt>
<pdfrwt beam="2">  1       21 0.37243017E-01 0.12607444E+03</pdfrwt>
<totfact> 0.31484189E+06</totfact>
</mgrwt>
</event>
<event>
 6    1  0.4180481E-002  0.1316807E+03  0.7546771E-02  0.1224983E+00
         21   -1    0    0  504  502  0.00000000000E+00  0.00000000000E+00  0.10098084452E+03  0.10098084452E+03  0.00000000000E+00 0.  1.
         21   -1    0    0  502  503 -0.00000000000E+00 -0.00000000000E+00 -0.18109799361E+03  0.18109799361E+03  0.00000000000E+00 0. -1.
         25    2    1    2    0    0  0.33071238574E+02 -0.24776555447E+02  0.53562898891E+02  0.14215764692E+03  0.12502890833E+03 0.  0.
          5    1    3    3  501    0  0.39559708329E+02 -0.72093520902E+02  0.44647657427E+02  0.93572803703E+02  0.10000000000E+00 0.  1.
         -5    1    3    3    0  501 -0.64884697544E+01  0.47316965455E+02  0.89152414642E+01  0.48584843213E+02  0.10000000000E+00 0.  1.
         21    1    1    2  504  503 -0.33071238574E+02  0.24776555447E+02 -0.13368004798E+03  0.13992119121E+03  0.00000000000E+00 0. -1.
<mgrwt>
<rscale>  1 0.13168072E+03</rscale>
<asrwt>0</asrwt>
<pdfrwt beam="1">  1       21 0.15535515E-01 0.13168072E+03</pdfrwt>
<pdfrwt beam="2">  1       21 0.27861229E-01 0.13168072E+03</pdfrwt>
<totfact> 0.45661909E+05</totfact>
</mgrwt>
</event>
<event>
 6    1  0.4180481E-002  0.1264347E+03  0.7546771E-02  0.1232844E+00
         21   -1    0    0  503  502  0.00000000000E+00  0.00000000000E+00  0.83790339766E+02  0.83790339766E+02  0.00000000000E+00 0. -1.
         21   -1    0    0  504  503 -0.00000000000E+00 -0.00000000000E+00 -0.15293748109E+03  0.15293748109E+03  0.00000000000E+00 0. -1.
         25    2    1    2    0    0 -0.18913524951E+02 -0.54491535811E+00  0.34748884988E+02  0.13112288422E+03  0.12501082913E+03 0.  0.
          5    1    3    3  501    0 -0.65134882132E+02  0.17661666558E+02 -0.47527015060E+01  0.67654161052E+02  0.10000000000E+00 0.  1.
         -5    1    3    3    0  501  0.46221357181E+02 -0.18206581916E+02  0.39501586494E+02  0.63468723166E+02  0.10000000000E+00 0.  1.
         21    1    1    2  504  502  0.18913524951E+02  0.54491535811E+00 -0.10389602631E+03  0.10560493664E+03  0.00000000000E+00 0. -1.
<mgrwt>
<rscale>  1 0.12643467E+03</rscale>
<asrwt>0</asrwt>
<pdfrwt beam="1">  1       21 0.12890822E-01 0.12643467E+03</pdfrwt>
<pdfrwt beam="2">  1       21 0.23528843E-01 0.12643467E+03</pdfrwt>
<totfact> 0.87923271E+05</totfact>
</mgrwt>
</event>
<event>
 6    1  0.4180481E-002  0.1337251E+03  0.7546771E-02  0.1222031E+00
         21   -1    0    0  503  502  0.00000000000E+00  0.00000000000E+00  0.33841996248E+03  0.33841996248E+03  0.00000000000E+00 0. -1.
         21   -1    0    0  504  503 -0.00000000000E+00 -0.00000000000E+00 -0.59614608358E+02  0.59614608358E+02  0.00000000000E+00 0. -1.
         25    2    1    2    0    0 -0.46930004592E+02 -0.73575601752E+01  0.31242313279E+03  0.33983908936E+03  0.12500333488E+03 0.  0.
          5    1    3    3  501    0 -0.33703021368E+02 -0.39887582437E+02  0.29687811645E+03  0.30143579566E+03  0.10000000000E+00 0. -1.
         -5    1    3    3    0  501 -0.13226983224E+02  0.32530022262E+02  0.15545016345E+02  0.38403293696E+02  0.10000000000E+00 0. -1.
         21    1    1    2  504  502  0.46930004592E+02  0.73575601752E+01 -0.33617778665E+02  0.58195481484E+02  0.00000000000E+00 0. -1.
<mgrwt>
<rscale>  1 0.13372506E+03</rscale>
<asrwt>0</asrwt>
<pdfrwt beam="1">  1       21 0.52064608E-01 0.13372506E+03</pdfrwt>
<pdfrwt beam="2">  1       21 0.91714784E-02 0.13372506E+03</pdfrwt>
<totfact> 0.33485269E+05</totfact>
</mgrwt>
</event>
<event>
 6    1  0.4180481E-002  0.1259736E+03  0.7546771E-02  0.1233556E+00
         21   -1    0    0  503  502  0.00000000000E+00  0.00000000000E+00  0.47060851361E+02  0.47060851361E+02  0.00000000000E+00 0. -1.
         21   -1    0    0  504  503 -0.00000000000E+00 -0.00000000000E+00 -0.25028251951E+03  0.25028251951E+03  0.00000000000E+00 0. -1.
         25    2    1    2    0    0  0.15588248144E+02 -0.72851293650E+00 -0.38274552108E+02  0.13165971054E+03  0.12500325527E+03 0.  0.
          5    1    3    3  501    0 -0.17538191866E+02 -0.25097868311E+02 -0.72150901485E+02  0.78378911404E+02  0.10000000000E+00 0.  1.
         -5    1    3    3    0  501  0.33126440010E+02  0.24369355374E+02  0.33876349378E+02  0.53280799133E+02  0.10000000000E+00 0.  1.
         21    1    1    2  504  502 -0.15588248144E+02  0.72851293650E+00 -0.16494711604E+03  0.16568366033E+03  0.00000000000E+00 0. -1.
<mgrwt>
<rscale>  1 0.12597356E+03</rscale>
<asrwt>0</asrwt>
<pdfrwt beam="1">  1       21 0.72401309E-02 0.12597356E+03</pdfrwt>
<pdfrwt beam="2">  1       21 0.38505004E-01 0.12597356E+03</pdfrwt>
<totfact> 0.93006346E+05</totfact>
</mgrwt>
</event>
<event>
 6    1  0.4180481E-002  0.1263775E+03  0.7546771E-02  0.1232932E+00
         21   -1    0    0  503  502  0.00000000000E+00  0.00000000000E+00  0.42626999236E+03  0.42626999236E+03  0.00000000000E+00 0.  1.
         21   -1    0    0  504  503 -0.00000000000E+00 -0.00000000000E+00 -0.13590173723E+02  0.13590173723E+02  0.00000000000E+00 0.  1.
         25    2    1    2    0    0  0.18277590311E+02  0.35165483609E+01  0.39278887713E+03  0.41261891108E+03  0.12499930946E+03 0.  0.
          5    1    3    3  501    0 -0.31231931250E+02  0.49520962997E+02  0.19521736504E+03  0.20380772537E+03  0.10000000000E+00 0. -1.
         -5    1    3    3    0  501  0.49509521561E+02 -0.46004414636E+02  0.19757151209E+03  0.20881118571E+03  0.10000000000E+00 0. -1.
         21    1    1    2  504  502 -0.18277590311E+02 -0.35165483609E+01  0.19890941508E+02  0.27241255001E+02  0.00000000000E+00 0. -1.
<mgrwt>
<rscale>  1 0.12637747E+03</rscale>
<asrwt>0</asrwt>
<pdfrwt beam="1">  1       21 0.65579988E-01 0.12637747E+03</pdfrwt>
<pdfrwt beam="2">  1       21 0.20907963E-02 0.12637747E+03</pdfrwt>
<totfact> 0.24340433E+06</totfact>
</mgrwt>
</event>
<event>
 6    1  0.4180481E-002  0.1324088E+03  0.7546771E-02  0.1223925E+00
         21   -1    0    0  504  502  0.00000000000E+00  0.00000000000E+00  0.22593537202E+03  0.22593537202E+03  0.00000000000E+00 0.  1.
         21   -1    0    0  502  503 -0.00000000000E+00 -0.00000000000E+00 -0.36273992356E+02  0.36273992356E+02  0.00000000000E+00 0.  1.
         25    2    1    2    0    0 -0.26968762720E+02 -0.34347456822E+02  0.16664836830E+03  0.21284682144E+03  0.12500011515E+03 0.  0.
          5    1    3    3  501    0 -0.17298070054E+02  0.39374171005E+02  0.11371590475E+03  0.12157658312E+03  0.10000000000E+00 0. -1.
         -5    1    3    3    0  501 -0.96706926659E+01 -0.73721627828E+02  0.52932463554E+02  0.91270238326E+02  0.10000000000E+00 0. -1.
         21    1    1    2  504  503  0.26968762720E+02  0.34347456822E+02  0.23013011364E+02  0.49362542933E+02  0.00000000000E+00 0. -1.
<mgrwt>
<rscale>  1 0.13240880E+03</rscale>
<asrwt>0</asrwt>
<pdfrwt beam="1">  1       21 0.34759287E-01 0.13240880E+03</pdfrwt>
<pdfrwt beam="2">  1       21 0.55806143E-02 0.13240880E+03</pdfrwt>
<totfact> 0.17741838E+06</totfact>
</mgrwt>
</event>
<event>
 6    1  0.4180481E-002  0.1297440E+03  0.7546771E-02  0.1227836E+00
         21   -1    0    0  504  502  0.00000000000E+00  0.00000000000E+00  0.85995766969E+02  0.85995766969E+02  0.00000000000E+00 0.  1.
         21   -1    0    0  502  503 -0.00000000000E+00 -0.00000000000E+00 -0.16047760018E+03  0.16047760018E+03  0.00000000000E+00 0.  1.
         25    2    1    2    0    0 -0.32421290300E+02 -0.12603693238E+02  0.32689024751E+02  0.13379867636E+03  0.12499408110E+03 0.  0.
          5    1    3    3  501    0  0.41228196922E+01  0.26843427081E+02 -0.36923513671E+02  0.45835827487E+02  0.10000000000E+00 0. -1.
         -5    1    3    3    0  501 -0.36544109992E+02 -0.39447120318E+02  0.69612538422E+02  0.87962848874E+02  0.10000000000E+00 0. -1.
         21    1    1    2  504  503  0.32421290300E+02  0.12603693238E+02 -0.10717085797E+03  0.11267469079E+03  0.00000000000E+00 0.  1.
<mgrwt>
<rscale>  1 0.12974403E+03</rscale>
<asrwt>0</asrwt>
<pdfrwt beam="1">  1       21 0.13230118E-01 0.12974403E+03</pdfrwt>
<pdfrwt beam="2">  1       21 0.24688861E-01 0.12974403E+03</pdfrwt>
<totfact> 0.76683332E+05</totfact>
</mgrwt>
</event>
<event>
 6    1  0.4180481E-002  0.1268897E+03  0.7546771E-02  0.1232145E+00
         21   -1    0    0  504  502  0.00000000000E+00  0.00000000000E+00  0.37913818592E+03  0.37913818592E+03  0.00000000000E+00 0.  1.
         21   -1    0    0  502  503 -0.00000000000E+00 -0.00000000000E+00 -0.14775443117E+02  0.14775443117E+02  0.00000000000E+00 0.  1.
         25    2    1    2    0    0 -0.15318906628E+02 -0.15547668268E+02  0.32520751997E+03  0.34908584342E+03  0.12499838454E+03 0.  0.
          5    1    3    3  501    0 -0.65713697119E+02 -0.24420539752E+02  0.13502120722E+03  0.15213608760E+03  0.10000000000E+00 0.  1.
         -5    1    3    3    0  501  0.50394790491E+02  0.88728714838E+01  0.19018631276E+03  0.19694975582E+03  0.10000000000E+00 0.  1.
         21    1    1    2  504  503  0.15318906628E+02  0.15547668268E+02  0.39155222826E+02  0.44827785618E+02  0.00000000000E+00 0. -1.
<mgrwt>
<rscale>  1 0.12688970E+03</rscale>
<asrwt>0</asrwt>
<pdfrwt beam="1">  1       21 0.58328944E-01 0.12688970E+03</pdfrwt>
<pdfrwt beam="2">  1       21 0.22731454E-02 0.12688970E+03</pdfrwt>
<totfact> 0.27300976E+06</totfact>
</mgrwt>
</event>
<event>
 6    1  0.4180481E-002  0.1280213E+03  0.7546771E-02  0.1230422E+00
         21   -1    0    0  503  502  0.00000000000E+00  0.00000000000E+00  0.35875829754E+02  0.35875829754E+02  0.00000000000E+00 0. -1.
         21   -1    0    0  504  503 -0.00000000000E+00 -0.00000000000E+00 -0.22654514107E+03  0.22654514107E+03  0.00000000000E+00 0. -1.
         25    2    1    2    0    0 -0.16868590919E+02 -0.21920701759E+02 -0.86163069691E+02  0.15431629440E+03  0.12499751044E+03 0.  0.
          5    1    3    3  501    0 -0.68904751174E+02  0.33835888299E+01 -0.57163109012E+02  0.89593216483E+02  0.10000000000E+00 0. -1.
         -5    1    3    3    0  501  0.52036160255E+02 -0.25304290589E+02 -0.28999960679E+02  0.64723077922E+02  0.10000000000E+00 0. -1.
         21    1    1    2  504  502  0.16868590919E+02  0.21920701759E+02 -0.10450624162E+03  0.10810467642E+03  0.00000000000E+00 0. -1.
<mgrwt>
<rscale>  1 0.12802126E+03</rscale>
<asrwt>0</asrwt>
<pdfrwt beam="1">  1       21 0.55193585E-02 0.12802126E+03</pdfrwt>
<pdfrwt beam="2">  1       21 0.34853098E-01 0.12802126E+03</pdfrwt>
<totfact> 0.17965986E+06</totfact>
</mgrwt>
</event>
<event>
 6    1  0.4180481E-002  0.1532050E+03  0.7546771E-02  0.1196589E+00
         21   -1    0    0  503  502  0.00000000000E+00  0.00000000000E+00  0.12571212687E+04  0.12571212687E+04  0.00000000000E+00 0. -1.
         21   -1    0    0  504  503 -0.00000000000E+00 -0.00000000000E+00 -0.14776708031E+02  0.14776708031E+02  0.00000000000E+00 0. -1.
         25    2    1    2    0    0 -0.17308524219E+02 -0.86866604640E+02  0.10371234818E+04  0.10483782165E+04  0.12500550493E+03 0.  0.
          5    1    3    3  501    0  0.13064765594E+02  0.27157494457E+02  0.34053894514E+03  0.34186985939E+03  0.10000000000E+00 0. -1.
         -5    1    3    3    0  501 -0.30373289813E+02 -0.11402409910E+03  0.69658453670E+03  0.70650835711E+03  0.10000000000E+00 0. -1.
         21    1    1    2  504  502  0.17308524219E+02  0.86866604640E+02  0.20522107884E+03  0.22351976023E+03  0.00000000000E+00 0. -1.
<mgrwt>
<rscale>  1 0.15320499E+03</rscale>
<asrwt>0</asrwt>
<pdfrwt beam="1">  1       21 0.19340319E+00 0.15320499E+03</pdfrwt>
<pdfrwt beam="2">  1       21 0.22733407E-02 0.15320499E+03</pdfrwt>
<totfact> 0.15108603E+05</totfact>
</mgrwt>
</event>
<event>
 6    1  0.4180481E-002  0.1290555E+03  0.7546771E-02  0.1228864E+00
         21   -1    0    0  503  502  0.00000000000E+00  0.00000000000E+00  0.28133719155E+02  0.28133719155E+02  0.00000000000E+00 0.  1.
         21   -1    0    0  504  503 -0.00000000000E+00 -0.00000000000E+00 -0.24934012354E+03  0.24934012354E+03  0.00000000000E+00 0.  1.
         25    2    1    2    0    0 -0.20727014658E+02 -0.24537507888E+02 -0.14136762559E+03  0.19141613514E+03  0.12499453107E+03 0.  0.
          5    1    3    3  501    0  0.40713998426E+02 -0.39344770796E+02 -0.31826316830E+02  0.64950481906E+02  0.10000000000E+00 0. -1.
         -5    1    3    3    0  501 -0.61441013084E+02  0.14807262909E+02 -0.10954130876E+03  0.12646565324E+03  0.10000000000E+00 0. -1.
         21    1    1    2  504  502  0.20727014658E+02  0.24537507888E+02 -0.79838778794E+02  0.86057707553E+02  0.00000000000E+00 0. -1.
<mgrwt>
<rscale>  1 0.12905554E+03</rscale>
<asrwt>0</asrwt>
<pdfrwt beam="1">  1       21 0.43282646E-02 0.12905554E+03</pdfrwt>
<pdfrwt beam="2">  1       21 0.38360018E-01 0.12905554E+03</pdfrwt>
<totfact> 0.22357485E+06</totfact>
</mgrwt>
</event>
<event>
 6    1  0.4180481E-002  0.1270183E+03  0.7546771E-02  0.1231948E+00
         21   -1    0    0  503  502  0.00000000000E+00  0.00000000000E+00  0.10504086805E+02  0.10504086805E+02  0.00000000000E+00 0. -1.
         21   -1    0    0  504  503 -0.00000000000E+00 -0.00000000000E+00 -0.55066785960E+03  0.55066785960E+03  0.00000000000E+00 0. -1.
         25    2    1    2    0    0 -0.18308437565E+02  0.13306637056E+02 -0.41589737551E+03  0.43486120668E+03  0.12498550573E+03 0.  0.
          5    1    3    3  501    0  0.22629518130E+02 -0.14133157618E+02 -0.14338499356E+02  0.30289334737E+02  0.10000000000E+00 0.  1.
         -5    1    3    3    0  501 -0.40937955695E+02  0.27439794674E+02 -0.40155887615E+03  0.40457187194E+03  0.10000000000E+00 0.  1.
         21    1    1    2  504  502  0.18308437565E+02 -0.13306637056E+02 -0.12426639729E+03  0.12631073973E+03  0.00000000000E+00 0. -1.
<mgrwt>
<rscale>  1 0.12701827E+03</rscale>
<asrwt>0</asrwt>
<pdfrwt beam="1">  1       21 0.16160131E-02 0.12701827E+03</pdfrwt>
<pdfrwt beam="2">  1       21 0.84718145E-01 0.12701827E+03</pdfrwt>
<totfact> 0.20944928E+06</totfact>
</mgrwt>
</event>
<event>
 6    1  0.4180481E-002  0.1273853E+03  0.7546771E-02  0.1231388E+00
         21   -1    0    0  503  502  0.00000000000E+00  0.00000000000E+00  0.48098240646E+03  0.48098240646E+03  0.00000000000E+00 0. -1.
         21   -1    0    0  504  503 -0.00000000000E+00 -0.00000000000E+00 -0.21773522781E+02  0.21773522781E+02  0.00000000000E+00 0. -1.
         25    2    1    2    0    0  0.23349724129E+02  0.75874007827E+01  0.46086755616E+03  0.47814842100E+03  0.12499691961E+03 0.  0.
          5    1    3    3  501    0 -0.34549654279E+02 -0.14183894107E+02  0.48737545215E+02  0.61402115407E+02  0.10000000000E+00 0.  1.
         -5    1    3    3    0  501  0.57899378408E+02  0.21771294890E+02  0.41213001095E+03  0.41674630559E+03  0.10000000000E+00 0.  1.
         21    1    1    2  504  502 -0.23349724129E+02 -0.75874007827E+01 -0.16586724820E+01  0.24607508243E+02  0.00000000000E+00 0. -1.
<mgrwt>
<rscale>  1 0.12738527E+03</rscale>
<asrwt>0</asrwt>
<pdfrwt beam="1">  1       21 0.73997286E-01 0.12738527E+03</pdfrwt>
<pdfrwt beam="2">  1       21 0.33497731E-02 0.12738527E+03</pdfrwt>
<totfact> 0.86756221E+05</totfact>
</mgrwt>
</event>
<event>
 6    1  0.4180481E-002  0.1288070E+03  0.7546771E-02  0.1229237E+00
         21   -1    0    0  504  502  0.00000000000E+00  0.00000000000E+00  0.13174676682E+03  0.13174676682E+03  0.00000000000E+00 0. -1.
         21   -1    0    0  502  503 -0.00000000000E+00 -0.00000000000E+00 -0.15049647112E+03  0.15049647112E+03  0.00000000000E+00 0. -1.
         25    2    1    2    0    0  0.39619438152E+00  0.31073688774E+02  0.97732019885E+02  0.16168734562E+03  0.12500207566E+03 0.  0.
          5    1    3    3  501    0 -0.58440390998E+02  0.29125012309E+02  0.29734962878E+02  0.71747638702E+02  0.10000000000E+00 0. -1.
         -5    1    3    3    0  501  0.58836585380E+02  0.19486764653E+01  0.67997057007E+02  0.89939706919E+02  0.10000000000E+00 0. -1.
         21    1    1    2  504  503 -0.39619438152E+00 -0.31073688774E+02 -0.11648172419E+03  0.12055589232E+03  0.00000000000E+00 0. -1.
<mgrwt>
<rscale>  1 0.12880703E+03</rscale>
<asrwt>0</asrwt>
<pdfrwt beam="1">  1       21 0.20268734E-01 0.12880703E+03</pdfrwt>
<pdfrwt beam="2">  1       21 0.23153303E-01 0.12880703E+03</pdfrwt>
<totfact> 0.39867953E+05</totfact>
</mgrwt>
</event>
<event>
 6    1  0.4180481E-002  0.1267869E+03  0.7546771E-02  0.1232303E+00
         21   -1    0    0  503  502  0.00000000000E+00  0.00000000000E+00  0.52267492220E+03  0.52267492220E+03  0.00000000000E+00 0. -1.
         21   -1    0    0  504  503 -0.00000000000E+00 -0.00000000000E+00 -0.12232948292E+02  0.12232948292E+02  0.00000000000E+00 0. -1.
         25    2    1    2    0    0 -0.38552315606E+01  0.20845244766E+02  0.48730157988E+03  0.50352531363E+03  0.12500209865E+03 0.  0.
          5    1    3    3  501    0  0.19268774789E+02  0.58949558002E+02  0.13680928811E+03  0.15021027723E+03  0.10000000000E+00 0.  1.
         -5    1    3    3    0  501 -0.23124006349E+02 -0.38104313236E+02  0.35049229177E+03  0.35331503640E+03  0.10000000000E+00 0.  1.
         21    1    1    2  504  502  0.38552315606E+01 -0.20845244766E+02  0.23140394031E+02  0.31382556869E+02  0.00000000000E+00 0. -1.
<mgrwt>
<rscale>  1 0.12678688E+03</rscale>
<asrwt>0</asrwt>
<pdfrwt beam="1">  1       21 0.80411509E-01 0.12678688E+03</pdfrwt>
<pdfrwt beam="2">  1       21 0.18819924E-02 0.12678688E+03</pdfrwt>
<totfact> 0.18440495E+06</totfact>
</mgrwt>
</event>
<event>
 6    1  0.4180481E-002  0.1323753E+03  0.7546771E-02  0.1223973E+00
         21   -1    0    0  503  502  0.00000000000E+00  0.00000000000E+00  0.16503122279E+02  0.16503122279E+02  0.00000000000E+00 0.  1.
         21   -1    0    0  504  503 -0.00000000000E+00 -0.00000000000E+00 -0.46916462208E+03  0.46916462208E+03  0.00000000000E+00 0.  1.
         25    2    1    2    0    0 -0.32106577139E+02 -0.29512183949E+02 -0.34039779220E+03  0.36523128252E+03  0.12498572517E+03 0.  0.
          5    1    3    3  501    0 -0.34911757171E+02 -0.59937776317E+02 -0.32238382890E+03  0.32976159715E+03  0.10000000000E+00 0.  1.
         -5    1    3    3    0  501  0.28051800321E+01  0.30425592368E+02 -0.18013963296E+02  0.35469685361E+02  0.10000000000E+00 0.  1.
         21    1    1    2  504  502  0.32106577139E+02  0.29512183949E+02 -0.11226370760E+03  0.12043646184E+03  0.00000000000E+00 0.  1.
<mgrwt>
<rscale>  1 0.13237535E+03</rscale>
<asrwt>0</asrwt>
<pdfrwt beam="1">  1       21 0.25389418E-02 0.13237535E+03</pdfrwt>
<pdfrwt beam="2">  1       21 0.72179175E-01 0.13237535E+03</pdfrwt>
<totfact> 0.14432191E+06</totfact>
</mgrwt>
</event>
<event>
 6    1  0.4180481E-002  0.1295244E+03  0.7546771E-02  0.1228163E+00
         21   -1    0    0  504  502  0.00000000000E+00  0.00000000000E+00  0.15729769852E+02  0.15729769852E+02  0.00000000000E+00 0. -1.
         21   -1    0    0  502  503 -0.00000000000E+00 -0.00000000000E+00 -0.42488392789E+03  0.42488392789E+03  0.00000000000E+00 0. -1.
         25    2    1    2    0    0  0.33727923321E+02  0.38175354226E+01 -0.32041751321E+03  0.34560665314E+03  0.12499771812E+03 0.  0.
          5    1    3    3  501    0  0.44687093270E+02  0.15062532483E+02 -0.32524775036E+02  0.57286012088E+02  0.10000000000E+00 0.  1.
         -5    1    3    3    0  501 -0.10959169949E+02 -0.11244997061E+02 -0.28789273818E+03  0.28832064106E+03  0.10000000000E+00 0.  1.
         21    1    1    2  504  503 -0.33727923321E+02 -0.38175354226E+01 -0.88736644824E+02  0.95007044596E+02  0.00000000000E+00 0. -1.
<mgrwt>
<rscale>  1 0.12952442E+03</rscale>
<asrwt>0</asrwt>
<pdfrwt beam="1">  1       21 0.24199642E-02 0.12952442E+03</pdfrwt>
<pdfrwt beam="2">  1       21 0.65366768E-01 0.12952442E+03</pdfrwt>
<totfact> 0.19351503E+06</totfact>
</mgrwt>
</event>
<event>
 6    1  0.4180481E-002  0.1335269E+03  0.7546771E-02  0.1222314E+00
         21   -1    0    0  504  502  0.00000000000E+00  0.00000000000E+00  0.17480034485E+02  0.17480034485E+02  0.00000000000E+00 0.  1.
         21   -1    0    0  502  503 -0.00000000000E+00 -0.00000000000E+00 -0.69529592977E+03  0.69529592977E+03  0.00000000000E+00 0.  1.
         25    2    1    2    0    0 -0.42127164635E+02  0.20719670433E+02 -0.25954330923E+03  0.29187697520E+03  0.12500174616E+03 0.  0.
          5    1    3    3  501    0  0.15898918208E+02  0.58139217965E+02 -0.15778411581E+03  0.16890465200E+03  0.10000000000E+00 0.  1.
         -5    1    3    3    0  501 -0.58026082842E+02 -0.37419547531E+02 -0.10175919342E+03  0.12297232320E+03  0.10000000000E+00 0.  1.
         21    1    1    2  504  503  0.42127164635E+02 -0.20719670433E+02 -0.41827258605E+03  0.42089898905E+03  0.00000000000E+00 0.  1.
<mgrwt>
<rscale>  1 0.13352692E+03</rscale>
<asrwt>0</asrwt>
<pdfrwt beam="1">  1       21 0.26892360E-02 0.13352692E+03</pdfrwt>
<pdfrwt beam="2">  1       21 0.10696861E+00 0.13352692E+03</pdfrwt>
<totfact> 0.53553466E+05</totfact>
</mgrwt>
</event>
<event>
 6    1  0.4180481E-002  0.1276174E+03  0.7546771E-02  0.1231035E+00
         21   -1    0    0  503  502  0.00000000000E+00  0.00000000000E+00  0.15295796347E+03  0.15295796347E+03  0.00000000000E+00 0.  1.
         21   -1    0    0  504  503 -0.00000000000E+00 -0.00000000000E+00 -0.95631741247E+02  0.95631741247E+02  0.00000000000E+00 0.  1.
         25    2    1    2    0    0 -0.11724762050E+02 -0.22868663457E+02  0.12350627490E+03  0.17759502051E+03  0.12500298219E+03 0.  0.
          5    1    3    3  501    0 -0.54495343839E+01 -0.60284472260E+02  0.14594998405E+02  0.62265070458E+02  0.10000000000E+00 0.  1.
         -5    1    3    3    0  501 -0.62752276659E+01  0.37415808803E+02  0.10891127649E+03  0.11532995005E+03  0.10000000000E+00 0.  1.
         21    1    1    2  504  502  0.11724762050E+02  0.22868663457E+02 -0.66180052678E+02  0.70994684209E+02  0.00000000000E+00 0.  1.
<mgrwt>
<rscale>  1 0.12761736E+03</rscale>
<asrwt>0</asrwt>
<pdfrwt beam="1">  1       21 0.23531994E-01 0.12761736E+03</pdfrwt>
<pdfrwt beam="2">  1       21 0.14712576E-01 0.12761736E+03</pdfrwt>
<totfact> 0.69382388E+05</totfact>
</mgrwt>
</event>
<event>
 6    1  0.4180481E-002  0.1575175E+03  0.7546771E-02  0.1191528E+00
         21   -1    0    0  503  502  0.00000000000E+00  0.00000000000E+00  0.57456967992E+03  0.57456967992E+03  0.00000000000E+00 0.  1.
         21   -1    0    0  504  503 -0.00000000000E+00 -0.00000000000E+00 -0.66592624018E+02  0.66592624018E+02  0.00000000000E+00 0.  1.
         25    2    1    2    0    0  0.95753232809E+02  0.42881830893E+01  0.52112940189E+03  0.54441493027E+03  0.12499877069E+03 0.  0.
          5    1    3    3  501    0  0.19029824446E+02 -0.54579923808E+02  0.14612409374E+03  0.15714122015E+03  0.10000000000E+00 0.  1.
         -5    1    3    3    0  501  0.76723408363E+02  0.58868106897E+02  0.37500530816E+03  0.38727371012E+03  0.10000000000E+00 0.  1.
         21    1    1    2  504  502 -0.95753232809E+02 -0.42881830893E+01 -0.13152345987E+02  0.96747373673E+02  0.00000000000E+00 0.  1.
<mgrwt>
<rscale>  1 0.15751750E+03</rscale>
<asrwt>0</asrwt>
<pdfrwt beam="1">  1       21 0.88395332E-01 0.15751750E+03</pdfrwt>
<pdfrwt beam="2">  1       21 0.10245019E-01 0.15751750E+03</pdfrwt>
<totfact> 0.86459680E+04</totfact>
</mgrwt>
</event>
<event>
 6    1  0.4180481E-002  0.1286753E+03  0.7546771E-02  0.1229435E+00
         21   -1    0    0  504  502  0.00000000000E+00  0.00000000000E+00  0.13756779602E+03  0.13756779602E+03  0.00000000000E+00 0.  1.
         21   -1    0    0  502  503 -0.00000000000E+00 -0.00000000000E+00 -0.50256990074E+02  0.50256990074E+02  0.00000000000E+00 0.  1.
         25    2    1    2    0    0  0.21982167557E+02 -0.21088295011E+02  0.90326507583E+02  0.15721390023E+03  0.12501760106E+03 0.  0.
          5    1    3    3  501    0 -0.27628149877E+02  0.39517591834E+02  0.20905706634E+02  0.52554859907E+02  0.10000000000E+00 0. -1.
         -5    1    3    3    0  501  0.49610317434E+02 -0.60605886845E+02  0.69420800949E+02  0.10465904032E+03  0.10000000000E+00 0. -1.
         21    1    1    2  504  503 -0.21982167557E+02  0.21088295011E+02 -0.30157016397E+01  0.30610885864E+02  0.00000000000E+00 0.  1.
<mgrwt>
<rscale>  1 0.12867530E+03</rscale>
<asrwt>0</asrwt>
<pdfrwt beam="1">  1       21 0.21164276E-01 0.12867530E+03</pdfrwt>
<pdfrwt beam="2">  1       21 0.77318447E-02 0.12867530E+03</pdfrwt>
<totfact> 0.26209973E+06</totfact>
</mgrwt>
</event>
<event>
 6    1  0.4180481E-002  0.1334747E+03  0.7546771E-02  0.1222389E+00
         21   -1    0    0  503  502  0.00000000000E+00  0.00000000000E+00  0.14132992163E+02  0.14132992163E+02  0.00000000000E+00 0.  1.
         21   -1    0    0  504  503 -0.00000000000E+00 -0.00000000000E+00 -0.14668951368E+04  0.14668951368E+04  0.00000000000E+00 0.  1.
         25    2    1    2    0    0 -0.24833581486E+02 -0.39672000264E+02 -0.31256917086E+03  0.33987494388E+03  0.12499966613E+03 0.  0.
          5    1    3    3  501    0  0.12820660579E+02 -0.20127789547E+02 -0.29155722121E+03  0.29253225547E+03  0.10000000000E+00 0. -1.
         -5    1    3    3    0  501 -0.37654242065E+02 -0.19544210717E+02 -0.21011949650E+02  0.47342688413E+02  0.10000000000E+00 0. -1.
         21    1    1    2  504  502  0.24833581486E+02  0.39672000264E+02 -0.11401929738E+04  0.11411531851E+04  0.00000000000E+00 0.  1.
<mgrwt>
<rscale>  1 0.13347468E+03</rscale>
<asrwt>0</asrwt>
<pdfrwt beam="1">  1       21 0.21743059E-02 0.13347468E+03</pdfrwt>
<pdfrwt beam="2">  1       21 0.22567623E+00 0.13347468E+03</pdfrwt>
<totfact> 0.10385761E+05</totfact>
</mgrwt>
</event>
<event>
 6    1  0.4180481E-002  0.1289230E+03  0.7546771E-02  0.1229063E+00
         21   -1    0    0  503  502  0.00000000000E+00  0.00000000000E+00  0.31637021906E+02  0.31637021906E+02  0.00000000000E+00 0. -1.
         21   -1    0    0  504  503 -0.00000000000E+00 -0.00000000000E+00 -0.23435584513E+03  0.23435584513E+03  0.00000000000E+00 0. -1.
         25    2    1    2    0    0  0.30799180053E+02  0.68403019334E+01 -0.11495460277E+03  0.17273013271E+03  0.12500303526E+03 0.  0.
          5    1    3    3  501    0  0.31864371455E+02  0.28820502192E+02  0.11417787028E+02  0.44455993695E+02  0.10000000000E+00 0.  1.
         -5    1    3    3    0  501 -0.10651914021E+01 -0.21980200259E+02 -0.12637238980E+03  0.12827413901E+03  0.10000000000E+00 0.  1.
         21    1    1    2  504  502 -0.30799180053E+02 -0.68403019334E+01 -0.87764220452E+02  0.93262734326E+02  0.00000000000E+00 0. -1.
<mgrwt>
<rscale>  1 0.12892299E+03</rscale>
<asrwt>0</asrwt>
<pdfrwt beam="1">  1       21 0.48672340E-02 0.12892299E+03</pdfrwt>
<pdfrwt beam="2">  1       21 0.36054746E-01 0.12892299E+03</pdfrwt>
<totfact> 0.20770205E+06</totfact>
</mgrwt>
</event>
<event>
 6    1  0.4180481E-002  0.1270488E+03  0.7546771E-02  0.1231902E+00
         21   -1    0    0  503  502  0.00000000000E+00  0.00000000000E+00  0.10853747664E+02  0.10853747664E+02  0.00000000000E+00 0.  1.
         21   -1    0    0  504  503 -0.00000000000E+00 -0.00000000000E+00 -0.66254553035E+03  0.66254553035E+03  0.00000000000E+00 0.  1.
         25    2    1    2    0    0 -0.22691476444E+02 -0.12484870210E+01 -0.37829365928E+03  0.39905825719E+03  0.12499975264E+03 0.  0.
          5    1    3    3  501    0 -0.42887446061E+02 -0.11322389005E+02 -0.37332196038E+03  0.37594790281E+03  0.10000000000E+00 0. -1.
         -5    1    3    3    0  501  0.20195969616E+02  0.10073901984E+02 -0.49716989000E+01  0.23110354387E+02  0.10000000000E+00 0. -1.
         21    1    1    2  504  502  0.22691476444E+02  0.12484870210E+01 -0.27339812341E+03  0.27434102082E+03  0.00000000000E+00 0.  1.
<mgrwt>
<rscale>  1 0.12704881E+03</rscale>
<asrwt>0</asrwt>
<pdfrwt beam="1">  1       21 0.16698073E-02 0.12704881E+03</pdfrwt>
<pdfrwt beam="2">  1       21 0.10193009E+00 0.12704881E+03</pdfrwt>
<totfact> 0.12983298E+06</totfact>
</mgrwt>
</event>
<event>
 6    1  0.4180481E-002  0.1460674E+03  0.7546771E-02  0.1205390E+00
         21   -1    0    0  503  502  0.00000000000E+00  0.00000000000E+00  0.93952693406E+02  0.93952693406E+02  0.00000000000E+00 0. -1.
         21   -1    0    0  504  503 -0.00000000000E+00 -0.00000000000E+00 -0.65512084814E+03  0.65512084814E+03  0.00000000000E+00 0.  1.
         25    2    1    2    0    0 -0.69903291211E+02  0.28718560325E+02  0.33304840787E+02  0.14981619430E+03  0.12499781528E+03 0.  0.
          5    1    3    3  501    0  0.34036146268E+02  0.24691414006E+02  0.93764686364E+01  0.43081937543E+02  0.10000000000E+00 0.  1.
         -5    1    3    3    0  501 -0.10393943748E+03  0.40271463193E+01  0.23928372150E+02  0.10673425675E+03  0.10000000000E+00 0.  1.
         21    1    1    2  504  502  0.69903291211E+02 -0.28718560325E+02 -0.59447299552E+03  0.59925734725E+03  0.00000000000E+00 0.  1.
<mgrwt>
<rscale>  1 0.14606738E+03</rscale>
<asrwt>0</asrwt>
<pdfrwt beam="1">  1       21 0.14454260E-01 0.14606738E+03</pdfrwt>
<pdfrwt beam="2">  1       21 0.10078783E+00 0.14606738E+03</pdfrwt>
<totfact> 0.34729705E+04</totfact>
</mgrwt>
</event>
<event>
 6    1  0.4180481E-002  0.1408983E+03  0.7546771E-02  0.1212125E+00
         21   -1    0    0  503  502  0.00000000000E+00  0.00000000000E+00  0.24249942851E+02  0.24249942851E+02  0.00000000000E+00 0.  1.
         21   -1    0    0  504  503 -0.00000000000E+00 -0.00000000000E+00 -0.66657939479E+03  0.66657939479E+03  0.00000000000E+00 0. -1.
         25    2    1    2    0    0  0.40699789322E+02  0.50708319222E+02 -0.20535762758E+03  0.24904637988E+03  0.12499815052E+03 0.  0.
          5    1    3    3  501    0 -0.33381798973E+02  0.26069241885E+01 -0.12577171225E+03  0.13015250347E+03  0.10000000000E+00 0. -1.
         -5    1    3    3    0  501  0.74081588295E+02  0.48101395033E+02 -0.79585915330E+02  0.11889387641E+03  0.10000000000E+00 0. -1.
         21    1    1    2  504  502 -0.40699789322E+02 -0.50708319222E+02 -0.43697182436E+03  0.44178295777E+03  0.00000000000E+00 0. -1.
<mgrwt>
<rscale>  1 0.14089835E+03</rscale>
<asrwt>0</asrwt>
<pdfrwt beam="1">  1       21 0.37307604E-02 0.14089835E+03</pdfrwt>
<pdfrwt beam="2">  1       21 0.10255068E+00 0.14089835E+03</pdfrwt>
<totfact> 0.34483831E+05</totfact>
</mgrwt>
</event>
<event>
 6    1  0.4180481E-002  0.1464540E+03  0.7546771E-02  0.1204899E+00
         21   -1    0    0  504  502  0.00000000000E+00  0.00000000000E+00  0.24918633203E+04  0.24918633203E+04  0.00000000000E+00 0. -1.
         21   -1    0    0  502  503 -0.00000000000E+00 -0.00000000000E+00 -0.50353347003E+01  0.50353347003E+01  0.00000000000E+00 0. -1.
         25    2    1    2    0    0 -0.68539702537E+02  0.33559415371E+02  0.17561536225E+04  0.17622497933E+04  0.12499945118E+03 0.  0.
          5    1    3    3  501    0 -0.75369878697E+02  0.73570977037E+02  0.11970366233E+04  0.12016613478E+04  0.10000000000E+00 0.  1.
         -5    1    3    3    0  501  0.68301761598E+01 -0.40011561665E+02  0.55911699924E+03  0.56058844549E+03  0.10000000000E+00 0.  1.
         21    1    1    2  504  503  0.68539702537E+02 -0.33559415371E+02  0.73067436304E+03  0.73464886170E+03  0.00000000000E+00 0. -1.
<mgrwt>
<rscale>  1 0.14645405E+03</rscale>
<asrwt>0</asrwt>
<pdfrwt beam="1">  1       21 0.38336260E+00 0.14645405E+03</pdfrwt>
<pdfrwt beam="2">  1       21 0.77466887E-03 0.14645405E+03</pdfrwt>
<totfact> 0.65479653E+04</totfact>
</mgrwt>
</event>
<event>
 6    1  0.4180481E-002  0.1301849E+03  0.7546771E-02  0.1227182E+00
         21   -1    0    0  504  502  0.00000000000E+00  0.00000000000E+00  0.24466028129E+03  0.24466028129E+03  0.00000000000E+00 0.  1.
         21   -1    0    0  502  503 -0.00000000000E+00 -0.00000000000E+00 -0.35363314008E+02  0.35363314008E+02  0.00000000000E+00 0.  1.
         25    2    1    2    0    0  0.17290352249E+02  0.32003851974E+02  0.20574725183E+03  0.24347495234E+03  0.12499967184E+03 0.  0.
          5    1    3    3  501    0  0.28449327981E+02  0.77660699139E+02  0.14099263855E+03  0.16346095123E+03  0.10000000000E+00 0. -1.
         -5    1    3    3    0  501 -0.11158975733E+02 -0.45656847164E+02  0.64754613277E+02  0.80014001107E+02  0.10000000000E+00 0. -1.
         21    1    1    2  504  503 -0.17290352249E+02 -0.32003851974E+02  0.35497154544E+01  0.36548642955E+02  0.00000000000E+00 0.  1.
<mgrwt>
<rscale>  1 0.13018495E+03</rscale>
<asrwt>0</asrwt>
<pdfrwt beam="1">  1       21 0.37640042E-01 0.13018495E+03</pdfrwt>
<pdfrwt beam="2">  1       21 0.54405100E-02 0.13018495E+03</pdfrwt>
<totfact> 0.15821483E+06</totfact>
</mgrwt>
</event>
<event>
 6    1  0.4180481E-002  0.1260203E+03  0.7546771E-02  0.1233483E+00
         21   -1    0    0  504  502  0.00000000000E+00  0.00000000000E+00  0.15710358796E+03  0.15710358796E+03  0.00000000000E+00 0.  1.
         21   -1    0    0  502  503 -0.00000000000E+00 -0.00000000000E+00 -0.39024480080E+02  0.39024480080E+02  0.00000000000E+00 0.  1.
         25    2    1    2    0    0 -0.14654967625E+02  0.64702707476E+01  0.12604495683E+03  0.17823708625E+03  0.12499798116E+03 0.  0.
          5    1    3    3  501    0  0.41588618070E+02  0.13765995651E+02  0.11133785002E+03  0.11964632312E+03  0.10000000000E+00 0. -1.
         -5    1    3    3    0  501 -0.56243585695E+02 -0.72957249037E+01  0.14707106815E+02  0.58590763134E+02  0.10000000000E+00 0. -1.
         21    1    1    2  504  503  0.14654967625E+02 -0.64702707476E+01 -0.79658489557E+01  0.17890981785E+02  0.00000000000E+00 0.  1.
<mgrwt>
<rscale>  1 0.12602035E+03</rscale>
<asrwt>0</asrwt>
<pdfrwt beam="1">  1       21 0.24169782E-01 0.12602035E+03</pdfrwt>
<pdfrwt beam="2">  1       21 0.60037663E-02 0.12602035E+03</pdfrwt>
<totfact> 0.31467508E+06</totfact>
</mgrwt>
</event>
<event>
 6    1  0.4180481E-002  0.1397681E+03  0.7546771E-02  0.1213641E+00
         21   -1    0    0  504  502  0.00000000000E+00  0.00000000000E+00  0.54671875814E+03  0.54671875814E+03  0.00000000000E+00 0.  1.
         21   -1    0    0  502  503 -0.00000000000E+00 -0.00000000000E+00 -0.18725761229E+02  0.18725761229E+02  0.00000000000E+00 0.  1.
         25    2    1    2    0    0 -0.20729968116E+02 -0.58984997598E+02  0.37177362916E+03  0.39717850265E+03  0.12500468037E+03 0.  0.
          5    1    3    3  501    0 -0.46974991018E+02 -0.68653837668E+02  0.13369286808E+03  0.15746044641E+03  0.10000000000E+00 0. -1.
         -5    1    3    3    0  501  0.26245022902E+02  0.96688400694E+01  0.23808076108E+03  0.23971805625E+03  0.10000000000E+00 0. -1.
         21    1    1    2  504  503  0.20729968116E+02  0.58984997598E+02  0.15621936775E+03  0.16826601671E+03  0.00000000000E+00 0.  1.
<mgrwt>
<rscale>  1 0.13976814E+03</rscale>
<asrwt>0</asrwt>
<pdfrwt beam="1">  1       21 0.84110566E-01 0.13976814E+03</pdfrwt>
<pdfrwt beam="2">  1       21 0.28808868E-02 0.13976814E+03</pdfrwt>
<totfact> 0.83503961E+05</totfact>
</mgrwt>
</event>
<event>
 6    1  0.4180481E-002  0.1517900E+03  0.7546771E-02  0.1198291E+00
         21   -1    0    0  504  502  0.00000000000E+00  0.00000000000E+00  0.10198777438E+04  0.10198777438E+04  0.00000000000E+00 0.  1.
         21   -1    0    0  502  503 -0.00000000000E+00 -0.00000000000E+00 -0.49456341752E+02  0.49456341752E+02  0.00000000000E+00 0. -1.
         25    2    1    2    0    0  0.52414600594E+02 -0.68329147795E+02  0.97142363763E+03  0.98321110800E+03  0.12499614533E+03 0.  0.
          5    1    3    3  501    0  0.61514471298E+02 -0.45036567091E+02  0.25028248544E+03  0.26163649416E+03  0.10000000000E+00 0.  1.
         -5    1    3    3    0  501 -0.90998707034E+01 -0.23292580705E+02  0.72114115219E+03  0.72157461384E+03  0.10000000000E+00 0.  1.
         21    1    1    2  504  503 -0.52414600594E+02  0.68329147795E+02 -0.10022355416E+01  0.86122977596E+02  0.00000000000E+00 0. -1.
<mgrwt>
<rscale>  1 0.15178998E+03</rscale>
<asrwt>0</asrwt>
<pdfrwt beam="1">  1       21 0.15690425E+00 0.15178998E+03</pdfrwt>
<pdfrwt beam="2">  1       21 0.76086687E-02 0.15178998E+03</pdfrwt>
<totfact> 0.35661098E+04</totfact>
</mgrwt>
</event>
<event>
 6    1  0.4180481E-002  0.1461655E+03  0.7546771E-02  0.1205266E+00
         21   -1    0    0  503  502  0.00000000000E+00  0.00000000000E+00  0.15219944843E+04  0.15219944843E+04  0.00000000000E+00 0. -1.
         21   -1    0    0  504  503 -0.00000000000E+00 -0.00000000000E+00 -0.46717456577E+03  0.46717456577E+03  0.00000000000E+00 0.  1.
         25    2    1    2    0    0 -0.75475138719E+02  0.65182535196E+01  0.15153836613E+04  0.15224164974E+04  0.12500146479E+03 0.  0.
          5    1    3    3  501    0 -0.87120182599E+01  0.59877727641E+02  0.66676228346E+03  0.66950219878E+03  0.10000000000E+00 0. -1.
         -5    1    3    3    0  501 -0.66763120459E+02 -0.53359474121E+02  0.84862137788E+03  0.85291429858E+03  0.10000000000E+00 0. -1.
         21    1    1    2  504  502  0.75475138719E+02 -0.65182535196E+01 -0.46056374285E+03  0.46675255266E+03  0.00000000000E+00 0.  1.
<mgrwt>
<rscale>  1 0.14616549E+03</rscale>
<asrwt>0</asrwt>
<pdfrwt beam="1">  1       21 0.23415299E+00 0.14616549E+03</pdfrwt>
<pdfrwt beam="2">  1       21 0.71873011E-01 0.14616549E+03</pdfrwt>
<totfact> 0.15574775E+02</totfact>
</mgrwt>
</event>
<event>
 6    1  0.4180481E-002  0.1268994E+03  0.7546771E-02  0.1232130E+00
         21   -1    0    0  503  502  0.00000000000E+00  0.00000000000E+00  0.14139776496E+04  0.14139776496E+04  0.00000000000E+00 0.  1.
         21   -1    0    0  504  503 -0.00000000000E+00 -0.00000000000E+00 -0.41622664479E+01  0.41622664479E+01  0.00000000000E+00 0.  1.
         25    2    1    2    0    0 -0.21828644796E+02 -0.14963384775E+01  0.12991032942E+04  0.13052864916E+04  0.12499890989E+03 0.  0.
          5    1    3    3  501    0 -0.21108694490E+02 -0.32861795973E+01  0.33823278953E+02  0.40005001669E+02  0.10000000000E+00 0. -1.
         -5    1    3    3    0  501 -0.71995030647E+00  0.17898411198E+01  0.12652800152E+04  0.12652814899E+04  0.10000000000E+00 0. -1.
         21    1    1    2  504  502  0.21828644796E+02  0.14963384775E+01  0.11071208901E+03  0.11285342447E+03  0.00000000000E+00 0.  1.
<mgrwt>
<rscale>  1 0.12689939E+03</rscale>
<asrwt>0</asrwt>
<pdfrwt beam="1">  1       21 0.21753464E+00 0.12689939E+03</pdfrwt>
<pdfrwt beam="2">  1       21 0.64034981E-03 0.12689939E+03</pdfrwt>
<totfact> 0.81010260E+05</totfact>
</mgrwt>
</event>
<event>
 6    1  0.4180481E-002  0.1940884E+03  0.7546771E-02  0.1154825E+00
         21   -1    0    0  503  502  0.00000000000E+00  0.00000000000E+00  0.43022303535E+03  0.43022303535E+03  0.00000000000E+00 0. -1.
         21   -1    0    0  504  503 -0.00000000000E+00 -0.00000000000E+00 -0.62965815207E+03  0.62965815207E+03  0.00000000000E+00 0. -1.
         25    2    1    2    0    0  0.83920270160E+02 -0.12248783558E+03  0.39878591059E+03  0.44350931985E+03  0.12499773079E+03 0.  0.
          5    1    3    3  501    0  0.42659830523E+02  0.18505329947E+02  0.80718894155E+02  0.93155022679E+02  0.10000000000E+00 0. -1.
         -5    1    3    3    0  501  0.41260439636E+02 -0.14099316553E+03  0.31806701643E+03  0.35035429717E+03  0.10000000000E+00 0. -1.
         21    1    1    2  504  502 -0.83920270160E+02  0.12248783558E+03 -0.59822102732E+03  0.61637186757E+03  0.00000000000E+00 0. -1.
<mgrwt>
<rscale>  1 0.19408842E+03</rscale>
<asrwt>0</asrwt>
<pdfrwt beam="1">  1       21 0.66188159E-01 0.19408842E+03</pdfrwt>
<pdfrwt beam="2">  1       21 0.96870485E-01 0.19408842E+03</pdfrwt>
<totfact> 0.18516564E+03</totfact>
</mgrwt>
</event>
<event>
 6    1  0.4180481E-002  0.1388925E+03  0.7546771E-02  0.1214827E+00
         21   -1    0    0  503  502  0.00000000000E+00  0.00000000000E+00  0.12388722258E+04  0.12388722258E+04  0.00000000000E+00 0. -1.
         21   -1    0    0  504  503 -0.00000000000E+00 -0.00000000000E+00 -0.10265007274E+02  0.10265007274E+02  0.00000000000E+00 0. -1.
         25    2    1    2    0    0  0.56225159503E+02 -0.22462184935E+02  0.10764942563E+04  0.10854174371E+04  0.12500124253E+03 0.  0.
          5    1    3    3  501    0  0.54576401837E+01  0.10883892657E+02  0.66949673348E+01  0.13895234556E+02  0.10000000000E+00 0.  1.
         -5    1    3    3    0  501  0.50767519320E+02 -0.33346077593E+02  0.10697992889E+04  0.10715222025E+04  0.10000000000E+00 0.  1.
         21    1    1    2  504  502 -0.56225159503E+02  0.22462184935E+02  0.15211296230E+03  0.16371979603E+03  0.00000000000E+00 0. -1.
<mgrwt>
<rscale>  1 0.13889251E+03</rscale>
<asrwt>0</asrwt>
<pdfrwt beam="1">  1       21 0.19059561E+00 0.13889251E+03</pdfrwt>
<pdfrwt beam="2">  1       21 0.15792329E-02 0.13889251E+03</pdfrwt>
<totfact> 0.28570592E+05</totfact>
</mgrwt>
</event>
<event>
 6    1  0.4180481E-002  0.1280486E+03  0.7546771E-02  0.1230380E+00
         21   -1    0    0  503  502  0.00000000000E+00  0.00000000000E+00  0.13123377798E+03  0.13123377798E+03  0.00000000000E+00 0. -1.
         21   -1    0    0  504  503 -0.00000000000E+00 -0.00000000000E+00 -0.56059462322E+02  0.56059462322E+02  0.00000000000E+00 0. -1.
         25    2    1    2    0    0 -0.25573732802E+02  0.10833036647E+02  0.89321387889E+02  0.15612418280E+03  0.12500031852E+03 0.  0.
          5    1    3    3  501    0 -0.10096622861E+02  0.45481066522E+02  0.10514907181E+03  0.11500785412E+03  0.10000000000E+00 0.  1.
         -5    1    3    3    0  501 -0.15477109942E+02 -0.34648029875E+02 -0.15827683924E+02  0.41116328688E+02  0.10000000000E+00 0.  1.
         21    1    1    2  504  502  0.25573732802E+02 -0.10833036647E+02 -0.14147072232E+02  0.31169057496E+02  0.00000000000E+00 0. -1.
<mgrwt>
<rscale>  1 0.12804862E+03</rscale>
<asrwt>0</asrwt>
<pdfrwt beam="1">  1       21 0.20189812E-01 0.12804862E+03</pdfrwt>
<pdfrwt beam="2">  1       21 0.86245327E-02 0.12804862E+03</pdfrwt>
<totfact> 0.23683999E+06</totfact>
</mgrwt>
</event>
<event>
 6    1  0.4180481E-002  0.1322064E+03  0.7546771E-02  0.1224218E+00
         21   -1    0    0  503  502  0.00000000000E+00  0.00000000000E+00  0.37569467020E+02  0.37569467020E+02  0.00000000000E+00 0.  1.
         21   -1    0    0  504  503 -0.00000000000E+00 -0.00000000000E+00 -0.20463533902E+03  0.20463533902E+03  0.00000000000E+00 0.  1.
         25    2    1    2    0    0 -0.41033369863E+02  0.13026299552E+02 -0.12958622386E+03  0.18512463482E+03  0.12500047631E+03 0.  0.
          5    1    3    3  501    0  0.28723872442E+02 -0.29761231471E+02 -0.78283651505E+02  0.88538871914E+02  0.10000000000E+00 0. -1.
         -5    1    3    3    0  501 -0.69757242305E+02  0.42787531023E+02 -0.51302572355E+02  0.96585762902E+02  0.10000000000E+00 0. -1.
         21    1    1    2  504  502  0.41033369863E+02 -0.13026299552E+02 -0.37479648136E+02  0.57080171222E+02  0.00000000000E+00 0.  1.
<mgrwt>
<rscale>  1 0.13220643E+03</rscale>
<asrwt>0</asrwt>
<pdfrwt beam="1">  1       21 0.57799181E-02 0.13220643E+03</pdfrwt>
<pdfrwt beam="2">  1       21 0.31482359E-01 0.13220643E+03</pdfrwt>
<totfact> 0.20284503E+06</totfact>
</mgrwt>
</event>
<event>
 6    1  0.4180481E-002  0.1293431E+03  0.7546771E-02  0.1228434E+00
         21   -1    0    0  504  502  0.00000000000E+00  0.00000000000E+00  0.18617454155E+02  0.18617454155E+02  0.00000000000E+00 0.  1.
         21   -1    0    0  502  503 -0.00000000000E+00 -0.00000000000E+00 -0.40259605947E+03  0.40259605947E+03  0.00000000000E+00 0.  1.
         25    2    1    2    0    0  0.33191907755E+02  0.18540364681E+01 -0.23178567727E+03  0.26543216834E+03  0.12499798243E+03 0.  0.
          5    1    3    3  501    0  0.64415687438E+02  0.35830078150E+02 -0.90031970626E+02  0.11635695520E+03  0.10000000000E+00 0.  1.
         -5    1    3    3    0  501 -0.31223779682E+02 -0.33976041682E+02 -0.14175370665E+03  0.14907521315E+03  0.10000000000E+00 0.  1.
         21    1    1    2  504  503 -0.33191907755E+02 -0.18540364681E+01 -0.15219292804E+03  0.15578134528E+03  0.00000000000E+00 0.  1.
<mgrwt>
<rscale>  1 0.12934309E+03</rscale>
<asrwt>0</asrwt>
<pdfrwt beam="1">  1       21 0.28642241E-02 0.12934309E+03</pdfrwt>
<pdfrwt beam="2">  1       21 0.61937848E-01 0.12934309E+03</pdfrwt>
<totfact> 0.16500883E+06</totfact>
</mgrwt>
</event>
<event>
 6    1  0.4180481E-002  0.1740082E+03  0.7546771E-02  0.1173731E+00
         21   -1    0    0  503  502  0.00000000000E+00  0.00000000000E+00  0.73197480399E+02  0.73197480399E+02  0.00000000000E+00 0. -1.
         21   -1    0    0  504  503 -0.00000000000E+00 -0.00000000000E+00 -0.30230356151E+03  0.30230356151E+03  0.00000000000E+00 0. -1.
         25    2    1    2    0    0  0.10792275253E+03  0.54812215183E+02 -0.15846973284E+03  0.23535400075E+03  0.12500859969E+03 0.  0.
          5    1    3    3  501    0  0.12979372045E+03  0.68813293014E+02 -0.14358244021E+03  0.20542055959E+03  0.10000000000E+00 0. -1.
         -5    1    3    3    0  501 -0.21870967921E+02 -0.14001077831E+02 -0.14887292632E+02  0.29933441168E+02  0.10000000000E+00 0. -1.
         21    1    1    2  504  502 -0.10792275253E+03 -0.54812215183E+02 -0.70636348265E+02  0.14014704115E+03  0.00000000000E+00 0. -1.
<mgrwt>
<rscale>  1 0.17400819E+03</rscale>
<asrwt>0</asrwt>
<pdfrwt beam="1">  1       21 0.11261151E-01 0.17400819E+03</pdfrwt>
<pdfrwt beam="2">  1       21 0.46508240E-01 0.17400819E+03</pdfrwt>
<totfact> 0.29234391E+05</totfact>
</mgrwt>
</event>
<event>
 6    1  0.4180481E-002  0.1294053E+03  0.7546771E-02  0.1228341E+00
         21   -1    0    0  504  502  0.00000000000E+00  0.00000000000E+00  0.36135135796E+03  0.36135135796E+03  0.00000000000E+00 0. -1.
         21   -1    0    0  502  503 -0.00000000000E+00 -0.00000000000E+00 -0.22668700225E+02  0.22668700225E+02  0.00000000000E+00 0. -1.
         25    2    1    2    0    0  0.14002161541E+02  0.30405991665E+02  0.32112866687E+03  0.34622154694E+03  0.12500061610E+03 0.  0.
          5    1    3    3  501    0  0.48204370378E+02 -0.30547256389E+02  0.11163528814E+03  0.12537640829E+03  0.10000000000E+00 0.  1.
         -5    1    3    3    0  501 -0.34202208837E+02  0.60953248053E+02  0.20949337873E+03  0.22084513866E+03  0.10000000000E+00 0.  1.
         21    1    1    2  504  503 -0.14002161541E+02 -0.30405991665E+02  0.17553990870E+02  0.37798511246E+02  0.00000000000E+00 0. -1.
<mgrwt>
<rscale>  1 0.12940533E+03</rscale>
<asrwt>0</asrwt>
<pdfrwt beam="1">  1       21 0.55592512E-01 0.12940533E+03</pdfrwt>
<pdfrwt beam="2">  1       21 0.34874926E-02 0.12940533E+03</pdfrwt>
<totfact> 0.15006313E+06</totfact>
</mgrwt>
</event>
<event>
 6    1  0.4180481E-002  0.1822417E+03  0.7546771E-02  0.1165651E+00
         21   -1    0    0  504  502  0.00000000000E+00  0.00000000000E+00  0.41721093211E+03  0.41721093211E+03  0.00000000000E+00 0. -1.
         21   -1    0    0  502  503 -0.00000000000E+00 -0.00000000000E+00 -0.72933708259E+02  0.72933708259E+02  0.00000000000E+00 0. -1.
         25    2    1    2    0    0 -0.13245551787E+03  0.65287627435E+01  0.29871813968E+03  0.34992082246E+03  0.12499986424E+03 0.  0.
          5    1    3    3  501    0 -0.47165761786E+02 -0.12238657159E+01  0.92896391221E+01  0.48087569362E+02  0.10000000000E+00 0.  1.
         -5    1    3    3    0  501 -0.85289756084E+02  0.77526284594E+01  0.28942850056E+03  0.30183325310E+03  0.10000000000E+00 0.  1.
         21    1    1    2  504  503  0.13245551787E+03 -0.65287627435E+01  0.45559084167E+02  0.14022381790E+03  0.00000000000E+00 0. -1.
<mgrwt>
<rscale>  1 0.18224175E+03</rscale>
<asrwt>0</asrwt>
<pdfrwt beam="1">  1       21 0.64186296E-01 0.18224175E+03</pdfrwt>
<pdfrwt beam="2">  1       21 0.11220571E-01 0.18224175E+03</pdfrwt>
<totfact> 0.14870092E+05</totfact>
</mgrwt>
</event>
<event>
 6    1  0.4180481E-002  0.1308073E+03  0.7546771E-02  0.1226263E+00
         21   -1    0    0  503  502  0.00000000000E+00  0.00000000000E+00  0.31630730993E+03  0.31630730993E+03  0.00000000000E+00 0. -1.
         21   -1    0    0  504  503 -0.00000000000E+00 -0.00000000000E+00 -0.73621940416E+02  0.73621940416E+02  0.00000000000E+00 0. -1.
         25    2    1    2    0    0  0.22432987542E+02 -0.31304815799E+02  0.29631545058E+03  0.32390337651E+03  0.12500928222E+03 0.  0.
          5    1    3    3  501    0 -0.23328040976E+02 -0.12711941080E+02  0.33199629106E+01  0.26773552165E+02  0.10000000000E+00 0.  1.
         -5    1    3    3    0  501  0.45761028518E+02 -0.18592874719E+02  0.29299548766E+03  0.29712982434E+03  0.10000000000E+00 0.  1.
         21    1    1    2  504  502 -0.22432987542E+02  0.31304815799E+02 -0.53630081058E+02  0.66025873842E+02  0.00000000000E+00 0. -1.
<mgrwt>
<rscale>  1 0.13080731E+03</rscale>
<asrwt>0</asrwt>
<pdfrwt beam="1">  1       21 0.48662662E-01 0.13080731E+03</pdfrwt>
<pdfrwt beam="2">  1       21 0.11326453E-01 0.13080731E+03</pdfrwt>
<totfact> 0.26612445E+05</totfact>
</mgrwt>
</event>
<event>
 6    1  0.4180481E-002  0.1260834E+03  0.7546771E-02  0.1233386E+00
         21   -1    0    0  503  502  0.00000000000E+00  0.00000000000E+00  0.13868526172E+04  0.13868526172E+04  0.00000000000E+00 0.  1.
         21   -1    0    0  504  503 -0.00000000000E+00 -0.00000000000E+00 -0.38361670105E+01  0.38361670105E+01  0.00000000000E+00 0.  1.
         25    2    1    2    0    0 -0.15135403843E+02 -0.65675062988E+01  0.12962590077E+04  0.13023764611E+04  0.12499927503E+03 0.  0.
          5    1    3    3  501    0  0.39634449793E+02  0.35233848563E+02  0.40481266640E+03  0.40827150106E+03  0.10000000000E+00 0.  1.
         -5    1    3    3    0  501 -0.54769853635E+02 -0.41801354862E+02  0.89144634132E+03  0.89410496005E+03  0.10000000000E+00 0.  1.
         21    1    1    2  504  502  0.15135403843E+02  0.65675062988E+01  0.86757442492E+02  0.88312323128E+02  0.00000000000E+00 0. -1.
<mgrwt>
<rscale>  1 0.12608343E+03</rscale>
<asrwt>0</asrwt>
<pdfrwt beam="1">  1       21 0.21336154E+00 0.12608343E+03</pdfrwt>
<pdfrwt beam="2">  1       21 0.59018065E-03 0.12608343E+03</pdfrwt>
<totfact> 0.97487608E+05</totfact>
</mgrwt>
</event>
<event>
 6    1  0.4180481E-002  0.1281285E+03  0.7546771E-02  0.1230259E+00
         21   -1    0    0  503  502  0.00000000000E+00  0.00000000000E+00  0.76977516232E+02  0.76977516232E+02  0.00000000000E+00 0. -1.
         21   -1    0    0  504  503 -0.00000000000E+00 -0.00000000000E+00 -0.10487037480E+03  0.10487037480E+03  0.00000000000E+00 0. -1.
         25    2    1    2    0    0 -0.59622101257E+01  0.27493279732E+02  0.16608043763E+02  0.12920039643E+03  0.12500194774E+03 0.  0.
          5    1    3    3  501    0  0.24031484470E+02  0.50757078050E+02 -0.34219637102E+02  0.65763111099E+02  0.10000000000E+00 0.  1.
         -5    1    3    3    0  501 -0.29993694595E+02 -0.23263798318E+02  0.50827680865E+02  0.63437285328E+02  0.10000000000E+00 0.  1.
         21    1    1    2  504  502  0.59622101257E+01 -0.27493279732E+02 -0.44500902330E+02  0.52647494606E+02  0.00000000000E+00 0. -1.
<mgrwt>
<rscale>  1 0.12812851E+03</rscale>
<asrwt>0</asrwt>
<pdfrwt beam="1">  1       21 0.11842695E-01 0.12812851E+03</pdfrwt>
<pdfrwt beam="2">  1       21 0.16133904E-01 0.12812851E+03</pdfrwt>
<totfact> 0.20499115E+06</totfact>
</mgrwt>
</event>
<event>
 6    1  0.4180481E-002  0.1263127E+03  0.7546771E-02  0.1233032E+00
         21   -1    0    0  504  502  0.00000000000E+00  0.00000000000E+00  0.45102437068E+03  0.45102437068E+03  0.00000000000E+00 0.  1.
         21   -1    0    0  502  503 -0.00000000000E+00 -0.00000000000E+00 -0.29044224735E+02  0.29044224735E+02  0.00000000000E+00 0.  1.
         25    2    1    2    0    0  0.33329859528E+01  0.17866346236E+02  0.43799500025E+03  0.45584483267E+03  0.12499830442E+03 0.  0.
          5    1    3    3  501    0  0.10523964496E+02 -0.52334426856E+02  0.23322415362E+03  0.23925543232E+03  0.10000000000E+00 0.  1.
         -5    1    3    3    0  501 -0.71909785430E+01  0.70200773093E+02  0.20477084664E+03  0.21658940036E+03  0.10000000000E+00 0.  1.
         21    1    1    2  504  503 -0.33329859528E+01 -0.17866346236E+02 -0.16014854303E+02  0.24223762745E+02  0.00000000000E+00 0.  1.
<mgrwt>
<rscale>  1 0.12631267E+03</rscale>
<asrwt>0</asrwt>
<pdfrwt beam="1">  1       21 0.69388359E-01 0.12631267E+03</pdfrwt>
<pdfrwt beam="2">  1       21 0.44683426E-02 0.12631267E+03</pdfrwt>
<totfact> 0.61938574E+05</totfact>
</mgrwt>
</event>
<event>
 6    1  0.4180481E-002  0.1262532E+03  0.7546771E-02  0.1233124E+00
         21   -1    0    0  504  502  0.00000000000E+00  0.00000000000E+00  0.38453720975E+02  0.38453720975E+02  0.00000000000E+00 0.  1.
         21   -1    0    0  502  503 -0.00000000000E+00 -0.00000000000E+00 -0.15120730856E+03  0.15120730856E+03  0.00000000000E+00 0.  1.
         25    2    1    2    0    0 -0.16605177128E+02 -0.61855753638E+01 -0.72282520539E+02  0.14548071132E+03  0.12500352531E+03 0.  0.
          5    1    3    3  501    0 -0.40532585000E+02 -0.33338880679E+02 -0.90762684468E+02  0.10484391400E+03  0.10000000000E+00 0. -1.
         -5    1    3    3    0  501  0.23927407872E+02  0.27153305315E+02  0.18480163929E+02  0.40636797313E+02  0.10000000000E+00 0. -1.
         21    1    1    2  504  503  0.16605177128E+02  0.61855753638E+01 -0.40471067049E+02  0.44180318221E+02  0.00000000000E+00 0.  1.
<mgrwt>
<rscale>  1 0.12625322E+03</rscale>
<asrwt>0</asrwt>
<pdfrwt beam="1">  1       21 0.59159570E-02 0.12625322E+03</pdfrwt>
<pdfrwt beam="2">  1       21 0.23262663E-01 0.12625322E+03</pdfrwt>
<totfact> 0.34668970E+06</totfact>
</mgrwt>
</event>
<event>
 6    1  0.4180481E-002  0.1285049E+03  0.7546771E-02  0.1229691E+00
         21   -1    0    0  503  502  0.00000000000E+00  0.00000000000E+00  0.56155793778E+03  0.56155793778E+03  0.00000000000E+00 0. -1.
         21   -1    0    0  504  503 -0.00000000000E+00 -0.00000000000E+00 -0.40513254534E+02  0.40513254534E+02  0.00000000000E+00 0. -1.
         25    2    1    2    0    0 -0.16038129147E+02  0.24666723166E+02  0.54757637797E+03  0.56245301917E+03  0.12509132760E+03 0.  0.
          5    1    3    3  501    0  0.37054978624E+02  0.31481334093E+02  0.94979843572E+02  0.10670204554E+03  0.10000000000E+00 0.  1.
         -5    1    3    3    0  501 -0.53093107771E+02 -0.68146109274E+01  0.45259653440E+03  0.45575097363E+03  0.10000000000E+00 0.  1.
         21    1    1    2  504  502  0.16038129147E+02 -0.24666723166E+02 -0.26531694725E+02  0.39618173144E+02  0.00000000000E+00 0. -1.
<mgrwt>
<rscale>  1 0.12850490E+03</rscale>
<asrwt>0</asrwt>
<pdfrwt beam="1">  1       21 0.86393523E-01 0.12850490E+03</pdfrwt>
<pdfrwt beam="2">  1       21 0.62328088E-02 0.12850490E+03</pdfrwt>
<totfact> 0.21730344E+05</totfact>
</mgrwt>
</event>
<event>
 6    1  0.4180481E-002  0.1309621E+03  0.7546771E-02  0.1226035E+00
         21   -1    0    0  504  502  0.00000000000E+00  0.00000000000E+00  0.65886116639E+03  0.65886116639E+03  0.00000000000E+00 0. -1.
         21   -1    0    0  502  503 -0.00000000000E+00 -0.00000000000E+00 -0.10970469765E+02  0.10970469765E+02  0.00000000000E+00 0. -1.
         25    2    1    2    0    0 -0.95253531918E+01 -0.37858982626E+02  0.49336612127E+03  0.51045196585E+03  0.12500817933E+03 0.  0.
          5    1    3    3  501    0  0.50190432921E+02  0.13322645133E+02  0.21565284073E+03  0.22181688426E+03  0.10000000000E+00 0.  1.
         -5    1    3    3    0  501 -0.59715786112E+02 -0.51181627760E+02  0.27771328054E+03  0.28863508158E+03  0.10000000000E+00 0.  1.
         21    1    1    2  504  503  0.95253531918E+01  0.37858982626E+02  0.15452457535E+03  0.15937967031E+03  0.00000000000E+00 0. -1.
<mgrwt>
<rscale>  1 0.13096213E+03</rscale>
<asrwt>0</asrwt>
<pdfrwt beam="1">  1       21 0.10136323E+00 0.13096213E+03</pdfrwt>
<pdfrwt beam="2">  1       21 0.16877651E-02 0.13096213E+03</pdfrwt>
<totfact> 0.12932494E+06</totfact>
</mgrwt>
</event>
<event>
 6    1  0.4180481E-002  0.1384537E+03  0.7546771E-02  0.1215425E+00
         21   -1    0    0  503  502  0.00000000000E+00  0.00000000000E+00  0.43999490801E+03  0.43999490801E+03  0.00000000000E+00 0. -1.
         21   -1    0    0  504  503 -0.00000000000E+00 -0.00000000000E+00 -0.67022444893E+03  0.67022444893E+03  0.00000000000E+00 0.  1.
         25    2    1    2    0    0  0.46671764398E+02 -0.37056102149E+02  0.42772296650E+03  0.44957352874E+03  0.12497205038E+03 0.  0.
          5    1    3    3  501    0 -0.31054295775E+02 -0.17887994718E+02  0.27323772739E+03  0.27557796594E+03  0.10000000000E+00 0.  1.
         -5    1    3    3    0  501  0.77726060174E+02 -0.19168107431E+02  0.15448523911E+03  0.17399556280E+03  0.10000000000E+00 0.  1.
         21    1    1    2  504  502 -0.46671764398E+02  0.37056102149E+02 -0.65795250742E+03  0.66064582820E+03  0.00000000000E+00 0.  1.
<mgrwt>
<rscale>  1 0.13845368E+03</rscale>
<asrwt>0</asrwt>
<pdfrwt beam="1">  1       21 0.67691525E-01 0.13845368E+03</pdfrwt>
<pdfrwt beam="2">  1       21 0.10311145E+00 0.13845368E+03</pdfrwt>
<totfact> 0.16127153E+03</totfact>
</mgrwt>
</event>
<event>
 6    1  0.4180481E-002  0.1268377E+03  0.7546771E-02  0.1232225E+00
         21   -1    0    0  503  502  0.00000000000E+00  0.00000000000E+00  0.16469012168E+03  0.16469012168E+03  0.00000000000E+00 0. -1.
         21   -1    0    0  504  503 -0.00000000000E+00 -0.00000000000E+00 -0.46614958894E+02  0.46614958894E+02  0.00000000000E+00 0. -1.
         25    2    1    2    0    0  0.17783001407E+02 -0.12092315702E+02  0.13402736526E+03  0.18452949464E+03  0.12500136205E+03 0.  0.
          5    1    3    3  501    0 -0.31114718519E+01  0.48316243932E+02  0.17240531916E+02  0.51394422125E+02  0.10000000000E+00 0. -1.
         -5    1    3    3    0  501  0.20894473259E+02 -0.60408559634E+02  0.11678683335E+03  0.13313507251E+03  0.10000000000E+00 0. -1.
         21    1    1    2  504  502 -0.17783001407E+02  0.12092315702E+02 -0.15952202480E+02  0.26775585933E+02  0.00000000000E+00 0. -1.
<mgrwt>
<rscale>  1 0.12683769E+03</rscale>
<asrwt>0</asrwt>
<pdfrwt beam="1">  1       21 0.25336941E-01 0.12683769E+03</pdfrwt>
<pdfrwt beam="2">  1       21 0.71715322E-02 0.12683769E+03</pdfrwt>
<totfact> 0.21272685E+06</totfact>
</mgrwt>
</event>
<event>
 6    1  0.4180481E-002  0.1278102E+03  0.7546771E-02  0.1230742E+00
         21   -1    0    0  503  502  0.00000000000E+00  0.00000000000E+00  0.32717730598E+02  0.32717730598E+02  0.00000000000E+00 0.  1.
         21   -1    0    0  504  503 -0.00000000000E+00 -0.00000000000E+00 -0.21137744646E+03  0.21137744646E+03  0.00000000000E+00 0.  1.
         25    2    1    2    0    0  0.17114952224E+02  0.20322967651E+02 -0.10377005057E+03  0.16463193668E+03  0.12501802500E+03 0.  0.
          5    1    3    3  501    0 -0.34881516931E+02 -0.10437295848E+02 -0.97280035622E+02  0.10387046115E+03  0.10000000000E+00 0.  1.
         -5    1    3    3    0  501  0.51996469155E+02  0.30760263499E+02 -0.64900149474E+01  0.60761475534E+02  0.10000000000E+00 0.  1.
         21    1    1    2  504  502 -0.17114952224E+02 -0.20322967651E+02 -0.74889665292E+02  0.79463240378E+02  0.00000000000E+00 0.  1.
<mgrwt>
<rscale>  1 0.12781022E+03</rscale>
<asrwt>0</asrwt>
<pdfrwt beam="1">  1       21 0.50334971E-02 0.12781022E+03</pdfrwt>
<pdfrwt beam="2">  1       21 0.32519607E-01 0.12781022E+03</pdfrwt>
<totfact> 0.24023625E+06</totfact>
</mgrwt>
</event>
<event>
 6    1  0.4180481E-002  0.1633160E+03  0.7546771E-02  0.1185003E+00
         21   -1    0    0  504  502  0.00000000000E+00  0.00000000000E+00  0.33782841353E+03  0.33782841353E+03  0.00000000000E+00 0.  1.
         21   -1    0    0  502  503 -0.00000000000E+00 -0.00000000000E+00 -0.73455874667E+03  0.73455874667E+03  0.00000000000E+00 0. -1.
         25    2    1    2    0    0 -0.35460849593E+02  0.98946396179E+02  0.31399697300E+03  0.35392967025E+03  0.12499700500E+03 0.  0.
          5    1    3    3  501    0 -0.76871976430E+02  0.91339534509E+02  0.20718766194E+03  0.23912120062E+03  0.10000000000E+00 0. -1.
         -5    1    3    3    0  501  0.41411126837E+02  0.76068616700E+01  0.10680931106E+03  0.11480846963E+03  0.10000000000E+00 0. -1.
         21    1    1    2  504  503  0.35460849593E+02 -0.98946396179E+02 -0.71072730614E+03  0.71845748995E+03  0.00000000000E+00 0. -1.
<mgrwt>
<rscale>  1 0.16331599E+03</rscale>
<asrwt>0</asrwt>
<pdfrwt beam="1">  1       21 0.51973603E-01 0.16331599E+03</pdfrwt>
<pdfrwt beam="2">  1       21 0.11300904E+00 0.16331599E+03</pdfrwt>
<totfact> 0.22117092E+03</totfact>
</mgrwt>
</event>
<event>
 6    1  0.4180481E-002  0.1273416E+03  0.7546771E-02  0.1231454E+00
         21   -1    0    0  503  502  0.00000000000E+00  0.00000000000E+00  0.12466014572E+02  0.12466014572E+02  0.00000000000E+00 0.  1.
         21   -1    0    0  504  503 -0.00000000000E+00 -0.00000000000E+00 -0.46575662326E+03  0.46575662326E+03  0.00000000000E+00 0.  1.
         25    2    1    2    0    0 -0.10738141579E+01 -0.24248869507E+02 -0.36132845916E+03  0.38311113645E+03  0.12500690671E+03 0.  0.
          5    1    3    3  501    0  0.53256450790E+02 -0.43798985853E+02 -0.17727864956E+03  0.19021653530E+03  0.10000000000E+00 0. -1.
         -5    1    3    3    0  501 -0.54330264948E+02  0.19550116346E+02 -0.18404980960E+03  0.19289460115E+03  0.10000000000E+00 0. -1.
         21    1    1    2  504  502  0.10738141579E+01  0.24248869507E+02 -0.91962149532E+02  0.95111501385E+02  0.00000000000E+00 0.  1.
<mgrwt>
<rscale>  1 0.12734162E+03</rscale>
<asrwt>0</asrwt>
<pdfrwt beam="1">  1       21 0.19178485E-02 0.12734162E+03</pdfrwt>
<pdfrwt beam="2">  1       21 0.71654862E-01 0.12734162E+03</pdfrwt>
<totfact> 0.23086177E+06</totfact>
</mgrwt>
</event>
<event>
 6    1  0.4180481E-002  0.1321164E+03  0.7546771E-02  0.1224349E+00
         21   -1    0    0  504  502  0.00000000000E+00  0.00000000000E+00  0.38058870401E+03  0.38058870401E+03  0.00000000000E+00 0. -1.
         21   -1    0    0  502  503 -0.00000000000E+00 -0.00000000000E+00 -0.62520945987E+02  0.62520945987E+02  0.00000000000E+00 0. -1.
         25    2    1    2    0    0 -0.37113844336E+02 -0.21264872696E+02  0.35983701893E+03  0.38332417175E+03  0.12500043281E+03 0.  0.
          5    1    3    3  501    0 -0.57836095508E+02  0.33458155631E+01  0.34132266232E+03  0.34620424353E+03  0.10000000000E+00 0. -1.
         -5    1    3    3    0  501  0.20722251172E+02 -0.24610688259E+02  0.18514356610E+02  0.37119928218E+02  0.10000000000E+00 0. -1.
         21    1    1    2  504  503  0.37113844336E+02  0.21264872696E+02 -0.41769260909E+02  0.59785478246E+02  0.00000000000E+00 0. -1.
<mgrwt>
<rscale>  1 0.13211639E+03</rscale>
<asrwt>0</asrwt>
<pdfrwt beam="1">  1       21 0.58552107E-01 0.13211639E+03</pdfrwt>
<pdfrwt beam="2">  1       21 0.96186073E-02 0.13211639E+03</pdfrwt>
<totfact> 0.24100932E+05</totfact>
</mgrwt>
</event>
<event>
 6    1  0.4180481E-002  0.1391690E+03  0.7546771E-02  0.1214452E+00
         21   -1    0    0  504  502  0.00000000000E+00  0.00000000000E+00  0.12391127644E+03  0.12391127644E+03  0.00000000000E+00 0.  1.
         21   -1    0    0  502  503 -0.00000000000E+00 -0.00000000000E+00 -0.11980123479E+03  0.11980123479E+03  0.00000000000E+00 0.  1.
         25    2    1    2    0    0  0.55740623528E+02 -0.25201614574E+02  0.68314050396E+02  0.15503166083E+03  0.12500347151E+03 0.  0.
          5    1    3    3  501    0 -0.71611927230E+01  0.27451743230E+02 -0.19836512905E+02  0.34617598586E+02  0.10000000000E+00 0.  1.
         -5    1    3    3    0  501  0.62901816251E+02 -0.52653357805E+02  0.88150563301E+02  0.12041406224E+03  0.10000000000E+00 0.  1.
         21    1    1    2  504  503 -0.55740623528E+02  0.25201614574E+02 -0.64204008745E+02  0.88680850398E+02  0.00000000000E+00 0.  1.
<mgrwt>
<rscale>  1 0.13916898E+03</rscale>
<asrwt>0</asrwt>
<pdfrwt beam="1">  1       21 0.19063273E-01 0.13916898E+03</pdfrwt>
<pdfrwt beam="2">  1       21 0.18430959E-01 0.13916898E+03</pdfrwt>
<totfact> 0.68143870E+05</totfact>
</mgrwt>
</event>
<event>
 6    1  0.4180481E-002  0.1266991E+03  0.7546771E-02  0.1232438E+00
         21   -1    0    0  504  502  0.00000000000E+00  0.00000000000E+00  0.11641665881E+02  0.11641665881E+02  0.00000000000E+00 0. -1.
         21   -1    0    0  502  503 -0.00000000000E+00 -0.00000000000E+00 -0.47574149603E+03  0.47574149603E+03  0.00000000000E+00 0. -1.
         25    2    1    2    0    0 -0.14896486539E+02 -0.14157339232E+02 -0.37085815492E+03  0.39190360616E+03  0.12502131775E+03 0.  0.
          5    1    3    3  501    0 -0.88386047841E+01  0.15007504623E+02  0.22912292282E+01  0.17567181359E+02  0.10000000000E+00 0.  1.
         -5    1    3    3    0  501 -0.60578817553E+01 -0.29164843855E+02 -0.37314938414E+03  0.37433642480E+03  0.10000000000E+00 0.  1.
         21    1    1    2  504  503  0.14896486539E+02  0.14157339232E+02 -0.93241675235E+02  0.95479555749E+02  0.00000000000E+00 0. -1.
<mgrwt>
<rscale>  1 0.12669911E+03</rscale>
<asrwt>0</asrwt>
<pdfrwt beam="1">  1       21 0.17910255E-02 0.12669911E+03</pdfrwt>
<pdfrwt beam="2">  1       21 0.73191001E-01 0.12669911E+03</pdfrwt>
<totfact> 0.24597344E+06</totfact>
</mgrwt>
</event>
<event>
 6    1  0.4180481E-002  0.1300058E+03  0.7546771E-02  0.1227447E+00
         21   -1    0    0  503  502  0.00000000000E+00  0.00000000000E+00  0.12970102105E+04  0.12970102105E+04  0.00000000000E+00 0.  1.
         21   -1    0    0  504  503 -0.00000000000E+00 -0.00000000000E+00 -0.66884173906E+01  0.66884173906E+01  0.00000000000E+00 0.  1.
         25    2    1    2    0    0  0.35756572020E+02  0.12356219970E+00  0.11921510737E+04  0.11992187836E+04  0.12499184274E+03 0.  0.
          5    1    3    3  501    0 -0.95092128458E+01 -0.56605837643E+02  0.53952224087E+03  0.54256695842E+03  0.10000000000E+00 0. -1.
         -5    1    3    3    0  501  0.45265784866E+02  0.56729399843E+02  0.65262883279E+03  0.65665182515E+03  0.10000000000E+00 0. -1.
         21    1    1    2  504  502 -0.35756572020E+02 -0.12356219970E+00  0.98170719466E+02  0.10447984433E+03  0.00000000000E+00 0.  1.
<mgrwt>
<rscale>  1 0.13000580E+03</rscale>
<asrwt>0</asrwt>
<pdfrwt beam="1">  1       21 0.19953983E+00 0.13000580E+03</pdfrwt>
<pdfrwt beam="2">  1       21 0.10289883E-02 0.13000580E+03</pdfrwt>
<totfact> 0.49678834E+05</totfact>
</mgrwt>
</event>
<event>
 6    1  0.4180481E-002  0.1271315E+03  0.7546771E-02  0.1231775E+00
         21   -1    0    0  504  502  0.00000000000E+00  0.00000000000E+00  0.58868000135E+02  0.58868000135E+02  0.00000000000E+00 0.  1.
         21   -1    0    0  502  503 -0.00000000000E+00 -0.00000000000E+00 -0.29485935339E+03  0.29485935339E+03  0.00000000000E+00 0.  1.
         25    2    1    2    0    0  0.19012356455E+02  0.13285812204E+02 -0.11069213096E+02  0.12761244549E+03  0.12499770502E+03 0.  0.
          5    1    3    3  501    0  0.69998087763E+02 -0.27913449395E+01  0.87462955248E+01  0.70597674059E+02  0.10000000000E+00 0. -1.
         -5    1    3    3    0  501 -0.50985731309E+02  0.16077157143E+02 -0.19815508620E+02  0.57014771426E+02  0.10000000000E+00 0. -1.
         21    1    1    2  504  503 -0.19012356455E+02 -0.13285812204E+02 -0.22492214016E+03  0.22611490804E+03  0.00000000000E+00 0.  1.
<mgrwt>
<rscale>  1 0.12713146E+03</rscale>
<asrwt>0</asrwt>
<pdfrwt beam="1">  1       21 0.90566153E-02 0.12713146E+03</pdfrwt>
<pdfrwt beam="2">  1       21 0.45362978E-01 0.12713146E+03</pdfrwt>
<totfact> 0.45471044E+05</totfact>
</mgrwt>
</event>
<event>
 6    1  0.4180481E-002  0.1275134E+03  0.7546771E-02  0.1231193E+00
         21   -1    0    0  504  502  0.00000000000E+00  0.00000000000E+00  0.79628259618E+02  0.79628259618E+02  0.00000000000E+00 0. -1.
         21   -1    0    0  502  503 -0.00000000000E+00 -0.00000000000E+00 -0.13556401692E+03  0.13556401692E+03  0.00000000000E+00 0.  1.
         25    2    1    2    0    0  0.17858982124E+02  0.17763303921E+02  0.25423375270E+02  0.13002311157E+03  0.12500073329E+03 0.  0.
          5    1    3    3  501    0  0.35343264073E+02  0.41705585771E+01 -0.44324424951E+02  0.56843684974E+02  0.10000000000E+00 0.  1.
         -5    1    3    3    0  501 -0.17484281949E+02  0.13592745343E+02  0.69747800221E+02  0.73179426596E+02  0.10000000000E+00 0.  1.
         21    1    1    2  504  503 -0.17858982124E+02 -0.17763303921E+02 -0.81359132574E+02  0.85169164971E+02  0.00000000000E+00 0.  1.
<mgrwt>
<rscale>  1 0.12751338E+03</rscale>
<asrwt>0</asrwt>
<pdfrwt beam="1">  1       21 0.12250502E-01 0.12751338E+03</pdfrwt>
<pdfrwt beam="2">  1       21 0.20856002E-01 0.12751338E+03</pdfrwt>
<totfact> 0.12055739E+06</totfact>
</mgrwt>
</event>
<event>
 6    1  0.4180481E-002  0.1266696E+03  0.7546771E-02  0.1232483E+00
         21   -1    0    0  504  502  0.00000000000E+00  0.00000000000E+00  0.48022539382E+03  0.48022539382E+03  0.00000000000E+00 0.  1.
         21   -1    0    0  502  503 -0.00000000000E+00 -0.00000000000E+00 -0.43472435524E+03  0.43472435524E+03  0.00000000000E+00 0.  1.
         25    2    1    2    0    0  0.20375196158E+02 -0.18639639067E+01  0.47162271024E+03  0.48833715896E+03  0.12500630797E+03 0.  0.
          5    1    3    3  501    0  0.73136829019E+02  0.39999056724E+01  0.25567233306E+03  0.26595741557E+03  0.10000000000E+00 0.  1.
         -5    1    3    3    0  501 -0.52761632861E+02 -0.58638695791E+01  0.21595037717E+03  0.22237974339E+03  0.10000000000E+00 0.  1.
         21    1    1    2  504  503 -0.20375196158E+02  0.18639639067E+01 -0.42612167165E+03  0.42661259010E+03  0.00000000000E+00 0.  1.
<mgrwt>
<rscale>  1 0.12666965E+03</rscale>
<asrwt>0</asrwt>
<pdfrwt beam="1">  1       21 0.73880830E-01 0.12666965E+03</pdfrwt>
<pdfrwt beam="2">  1       21 0.66880670E-01 0.12666965E+03</pdfrwt>
<totfact> 0.35858341E+03</totfact>
</mgrwt>
</event>
<event>
 6    1  0.4180481E-002  0.1404112E+03  0.7546771E-02  0.1212777E+00
         21   -1    0    0  504  502  0.00000000000E+00  0.00000000000E+00  0.39252006644E+01  0.39252006644E+01  0.00000000000E+00 0.  1.
         21   -1    0    0  502  503 -0.00000000000E+00 -0.00000000000E+00 -0.28218431159E+04  0.28218431159E+04  0.00000000000E+00 0.  1.
         25    2    1    2    0    0 -0.87976552174E+01  0.63338695732E+02 -0.15905163097E+04  0.15967020488E+04  0.12500444923E+03 0.  0.
          5    1    3    3  501    0 -0.12506449725E+02  0.17031275019E+02 -0.14145182408E+04  0.14146760545E+04  0.10000000000E+00 0. -1.
         -5    1    3    3    0  501  0.37087945077E+01  0.46307420712E+02 -0.17599806884E+03  0.18202599431E+03  0.10000000000E+00 0. -1.
         21    1    1    2  504  503  0.87976552174E+01 -0.63338695732E+02 -0.12274016056E+04  0.12290662678E+04  0.00000000000E+00 0.  1.
<mgrwt>
<rscale>  1 0.14041119E+03</rscale>
<asrwt>0</asrwt>
<pdfrwt beam="1">  1       21 0.60387430E-03 0.14041119E+03</pdfrwt>
<pdfrwt beam="2">  1       21 0.43413167E+00 0.14041119E+03</pdfrwt>
<totfact> 0.47127690E+04</totfact>
</mgrwt>
</event>
<event>
 6    1  0.4180481E-002  0.1427901E+03  0.7546771E-02  0.1209623E+00
         21   -1    0    0  504  502  0.00000000000E+00  0.00000000000E+00  0.17620803089E+03  0.17620803089E+03  0.00000000000E+00 0.  1.
         21   -1    0    0  502  503 -0.00000000000E+00 -0.00000000000E+00 -0.16936344790E+03  0.16936344790E+03  0.00000000000E+00 0.  1.
         25    2    1    2    0    0 -0.38948168547E+02 -0.56982115208E+02  0.13723073072E+03  0.19804362105E+03  0.12500032439E+03 0.  0.
          5    1    3    3  501    0 -0.44303856728E+02 -0.22981594742E+02  0.15244790844E+03  0.16040997539E+03  0.10000000000E+00 0.  1.
         -5    1    3    3    0  501  0.53556881808E+01 -0.34000520466E+02 -0.15217177719E+02  0.37633645659E+02  0.10000000000E+00 0.  1.
         21    1    1    2  504  503  0.38948168547E+02  0.56982115208E+02 -0.13038614773E+03  0.14752785773E+03  0.00000000000E+00 0.  1.
<mgrwt>
<rscale>  1 0.14279006E+03</rscale>
<asrwt>0</asrwt>
<pdfrwt beam="1">  1       21 0.27108928E-01 0.14279006E+03</pdfrwt>
<pdfrwt beam="2">  1       21 0.26055915E-01 0.14279006E+03</pdfrwt>
<totfact> 0.18410981E+05</totfact>
</mgrwt>
</event>
<event>
 6    1  0.4180481E-002  0.1504076E+03  0.7546771E-02  0.1199973E+00
         21   -1    0    0  504  502  0.00000000000E+00  0.00000000000E+00  0.46034357411E+03  0.46034357411E+03  0.00000000000E+00 0.  1.
         21   -1    0    0  502  503 -0.00000000000E+00 -0.00000000000E+00 -0.30619548426E+02  0.30619548426E+02  0.00000000000E+00 0.  1.
         25    2    1    2    0    0 -0.18736230064E+01  0.83626727143E+02  0.31409485720E+03  0.34824996771E+03  0.12500208293E+03 0.  0.
          5    1    3    3  501    0  0.18682973722E+02 -0.26994793603E+02  0.38651364936E+02  0.50712034076E+02  0.10000000000E+00 0. -1.
         -5    1    3    3    0  501 -0.20556596729E+02  0.11062152075E+03  0.27544349226E+03  0.29753793364E+03  0.10000000000E+00 0. -1.
         21    1    1    2  504  503  0.18736230064E+01 -0.83626727143E+02  0.11562916849E+03  0.14271315483E+03  0.00000000000E+00 0.  1.
<mgrwt>
<rscale>  1 0.15040765E+03</rscale>
<asrwt>0</asrwt>
<pdfrwt beam="1">  1       21 0.70822083E-01 0.15040765E+03</pdfrwt>
<pdfrwt beam="2">  1       21 0.47107001E-02 0.15040765E+03</pdfrwt>
<totfact> 0.54102134E+05</totfact>
</mgrwt>
</event>
<event>
 6    1  0.4180481E-002  0.1282625E+03  0.7546771E-02  0.1230057E+00
         21   -1    0    0  503  502  0.00000000000E+00  0.00000000000E+00  0.29888597383E+02  0.29888597383E+02  0.00000000000E+00 0. -1.
         21   -1    0    0  504  503 -0.00000000000E+00 -0.00000000000E+00 -0.22221636002E+03  0.22221636002E+03  0.00000000000E+00 0. -1.
         25    2    1    2    0    0  0.20710242423E+02 -0.20034248317E+02 -0.12604286880E+03  0.17982790435E+03  0.12498393961E+03 0.  0.
          5    1    3    3  501    0 -0.48272216774E+02 -0.32427157168E+02 -0.55467186368E+02  0.80363836380E+02  0.10000000000E+00 0. -1.
         -5    1    3    3    0  501  0.68982459197E+02  0.12392908851E+02 -0.70575682433E+02  0.99464067972E+02  0.10000000000E+00 0. -1.
         21    1    1    2  504  502 -0.20710242423E+02  0.20034248317E+02 -0.66284893837E+02  0.72277053051E+02  0.00000000000E+00 0. -1.
<mgrwt>
<rscale>  1 0.12826251E+03</rscale>
<asrwt>0</asrwt>
<pdfrwt beam="1">  1       21 0.45982457E-02 0.12826251E+03</pdfrwt>
<pdfrwt beam="2">  1       21 0.34187133E-01 0.12826251E+03</pdfrwt>
<totfact> 0.25358074E+06</totfact>
</mgrwt>
</event>
<event>
 6    1  0.4180481E-002  0.1277610E+03  0.7546771E-02  0.1230816E+00
         21   -1    0    0  504  502  0.00000000000E+00  0.00000000000E+00  0.37236373550E+03  0.37236373550E+03  0.00000000000E+00 0. -1.
         21   -1    0    0  502  503 -0.00000000000E+00 -0.00000000000E+00 -0.42398208366E+03  0.42398208366E+03  0.00000000000E+00 0. -1.
         25    2    1    2    0    0  0.12626620108E+02  0.23262486013E+02  0.36096821138E+03  0.38291112794E+03  0.12498922945E+03 0.  0.
          5    1    3    3  501    0 -0.21475870977E+02  0.65239455115E+02  0.25296001915E+03  0.26211863884E+03  0.10000000000E+00 0.  1.
         -5    1    3    3    0  501  0.34102491085E+02 -0.41976969101E+02  0.10800819223E+03  0.12079248910E+03  0.10000000000E+00 0.  1.
         21    1    1    2  504  503 -0.12626620108E+02 -0.23262486013E+02 -0.41258655954E+03  0.41343469122E+03  0.00000000000E+00 0. -1.
<mgrwt>
<rscale>  1 0.12776104E+03</rscale>
<asrwt>0</asrwt>
<pdfrwt beam="1">  1       21 0.57286729E-01 0.12776104E+03</pdfrwt>
<pdfrwt beam="2">  1       21 0.65228013E-01 0.12776104E+03</pdfrwt>
<totfact> 0.65363740E+03</totfact>
</mgrwt>
</event>
<event>
 6    1  0.4180481E-002  0.1281530E+03  0.7546771E-02  0.1230222E+00
         21   -1    0    0  504  502  0.00000000000E+00  0.00000000000E+00  0.95231778556E+03  0.95231778556E+03  0.00000000000E+00 0. -1.
         21   -1    0    0  502  503 -0.00000000000E+00 -0.00000000000E+00 -0.21467314838E+02  0.21467314838E+02  0.00000000000E+00 0. -1.
         25    2    1    2    0    0 -0.27712195664E+02  0.54920234289E+01  0.93628607893E+03  0.94501577738E+03  0.12500027918E+03 0.  0.
          5    1    3    3  501    0 -0.64803570824E+02  0.95632033273E+01  0.82589637521E+03  0.82849006647E+03  0.10000000000E+00 0.  1.
         -5    1    3    3    0  501  0.37091375160E+02 -0.40711798984E+01  0.11038970372E+03  0.11652571092E+03  0.10000000000E+00 0.  1.
         21    1    1    2  504  503  0.27712195664E+02 -0.54920234289E+01 -0.54356082119E+01  0.28769323011E+02  0.00000000000E+00 0. -1.
<mgrwt>
<rscale>  1 0.12815303E+03</rscale>
<asrwt>0</asrwt>
<pdfrwt beam="1">  1       21 0.14651040E+00 0.12815303E+03</pdfrwt>
<pdfrwt beam="2">  1       21 0.33026646E-02 0.12815303E+03</pdfrwt>
<totfact> 0.17615230E+05</totfact>
</mgrwt>
</event>
<event>
 6    1  0.4180481E-002  0.2338891E+03  0.7546771E-02  0.1123932E+00
         21   -1    0    0  503  502  0.00000000000E+00  0.00000000000E+00  0.58314665463E+03  0.58314665463E+03  0.00000000000E+00 0. -1.
         21   -1    0    0  504  503 -0.00000000000E+00 -0.00000000000E+00 -0.18888811899E+03  0.18888811899E+03  0.00000000000E+00 0.  1.
         25    2    1    2    0    0  0.18295331712E+03 -0.74890170798E+02  0.49696970196E+03  0.54925677289E+03  0.12499465575E+03 0.  0.
          5    1    3    3  501    0  0.29725521217E+02 -0.11106807635E+02  0.77725713074E+01  0.32670945077E+02  0.10000000000E+00 0. -1.
         -5    1    3    3    0  501  0.15322779590E+03 -0.63783363163E+02  0.48919713065E+03  0.51658582781E+03  0.10000000000E+00 0. -1.
         21    1    1    2  504  502 -0.18295331712E+03  0.74890170798E+02 -0.10271116632E+03  0.22277800074E+03  0.00000000000E+00 0.  1.
<mgrwt>
<rscale>  1 0.23388911E+03</rscale>
<asrwt>0</asrwt>
<pdfrwt beam="1">  1       21 0.89714869E-01 0.23388911E+03</pdfrwt>
<pdfrwt beam="2">  1       21 0.29059711E-01 0.23388911E+03</pdfrwt>
<totfact> 0.11686528E+04</totfact>
</mgrwt>
</event>
<event>
 6    1  0.4180481E-002  0.1334550E+03  0.7546771E-02  0.1222417E+00
         21   -1    0    0  503  502  0.00000000000E+00  0.00000000000E+00  0.25621755730E+04  0.25621755730E+04  0.00000000000E+00 0.  1.
         21   -1    0    0  504  503 -0.00000000000E+00 -0.00000000000E+00 -0.35177041997E+01  0.35177041997E+01  0.00000000000E+00 0.  1.
         25    2    1    2    0    0 -0.39919802956E+02 -0.24412680819E+02  0.21924546528E+04  0.21965126100E+04  0.12498268475E+03 0.  0.
          5    1    3    3  501    0 -0.14327650300E+02  0.48006129923E+02  0.55467098798E+03  0.55692888682E+03  0.10000000000E+00 0. -1.
         -5    1    3    3    0  501 -0.25592152656E+02 -0.72418810742E+02  0.16377836648E+04  0.16395837231E+04  0.10000000000E+00 0. -1.
         21    1    1    2  504  502  0.39919802956E+02  0.24412680819E+02  0.36620321603E+03  0.36918066726E+03  0.00000000000E+00 0.  1.
<mgrwt>
<rscale>  1 0.13345502E+03</rscale>
<asrwt>0</asrwt>
<pdfrwt beam="1">  1       21 0.39417937E+00 0.13345502E+03</pdfrwt>
<pdfrwt beam="2">  1       21 0.54118731E-03 0.13345502E+03</pdfrwt>
<totfact> 0.10019631E+05</totfact>
</mgrwt>
</event>
<event>
 6    1  0.4180481E-002  0.1281522E+03  0.7546771E-02  0.1230224E+00
         21   -1    0    0  504  502  0.00000000000E+00  0.00000000000E+00  0.28705409433E+03  0.28705409433E+03  0.00000000000E+00 0. -1.
         21   -1    0    0  502  503 -0.00000000000E+00 -0.00000000000E+00 -0.21689725006E+02  0.21689725006E+02  0.00000000000E+00 0. -1.
         25    2    1    2    0    0  0.20581384845E+02 -0.19339880137E+02  0.23190659916E+03  0.26495972690E+03  0.12500144711E+03 0.  0.
          5    1    3    3  501    0  0.14800106458E+02 -0.72303090834E+01  0.24538673480E+03  0.24593897645E+03  0.10000000000E+00 0. -1.
         -5    1    3    3    0  501  0.57812783866E+01 -0.12109571054E+02 -0.13480135641E+02  0.19020750453E+02  0.10000000000E+00 0. -1.
         21    1    1    2  504  503 -0.20581384845E+02  0.19339880137E+02  0.33457770162E+02  0.43784092432E+02  0.00000000000E+00 0. -1.
<mgrwt>
<rscale>  1 0.12815220E+03</rscale>
<asrwt>0</asrwt>
<pdfrwt beam="1">  1       21 0.44162166E-01 0.12815220E+03</pdfrwt>
<pdfrwt beam="2">  1       21 0.33368810E-02 0.12815220E+03</pdfrwt>
<totfact> 0.25928855E+06</totfact>
</mgrwt>
</event>
<event>
 6    1  0.4180481E-002  0.1272420E+03  0.7546771E-02  0.1231606E+00
         21   -1    0    0  503  502  0.00000000000E+00  0.00000000000E+00  0.39361080961E+03  0.39361080961E+03  0.00000000000E+00 0.  1.
         21   -1    0    0  504  503 -0.00000000000E+00 -0.00000000000E+00 -0.17420933237E+02  0.17420933237E+02  0.00000000000E+00 0.  1.
         25    2    1    2    0    0 -0.21088176883E+02  0.11131702753E+02  0.36097675042E+03  0.38274631883E+03  0.12498761630E+03 0.  0.
          5    1    3    3  501    0  0.18996834612E+02 -0.42998867261E+02  0.23735609979E+03  0.24196634150E+03  0.10000000000E+00 0. -1.
         -5    1    3    3    0  501 -0.40085011495E+02  0.54130570014E+02  0.12362065062E+03  0.14077997733E+03  0.10000000000E+00 0. -1.
         21    1    1    2  504  502  0.21088176883E+02 -0.11131702753E+02  0.15213125961E+02  0.28285424019E+02  0.00000000000E+00 0.  1.
<mgrwt>
<rscale>  1 0.12724201E+03</rscale>
<asrwt>0</asrwt>
<pdfrwt beam="1">  1       21 0.60555503E-01 0.12724201E+03</pdfrwt>
<pdfrwt beam="2">  1       21 0.26801439E-02 0.12724201E+03</pdfrwt>
<totfact> 0.19292945E+06</totfact>
</mgrwt>
</event>
<event>
 6    1  0.4180481E-002  0.1358171E+03  0.7546771E-02  0.1219071E+00
         21   -1    0    0  504  502  0.00000000000E+00  0.00000000000E+00  0.35674353077E+03  0.35674353077E+03  0.00000000000E+00 0. -1.
         21   -1    0    0  502  503 -0.00000000000E+00 -0.00000000000E+00 -0.25148916800E+02  0.25148916800E+02  0.00000000000E+00 0. -1.
         25    2    1    2    0    0 -0.28759097498E+02 -0.44571411012E+02  0.22462616475E+03  0.26249418336E+03  0.12503034047E+03 0.  0.
          5    1    3    3  501    0 -0.10077911494E+02 -0.26425637418E+02 -0.72204221360E+01  0.29189434884E+02  0.10000000000E+00 0. -1.
         -5    1    3    3    0  501 -0.18681186004E+02 -0.18145773594E+02  0.23184658689E+03  0.23330474847E+03  0.10000000000E+00 0. -1.
         21    1    1    2  504  503  0.28759097498E+02  0.44571411012E+02  0.10696844922E+03  0.11939826421E+03  0.00000000000E+00 0. -1.
<mgrwt>
<rscale>  1 0.13581709E+03</rscale>
<asrwt>0</asrwt>
<pdfrwt beam="1">  1       21 0.54883617E-01 0.13581709E+03</pdfrwt>
<pdfrwt beam="2">  1       21 0.38690644E-02 0.13581709E+03</pdfrwt>
<totfact> 0.12988293E+06</totfact>
</mgrwt>
</event>
<event>
 6    1  0.4180481E-002  0.1268210E+03  0.7546771E-02  0.1232251E+00
         21   -1    0    0  504  502  0.00000000000E+00  0.00000000000E+00  0.28388057420E+03  0.28388057420E+03  0.00000000000E+00 0.  1.
         21   -1    0    0  502  503 -0.00000000000E+00 -0.00000000000E+00 -0.39282235334E+03  0.39282235334E+03  0.00000000000E+00 0. -1.
         25    2    1    2    0    0  0.12460002904E+02 -0.17445510436E+02  0.26939794402E+03  0.29775630383E+03  0.12499586682E+03 0.  0.
          5    1    3    3  501    0  0.11207876373E+02  0.38565346478E+02  0.21818808035E+03  0.22185344453E+03  0.10000000000E+00 0. -1.
         -5    1    3    3    0  501  0.12521265311E+01 -0.56010856914E+02  0.51209863665E+02  0.75902859298E+02  0.10000000000E+00 0. -1.
         21    1    1    2  504  503 -0.12460002904E+02  0.17445510436E+02 -0.37833972315E+03  0.37894662371E+03  0.00000000000E+00 0. -1.
<mgrwt>
<rscale>  1 0.12682099E+03</rscale>
<asrwt>0</asrwt>
<pdfrwt beam="1">  1       21 0.43673935E-01 0.12682099E+03</pdfrwt>
<pdfrwt beam="2">  1       21 0.60434208E-01 0.12682099E+03</pdfrwt>
<totfact> 0.13480796E+04</totfact>
</mgrwt>
</event>
<event>
 6    1  0.4180481E-002  0.1259402E+03  0.7546771E-02  0.1233607E+00
         21   -1    0    0  504  502  0.00000000000E+00  0.00000000000E+00  0.11087648848E+02  0.11087648848E+02  0.00000000000E+00 0. -1.
         21   -1    0    0  502  503 -0.00000000000E+00 -0.00000000000E+00 -0.64404046639E+03  0.64404046639E+03  0.00000000000E+00 0. -1.
         25    2    1    2    0    0 -0.77387907530E-01 -0.15527980398E+02 -0.35385375287E+03  0.37559741556E+03  0.12497926223E+03 0.  0.
          5    1    3    3  501    0 -0.58190473107E+01 -0.36398422810E+02 -0.35194205187E+03  0.35386709987E+03  0.10000000000E+00 0. -1.
         -5    1    3    3    0  501  0.57416594032E+01  0.20870442412E+02 -0.19117010009E+01  0.21730315688E+02  0.10000000000E+00 0. -1.
         21    1    1    2  504  503  0.77387907530E-01  0.15527980398E+02 -0.27909906467E+03  0.27953069968E+03  0.00000000000E+00 0. -1.
<mgrwt>
<rscale>  1 0.12594022E+03</rscale>
<asrwt>0</asrwt>
<pdfrwt beam="1">  1       21 0.17057918E-02 0.12594022E+03</pdfrwt>
<pdfrwt beam="2">  1       21 0.99083167E-01 0.12594022E+03</pdfrwt>
<totfact> 0.13408628E+06</totfact>
</mgrwt>
</event>
<event>
 6    1  0.4180481E-002  0.1273678E+03  0.7546771E-02  0.1231415E+00
         21   -1    0    0  503  502  0.00000000000E+00  0.00000000000E+00  0.13993214354E+02  0.13993214354E+02  0.00000000000E+00 0.  1.
         21   -1    0    0  504  503 -0.00000000000E+00 -0.00000000000E+00 -0.14465669708E+04  0.14465669708E+04  0.00000000000E+00 0.  1.
         25    2    1    2    0    0  0.14048126056E+02 -0.20023780198E+02 -0.27867502103E+03  0.30640222663E+03  0.12499702205E+03 0.  0.
          5    1    3    3  501    0  0.49142578665E+02 -0.12863577254E+01 -0.37138021894E+02  0.61610797951E+02  0.10000000000E+00 0.  1.
         -5    1    3    3    0  501 -0.35094452609E+02 -0.18737422472E+02 -0.24153699914E+03  0.24479142868E+03  0.10000000000E+00 0.  1.
         21    1    1    2  504  502 -0.14048126056E+02  0.20023780198E+02 -0.11538987354E+04  0.11541579585E+04  0.00000000000E+00 0.  1.
<mgrwt>
<rscale>  1 0.12736780E+03</rscale>
<asrwt>0</asrwt>
<pdfrwt beam="1">  1       21 0.21528031E-02 0.12736780E+03</pdfrwt>
<pdfrwt beam="2">  1       21 0.22254867E+00 0.12736780E+03</pdfrwt>
<totfact> 0.11069184E+05</totfact>
</mgrwt>
</event>
<event>
 6    1  0.4180481E-002  0.1301143E+03  0.7546771E-02  0.1227286E+00
         21   -1    0    0  503  502  0.00000000000E+00  0.00000000000E+00  0.23129637699E+03  0.23129637699E+03  0.00000000000E+00 0.  1.
         21   -1    0    0  504  503 -0.00000000000E+00 -0.00000000000E+00 -0.31517986791E+02  0.31517986791E+02  0.00000000000E+00 0.  1.
         25    2    1    2    0    0 -0.20600476269E+02  0.29630128516E+02  0.17860445461E+03  0.22097347844E+03  0.12500961093E+03 0.  0.
          5    1    3    3  501    0 -0.22544959923E+02  0.78260587346E+02  0.11126520492E+03  0.13788745620E+03  0.10000000000E+00 0.  1.
         -5    1    3    3    0  501  0.19444836548E+01 -0.48630458831E+02  0.67339249690E+02  0.83086022239E+02  0.10000000000E+00 0.  1.
         21    1    1    2  504  502  0.20600476269E+02 -0.29630128516E+02  0.21173935587E+02  0.41840885346E+02  0.00000000000E+00 0.  1.
<mgrwt>
<rscale>  1 0.13011428E+03</rscale>
<asrwt>0</asrwt>
<pdfrwt beam="1">  1       21 0.35584057E-01 0.13011428E+03</pdfrwt>
<pdfrwt beam="2">  1       21 0.48489212E-02 0.13011428E+03</pdfrwt>
<totfact> 0.21455595E+06</totfact>
</mgrwt>
</event>
<event>
 6    1  0.4180481E-002  0.2154989E+03  0.7546771E-02  0.1137284E+00
         21   -1    0    0  504  502  0.00000000000E+00  0.00000000000E+00  0.32073995214E+02  0.32073995214E+02  0.00000000000E+00 0. -1.
         21   -1    0    0  502  503 -0.00000000000E+00 -0.00000000000E+00 -0.19085636392E+04  0.19085636392E+04  0.00000000000E+00 0.  1.
         25    2    1    2    0    0 -0.17399534228E+03 -0.23236905131E+02 -0.40545323259E+03  0.45916456461E+03  0.12500176273E+03 0.  0.
          5    1    3    3  501    0 -0.15056081528E+03  0.10036422893E+01 -0.39672744010E+03  0.42433741071E+03  0.10000000000E+00 0.  1.
         -5    1    3    3    0  501 -0.23434526996E+02 -0.24240547420E+02 -0.87257924894E+01  0.34827153908E+02  0.10000000000E+00 0.  1.
         21    1    1    2  504  503  0.17399534228E+03  0.23236905131E+02 -0.14710364114E+04  0.14814730698E+04  0.00000000000E+00 0.  1.
<mgrwt>
<rscale>  1 0.21549889E+03</rscale>
<asrwt>0</asrwt>
<pdfrwt beam="1">  1       21 0.49344595E-02 0.21549889E+03</pdfrwt>
<pdfrwt beam="2">  1       21 0.29362525E+00 0.21549889E+03</pdfrwt>
<totfact> 0.99830253E+03</totfact>
</mgrwt>
</event>
<event>
 6    1  0.4180481E-002  0.1268497E+03  0.7546771E-02  0.1232207E+00
         21   -1    0    0  504  502  0.00000000000E+00  0.00000000000E+00  0.57176099710E+01  0.57176099710E+01  0.00000000000E+00 0. -1.
         21   -1    0    0  502  503 -0.00000000000E+00 -0.00000000000E+00 -0.97024340094E+03  0.97024340094E+03  0.00000000000E+00 0. -1.
         25    2    1    2    0    0 -0.10010356926E+02 -0.19103094749E+02 -0.85139464672E+03  0.86079247670E+03  0.12500283194E+03 0.  0.
          5    1    3    3  501    0  0.17166618715E+02 -0.48070109287E+02 -0.15341661587E+03  0.16168517628E+03  0.10000000000E+00 0. -1.
         -5    1    3    3    0  501 -0.27176975641E+02  0.28967014539E+02 -0.69797803085E+03  0.69910730041E+03  0.10000000000E+00 0. -1.
         21    1    1    2  504  503  0.10010356926E+02  0.19103094749E+02 -0.11313114425E+03  0.11516853422E+03  0.00000000000E+00 0. -1.
<mgrwt>
<rscale>  1 0.12684969E+03</rscale>
<asrwt>0</asrwt>
<pdfrwt beam="1">  1       21 0.87963174E-03 0.12684969E+03</pdfrwt>
<pdfrwt beam="2">  1       21 0.14926831E+00 0.12684969E+03</pdfrwt>
<totfact> 0.14039421E+06</totfact>
</mgrwt>
</event>
<event>
 6    1  0.4180481E-002  0.1301858E+03  0.7546771E-02  0.1227180E+00
         21   -1    0    0  504  502  0.00000000000E+00  0.00000000000E+00  0.21685199735E+03  0.21685199735E+03  0.00000000000E+00 0. -1.
         21   -1    0    0  502  503 -0.00000000000E+00 -0.00000000000E+00 -0.39019473073E+02  0.39019473073E+02  0.00000000000E+00 0. -1.
         25    2    1    2    0    0  0.34321299903E+02  0.12003348702E+02  0.17671891267E+03  0.21949466273E+03  0.12500520335E+03 0.  0.
          5    1    3    3  501    0  0.29326540678E+02  0.30206095673E+02  0.19115183401E+03  0.19573320579E+03  0.10000000000E+00 0.  1.
         -5    1    3    3    0  501  0.49947592252E+01 -0.18202746971E+02 -0.14432921345E+02  0.23761456933E+02  0.10000000000E+00 0.  1.
         21    1    1    2  504  503 -0.34321299903E+02 -0.12003348702E+02  0.11136116052E+01  0.36376807693E+02  0.00000000000E+00 0.  1.
<mgrwt>
<rscale>  1 0.13018576E+03</rscale>
<asrwt>0</asrwt>
<pdfrwt beam="1">  1       21 0.33361845E-01 0.13018576E+03</pdfrwt>
<pdfrwt beam="2">  1       21 0.60029960E-02 0.13018576E+03</pdfrwt>
<totfact> 0.16986133E+06</totfact>
</mgrwt>
</event>
<event>
 6    1  0.4180481E-002  0.1314014E+03  0.7546771E-02  0.1225391E+00
         21   -1    0    0  504  502  0.00000000000E+00  0.00000000000E+00  0.15494207367E+02  0.15494207367E+02  0.00000000000E+00 0. -1.
         21   -1    0    0  502  503 -0.00000000000E+00 -0.00000000000E+00 -0.48819086677E+03  0.48819086677E+03  0.00000000000E+00 0. -1.
         25    2    1    2    0    0  0.10910468436E+02  0.39026515105E+02 -0.39102490456E+03  0.41251280455E+03  0.12499692287E+03 0.  0.
          5    1    3    3  501    0  0.13458202445E+02 -0.27729778439E+02 -0.22961173893E+02  0.38435521745E+02  0.10000000000E+00 0.  1.
         -5    1    3    3    0  501 -0.25477340091E+01  0.66756293543E+02 -0.36806373067E+03  0.37407728281E+03  0.10000000000E+00 0.  1.
         21    1    1    2  504  503 -0.10910468436E+02 -0.39026515105E+02 -0.81671754843E+02  0.91172269588E+02  0.00000000000E+00 0. -1.
<mgrwt>
<rscale>  1 0.13140144E+03</rscale>
<asrwt>0</asrwt>
<pdfrwt beam="1">  1       21 0.23837241E-02 0.13140144E+03</pdfrwt>
<pdfrwt beam="2">  1       21 0.75106291E-01 0.13140144E+03</pdfrwt>
<totfact> 0.14651154E+06</totfact>
</mgrwt>
</event>
<event>
 6    1  0.4180481E-002  0.1311698E+03  0.7546771E-02  0.1225730E+00
         21   -1    0    0  504  502  0.00000000000E+00  0.00000000000E+00  0.34907816397E+03  0.34907816397E+03  0.00000000000E+00 0. -1.
         21   -1    0    0  502  503 -0.00000000000E+00 -0.00000000000E+00 -0.88597899650E+02  0.88597899650E+02  0.00000000000E+00 0. -1.
         25    2    1    2    0    0  0.21654382866E+02 -0.33344596396E+02  0.33137616980E+03  0.35639258548E+03  0.12499893866E+03 0.  0.
          5    1    3    3  501    0 -0.52344540995E+02 -0.15430858034E+02  0.15327828664E+03  0.16270312077E+03  0.10000000000E+00 0. -1.
         -5    1    3    3    0  501  0.73998923861E+02 -0.17913738362E+02  0.17809788315E+03  0.19368946471E+03  0.10000000000E+00 0. -1.
         21    1    1    2  504  503 -0.21654382866E+02  0.33344596396E+02 -0.70895905476E+02  0.81283478145E+02  0.00000000000E+00 0. -1.
<mgrwt>
<rscale>  1 0.13116977E+03</rscale>
<asrwt>0</asrwt>
<pdfrwt beam="1">  1       21 0.53704332E-01 0.13116977E+03</pdfrwt>
<pdfrwt beam="2">  1       21 0.13630446E-01 0.13116977E+03</pdfrwt>
<totfact> 0.15612873E+05</totfact>
</mgrwt>
</event>
<event>
 6    1  0.4180481E-002  0.1260158E+03  0.7546771E-02  0.1233490E+00
         21   -1    0    0  504  502  0.00000000000E+00  0.00000000000E+00  0.64513552644E+02  0.64513552644E+02  0.00000000000E+00 0.  1.
         21   -1    0    0  502  503 -0.00000000000E+00 -0.00000000000E+00 -0.11451648417E+03  0.11451648417E+03  0.00000000000E+00 0.  1.
         25    2    1    2    0    0  0.15338149090E+02 -0.42214820651E+01  0.56673579851E+00  0.12601710460E+03  0.12500763870E+03 0.  0.
          5    1    3    3  501    0  0.58852423590E+02 -0.26976898579E+02  0.27121002343E+02  0.70192019400E+02  0.10000000000E+00 0. -1.
         -5    1    3    3    0  501 -0.43514274500E+02  0.22755416514E+02 -0.26554266545E+02  0.55825085201E+02  0.10000000000E+00 0. -1.
         21    1    1    2  504  503 -0.15338149090E+02  0.42214820651E+01 -0.50569667320E+02  0.53012932207E+02  0.00000000000E+00 0. -1.
<mgrwt>
<rscale>  1 0.12601583E+03</rscale>
<asrwt>0</asrwt>
<pdfrwt beam="1">  1       21 0.99251621E-02 0.12601583E+03</pdfrwt>
<pdfrwt beam="2">  1       21 0.17617920E-01 0.12601583E+03</pdfrwt>
<totfact> 0.23815805E+06</totfact>
</mgrwt>
</event>
<event>
 6    1  0.4180481E-002  0.1259199E+03  0.7546771E-02  0.1233639E+00
         21   -1    0    0  503  502  0.00000000000E+00  0.00000000000E+00  0.10695298018E+03  0.10695298018E+03  0.00000000000E+00 0. -1.
         21   -1    0    0  504  503 -0.00000000000E+00 -0.00000000000E+00 -0.47388128117E+02  0.47388128117E+02  0.00000000000E+00 0. -1.
         25    2    1    2    0    0 -0.14672466228E+02 -0.42122026614E+01  0.59022268958E+02  0.13906634765E+03  0.12499118729E+03 0.  0.
          5    1    3    3  501    0 -0.38375183655E+00  0.44440318697E+02 -0.17085715232E+02  0.47613242448E+02  0.10000000000E+00 0.  1.
         -5    1    3    3    0  501 -0.14288714391E+02 -0.48652521359E+02  0.76107984190E+02  0.91453105201E+02  0.10000000000E+00 0.  1.
         21    1    1    2  504  502  0.14672466228E+02  0.42122026614E+01  0.54258310575E+00  0.15274760649E+02  0.00000000000E+00 0. -1.
<mgrwt>
<rscale>  1 0.12591990E+03</rscale>
<asrwt>0</asrwt>
<pdfrwt beam="1">  1       21 0.16454305E-01 0.12591990E+03</pdfrwt>
<pdfrwt beam="2">  1       21 0.72904813E-02 0.12591990E+03</pdfrwt>
<totfact> 0.45989455E+06</totfact>
</mgrwt>
</event>
<event>
 6    1  0.4180481E-002  0.1262996E+03  0.7546771E-02  0.1233052E+00
         21   -1    0    0  504  502  0.00000000000E+00  0.00000000000E+00  0.86861481469E+02  0.86861481469E+02  0.00000000000E+00 0. -1.
         21   -1    0    0  502  503 -0.00000000000E+00 -0.00000000000E+00 -0.70742670615E+02  0.70742670615E+02  0.00000000000E+00 0. -1.
         25    2    1    2    0    0  0.17562991383E+02  0.11321382535E+01  0.35727518435E+02  0.13125568313E+03  0.12506741533E+03 0.  0.
          5    1    3    3  501    0 -0.22212259790E+02 -0.21244291421E+00 -0.39973321500E+02  0.45730799782E+02  0.10000000000E+00 0.  1.
         -5    1    3    3    0  501  0.39775251173E+02  0.13445811677E+01  0.75700839935E+02  0.85524883346E+02  0.10000000000E+00 0.  1.
         21    1    1    2  504  503 -0.17562991383E+02 -0.11321382535E+01 -0.19608707581E+02  0.26348468956E+02  0.00000000000E+00 0. -1.
<mgrwt>
<rscale>  1 0.12629964E+03</rscale>
<asrwt>0</asrwt>
<pdfrwt beam="1">  1       21 0.13363305E-01 0.12629964E+03</pdfrwt>
<pdfrwt beam="2">  1       21 0.10883488E-01 0.12629964E+03</pdfrwt>
<totfact> 0.33375782E+06</totfact>
</mgrwt>
</event>
<event>
 6    1  0.4180481E-002  0.1299390E+03  0.7546771E-02  0.1227546E+00
         21   -1    0    0  503  502  0.00000000000E+00  0.00000000000E+00  0.13376294729E+04  0.13376294729E+04  0.00000000000E+00 0. -1.
         21   -1    0    0  504  503 -0.00000000000E+00 -0.00000000000E+00 -0.51146316414E+01  0.51146316414E+01  0.00000000000E+00 0. -1.
         25    2    1    2    0    0 -0.35089782417E+02 -0.52611667633E+01  0.10511840426E+04  0.10591846029E+04  0.12500063546E+03 0.  0.
          5    1    3    3  501    0 -0.12191253822E+02 -0.28418218088E+02  0.60310457595E+02  0.67775977192E+02  0.10000000000E+00 0. -1.
         -5    1    3    3    0  501 -0.22898528595E+02  0.23157051325E+02  0.99087358498E+03  0.99140862567E+03  0.10000000000E+00 0. -1.
         21    1    1    2  504  502  0.35089782417E+02  0.52611667633E+01  0.28133079872E+03  0.28355950172E+03  0.00000000000E+00 0.  1.
<mgrwt>
<rscale>  1 0.12993895E+03</rscale>
<asrwt>0</asrwt>
<pdfrwt beam="1">  1       21 0.20578887E+00 0.12993895E+03</pdfrwt>
<pdfrwt beam="2">  1       21 0.78686747E-03 0.12993895E+03</pdfrwt>
<totfact> 0.69213623E+05</totfact>
</mgrwt>
</event>
<event>
 6    1  0.4180481E-002  0.1274820E+03  0.7546771E-02  0.1231241E+00
         21   -1    0    0  504  502  0.00000000000E+00  0.00000000000E+00  0.33151714739E+02  0.33151714739E+02  0.00000000000E+00 0. -1.
         21   -1    0    0  502  503 -0.00000000000E+00 -0.00000000000E+00 -0.18745557412E+03  0.18745557412E+03  0.00000000000E+00 0. -1.
         25    2    1    2    0    0  0.22179779603E+02 -0.11630142619E+02 -0.10441460390E+03  0.16478488607E+03  0.12499778530E+03 0.  0.
          5    1    3    3  501    0  0.54713288772E+02  0.16258531817E+02 -0.10761445930E+03  0.12181447235E+03  0.10000000000E+00 0.  1.
         -5    1    3    3    0  501 -0.32533509169E+02 -0.27888674436E+02  0.31998553951E+01  0.42970413719E+02  0.10000000000E+00 0.  1.
         21    1    1    2  504  503 -0.22179779603E+02  0.11630142619E+02 -0.49889255482E+02  0.55822402789E+02  0.00000000000E+00 0. -1.
<mgrwt>
<rscale>  1 0.12748196E+03</rscale>
<asrwt>0</asrwt>
<pdfrwt beam="1">  1       21 0.51002638E-02 0.12748196E+03</pdfrwt>
<pdfrwt beam="2">  1       21 0.28839319E-01 0.12748196E+03</pdfrwt>
<totfact> 0.29635356E+06</totfact>
</mgrwt>
</event>
<event>
 6    1  0.4180481E-002  0.1259455E+03  0.7546771E-02  0.1233599E+00
         21   -1    0    0  504  502  0.00000000000E+00  0.00000000000E+00  0.27865303050E+03  0.27865303050E+03  0.00000000000E+00 0.  1.
         21   -1    0    0  502  503 -0.00000000000E+00 -0.00000000000E+00 -0.19405279704E+02  0.19405279704E+02  0.00000000000E+00 0.  1.
         25    2    1    2    0    0  0.15749585342E+01 -0.15356521498E+02  0.25033802745E+03  0.28023455030E+03  0.12499588773E+03 0.  0.
          5    1    3    3  501    0  0.61156962745E+02 -0.24066490104E+02  0.12904586279E+03  0.14481786748E+03  0.10000000000E+00 0.  1.
         -5    1    3    3    0  501 -0.59582004211E+02  0.87099686056E+01  0.12129216466E+03  0.13541668282E+03  0.10000000000E+00 0.  1.
         21    1    1    2  504  503 -0.15749585342E+01  0.15356521498E+02  0.89097233424E+01  0.17823759899E+02  0.00000000000E+00 0.  1.
<mgrwt>
<rscale>  1 0.12594552E+03</rscale>
<asrwt>0</asrwt>
<pdfrwt beam="1">  1       21 0.42869694E-01 0.12594552E+03</pdfrwt>
<pdfrwt beam="2">  1       21 0.29854279E-02 0.12594552E+03</pdfrwt>
<totfact> 0.33038742E+06</totfact>
</mgrwt>
</event>
<event>
 6    1  0.4180481E-002  0.1340893E+03  0.7546771E-02  0.1221511E+00
         21   -1    0    0  503  502  0.00000000000E+00  0.00000000000E+00  0.66184706222E+02  0.66184706222E+02  0.00000000000E+00 0.  1.
         21   -1    0    0  504  503 -0.00000000000E+00 -0.00000000000E+00 -0.17265568468E+03  0.17265568468E+03  0.00000000000E+00 0.  1.
         25    2    1    2    0    0  0.16022754359E+02  0.45713253605E+02 -0.14471918182E+02  0.13486800368E+03  0.12503404252E+03 0.  0.
          5    1    3    3  501    0  0.30421698474E+02  0.41054339930E+01  0.48879216120E+02  0.57719339002E+02  0.10000000000E+00 0.  1.
         -5    1    3    3    0  501 -0.14398944114E+02  0.41607819612E+02 -0.63351134302E+02  0.77148664679E+02  0.10000000000E+00 0.  1.
         21    1    1    2  504  502 -0.16022754359E+02 -0.45713253605E+02 -0.91999060272E+02  0.10397238722E+03  0.00000000000E+00 0.  1.
<mgrwt>
<rscale>  1 0.13408931E+03</rscale>
<asrwt>0</asrwt>
<pdfrwt beam="1">  1       21 0.10182263E-01 0.13408931E+03</pdfrwt>
<pdfrwt beam="2">  1       21 0.26562413E-01 0.13408931E+03</pdfrwt>
<totfact> 0.10609332E+06</totfact>
</mgrwt>
</event>
<event>
 6    1  0.4180481E-002  0.1286701E+03  0.7546771E-02  0.1229443E+00
         21   -1    0    0  504  502  0.00000000000E+00  0.00000000000E+00  0.49984933578E+01  0.49984933578E+01  0.00000000000E+00 0.  1.
         21   -1    0    0  502  503 -0.00000000000E+00 -0.00000000000E+00 -0.17689817209E+04  0.17689817209E+04  0.00000000000E+00 0.  1.
         25    2    1    2    0    0 -0.10385587414E+02  0.28667547980E+02 -0.86865653289E+03  0.87813448039E+03  0.12500521902E+03 0.  0.
          5    1    3    3  501    0  0.12276279206E+02 -0.36726175420E+02 -0.58022543913E+03  0.58151619858E+03  0.10000000000E+00 0.  1.
         -5    1    3    3    0  501 -0.22661866620E+02  0.65393723399E+02 -0.28843109376E+03  0.29661828182E+03  0.10000000000E+00 0.  1.
         21    1    1    2  504  503  0.10385587414E+02 -0.28667547980E+02 -0.89532669470E+03  0.89584573391E+03  0.00000000000E+00 0.  1.
<mgrwt>
<rscale>  1 0.12867010E+03</rscale>
<asrwt>0</asrwt>
<pdfrwt beam="1">  1       21 0.76899851E-03 0.12867010E+03</pdfrwt>
<pdfrwt beam="2">  1       21 0.27215120E+00 0.12867010E+03</pdfrwt>
<totfact> 0.29367849E+05</totfact>
</mgrwt>
</event>
<event>
 6    1  0.4180481E-002  0.1270669E+03  0.7546771E-02  0.1231874E+00
         21   -1    0    0  503  502  0.00000000000E+00  0.00000000000E+00  0.23051899702E+02  0.23051899702E+02  0.00000000000E+00 0. -1.
         21   -1    0    0  504  503 -0.00000000000E+00 -0.00000000000E+00 -0.27588086012E+03  0.27588086012E+03  0.00000000000E+00 0. -1.
         25    2    1    2    0    0  0.15506537015E+02 -0.16716515739E+02 -0.16536928521E+03  0.20854974495E+03  0.12500440409E+03 0.  0.
          5    1    3    3  501    0 -0.37673816691E+02 -0.40122224322E+02 -0.33458917737E+02  0.64409770413E+02  0.10000000000E+00 0.  1.
         -5    1    3    3    0  501  0.53180353705E+02  0.23405708584E+02 -0.13191036747E+03  0.14413997454E+03  0.10000000000E+00 0.  1.
         21    1    1    2  504  502 -0.15506537015E+02  0.16716515739E+02 -0.87459675208E+02  0.90383014865E+02  0.00000000000E+00 0. -1.
<mgrwt>
<rscale>  1 0.12706689E+03</rscale>
<asrwt>0</asrwt>
<pdfrwt beam="1">  1       21 0.35464460E-02 0.12706689E+03</pdfrwt>
<pdfrwt beam="2">  1       21 0.42443211E-01 0.12706689E+03</pdfrwt>
<totfact> 0.25402388E+06</totfact>
</mgrwt>
</event>
<event>
 6    1  0.4180481E-002  0.1354850E+03  0.7546771E-02  0.1219537E+00
         21   -1    0    0  503  502  0.00000000000E+00  0.00000000000E+00  0.38934878982E+03  0.38934878982E+03  0.00000000000E+00 0. -1.
         21   -1    0    0  504  503 -0.00000000000E+00 -0.00000000000E+00 -0.23166334498E+02  0.23166334498E+02  0.00000000000E+00 0. -1.
         25    2    1    2    0    0 -0.45857534130E+02  0.25093914703E+02  0.23432986456E+03  0.27067816269E+03  0.12499425724E+03 0.  0.
          5    1    3    3  501    0 -0.67851660628E+02  0.69122147284E+00  0.52203821834E+02  0.85612935069E+02  0.10000000000E+00 0. -1.
         -5    1    3    3    0  501  0.21994126498E+02  0.24402693230E+02  0.18212604272E+03  0.18506522762E+03  0.10000000000E+00 0. -1.
         21    1    1    2  504  502  0.45857534130E+02 -0.25093914703E+02  0.13185259076E+03  0.14183696162E+03  0.00000000000E+00 0. -1.
<mgrwt>
<rscale>  1 0.13548499E+03</rscale>
<asrwt>0</asrwt>
<pdfrwt beam="1">  1       21 0.59899809E-01 0.13548499E+03</pdfrwt>
<pdfrwt beam="2">  1       21 0.35640517E-02 0.13548499E+03</pdfrwt>
<totfact> 0.12373212E+06</totfact>
</mgrwt>
</event>
<event>
 6    1  0.4180481E-002  0.1394374E+03  0.7546771E-02  0.1214088E+00
         21   -1    0    0  503  502  0.00000000000E+00  0.00000000000E+00  0.69847582705E+03  0.69847582705E+03  0.00000000000E+00 0. -1.
         21   -1    0    0  504  503 -0.00000000000E+00 -0.00000000000E+00 -0.24159410143E+02  0.24159410143E+02  0.00000000000E+00 0. -1.
         25    2    1    2    0    0  0.41436762381E+02  0.45831259405E+02  0.63331299473E+03  0.64848140893E+03  0.12500111529E+03 0.  0.
          5    1    3    3  501    0 -0.26439515470E+02  0.63228185048E+02  0.34858296769E+03  0.35525617056E+03  0.10000000000E+00 0. -1.
         -5    1    3    3    0  501  0.67876277850E+02 -0.17396925643E+02  0.28473002704E+03  0.29322523837E+03  0.10000000000E+00 0. -1.
         21    1    1    2  504  502 -0.41436762381E+02 -0.45831259405E+02  0.41003422177E+02  0.74153828259E+02  0.00000000000E+00 0. -1.
<mgrwt>
<rscale>  1 0.13943740E+03</rscale>
<asrwt>0</asrwt>
<pdfrwt beam="1">  1       21 0.10745780E+00 0.13943740E+03</pdfrwt>
<pdfrwt beam="2">  1       21 0.37168329E-02 0.13943740E+03</pdfrwt>
<totfact> 0.31061157E+05</totfact>
</mgrwt>
</event>
<event>
 6    1  0.4180481E-002  0.1262102E+03  0.7546771E-02  0.1233190E+00
         21   -1    0    0  503  502  0.00000000000E+00  0.00000000000E+00  0.44990582023E+02  0.44990582023E+02  0.00000000000E+00 0.  1.
         21   -1    0    0  504  503 -0.00000000000E+00 -0.00000000000E+00 -0.11607248007E+03  0.11607248007E+03  0.00000000000E+00 0.  1.
         25    2    1    2    0    0  0.14530695019E+02  0.98587448892E+01 -0.67555738817E+02  0.14315301610E+03  0.12498268769E+03 0.  0.
          5    1    3    3  501    0  0.44758590673E+02 -0.37975826094E+02 -0.63422454593E+02  0.86417084845E+02  0.10000000000E+00 0. -1.
         -5    1    3    3    0  501 -0.30227895653E+02  0.47834570983E+02 -0.41332842245E+01  0.56735931254E+02  0.10000000000E+00 0. -1.
         21    1    1    2  504  502 -0.14530695019E+02 -0.98587448892E+01 -0.35261592262E+01  0.17910045992E+02  0.00000000000E+00 0.  1.
<mgrwt>
<rscale>  1 0.12621017E+03</rscale>
<asrwt>0</asrwt>
<pdfrwt beam="1">  1       21 0.69216281E-02 0.12621017E+03</pdfrwt>
<pdfrwt beam="2">  1       21 0.17857304E-01 0.12621017E+03</pdfrwt>
<totfact> 0.43306913E+06</totfact>
</mgrwt>
</event>
<event>
 6    1  0.4180481E-002  0.1259639E+03  0.7546771E-02  0.1233570E+00
         21   -1    0    0  504  502  0.00000000000E+00  0.00000000000E+00  0.36141660017E+03  0.36141660017E+03  0.00000000000E+00 0.  1.
         21   -1    0    0  502  503 -0.00000000000E+00 -0.00000000000E+00 -0.24464239218E+02  0.24464239218E+02  0.00000000000E+00 0.  1.
         25    2    1    2    0    0  0.97608886188E+01 -0.12157280660E+02  0.34574869724E+03  0.36797972346E+03  0.12499536315E+03 0.  0.
          5    1    3    3  501    0  0.64545493869E+02  0.70588160430E+01  0.14238279958E+03  0.15648903885E+03  0.10000000000E+00 0.  1.
         -5    1    3    3    0  501 -0.54784605250E+02 -0.19216096703E+02  0.20336589766E+03  0.21149068461E+03  0.10000000000E+00 0.  1.
         21    1    1    2  504  503 -0.97608886188E+01  0.12157280660E+02 -0.87963362864E+01  0.17901115936E+02  0.00000000000E+00 0.  1.
<mgrwt>
<rscale>  1 0.12596394E+03</rscale>
<asrwt>0</asrwt>
<pdfrwt beam="1">  1       21 0.55602550E-01 0.12596394E+03</pdfrwt>
<pdfrwt beam="2">  1       21 0.37637294E-02 0.12596394E+03</pdfrwt>
<totfact> 0.13219360E+06</totfact>
</mgrwt>
</event>
<event>
 6    1  0.4180481E-002  0.1275197E+03  0.7546771E-02  0.1231183E+00
         21   -1    0    0  504  502  0.00000000000E+00  0.00000000000E+00  0.23209792166E+02  0.23209792166E+02  0.00000000000E+00 0.  1.
         21   -1    0    0  502  503 -0.00000000000E+00 -0.00000000000E+00 -0.99219993561E+03  0.99219993561E+03  0.00000000000E+00 0.  1.
         25    2    1    2    0    0  0.25107596648E+02 -0.24142922414E+01 -0.15362477164E+03  0.19965430502E+03  0.12500020334E+03 0.  0.
          5    1    3    3  501    0 -0.23078128314E+02 -0.48587238481E+02 -0.37005570752E+02  0.65289677717E+02  0.10000000000E+00 0.  1.
         -5    1    3    3    0  501  0.48185724962E+02  0.46172946240E+02 -0.11661920089E+03  0.13436462731E+03  0.10000000000E+00 0.  1.
         21    1    1    2  504  503 -0.25107596648E+02  0.24142922414E+01 -0.81536537180E+03  0.81575542275E+03  0.00000000000E+00 0.  1.
<mgrwt>
<rscale>  1 0.12751969E+03</rscale>
<asrwt>0</asrwt>
<pdfrwt beam="1">  1       21 0.35707371E-02 0.12751969E+03</pdfrwt>
<pdfrwt beam="2">  1       21 0.15264615E+00 0.12751969E+03</pdfrwt>
<totfact> 0.13932730E+05</totfact>
</mgrwt>
</event>
<event>
 6    1  0.4180481E-002  0.1280925E+03  0.7546771E-02  0.1230314E+00
         21   -1    0    0  503  502  0.00000000000E+00  0.00000000000E+00  0.25798884135E+02  0.25798884135E+02  0.00000000000E+00 0.  1.
         21   -1    0    0  504  503 -0.00000000000E+00 -0.00000000000E+00 -0.11224458120E+04  0.11224458120E+04  0.00000000000E+00 0. -1.
         25    2    1    2    0    0 -0.51622816629E+01  0.27500354013E+02 -0.13466423385E+03  0.18585515847E+03  0.12499906171E+03 0.  0.
          5    1    3    3  501    0 -0.26188358022E+02  0.28898111606E+02 -0.15301835838E+03  0.15790997103E+03  0.10000000000E+00 0. -1.
         -5    1    3    3    0  501  0.21026076359E+02 -0.13977575924E+01  0.18354124533E+02  0.27945187434E+02  0.10000000000E+00 0. -1.
         21    1    1    2  504  502  0.51622816629E+01 -0.27500354013E+02 -0.96198269405E+03  0.96238953770E+03  0.00000000000E+00 0. -1.
<mgrwt>
<rscale>  1 0.12809248E+03</rscale>
<asrwt>0</asrwt>
<pdfrwt beam="1">  1       21 0.39690586E-02 0.12809248E+03</pdfrwt>
<pdfrwt beam="2">  1       21 0.17268399E+00 0.12809248E+03</pdfrwt>
<totfact> 0.84199735E+04</totfact>
</mgrwt>
</event>
<event>
 6    1  0.4180481E-002  0.1413588E+03  0.7546771E-02  0.1211512E+00
         21   -1    0    0  504  502  0.00000000000E+00  0.00000000000E+00  0.10852672013E+03  0.10852672013E+03  0.00000000000E+00 0. -1.
         21   -1    0    0  502  503 -0.00000000000E+00 -0.00000000000E+00 -0.13146939470E+03  0.13146939470E+03  0.00000000000E+00 0. -1.
         25    2    1    2    0    0  0.34300653565E+02 -0.56401263266E+02  0.41926427214E+02  0.14744538442E+03  0.12499871501E+03 0.  0.
          5    1    3    3  501    0 -0.39239482010E+02  0.79266512885E+01 -0.25087090485E+01  0.40110751304E+02  0.10000000000E+00 0. -1.
         -5    1    3    3    0  501  0.73540135576E+02 -0.64327914554E+02  0.44435136262E+02  0.10733463312E+03  0.10000000000E+00 0. -1.
         21    1    1    2  504  503 -0.34300653565E+02  0.56401263266E+02 -0.64869101779E+02  0.92550730406E+02  0.00000000000E+00 0. -1.
<mgrwt>
<rscale>  1 0.14135882E+03</rscale>
<asrwt>0</asrwt>
<pdfrwt beam="1">  1       21 0.16696418E-01 0.14135882E+03</pdfrwt>
<pdfrwt beam="2">  1       21 0.20226061E-01 0.14135882E+03</pdfrwt>
<totfact> 0.73181244E+05</totfact>
</mgrwt>
</event>
<event>
 6    1  0.4180481E-002  0.1441701E+03  0.7546771E-02  0.1207825E+00
         21   -1    0    0  503  502  0.00000000000E+00  0.00000000000E+00  0.30870865602E+03  0.30870865602E+03  0.00000000000E+00 0.  1.
         21   -1    0    0  504  503 -0.00000000000E+00 -0.00000000000E+00 -0.84007753943E+02  0.84007753943E+02  0.00000000000E+00 0.  1.
         25    2    1    2    0    0 -0.71810961945E+02 -0.12786801297E+01  0.27121169005E+03  0.30714946145E+03  0.12500624613E+03 0.  0.
          5    1    3    3  501    0 -0.74268864932E+02  0.49588124397E+02  0.13633585519E+03  0.16297951341E+03  0.10000000000E+00 0.  1.
         -5    1    3    3    0  501  0.24579029870E+01 -0.50866804527E+02  0.13487583486E+03  0.14416994805E+03  0.10000000000E+00 0.  1.
         21    1    1    2  504  502  0.71810961945E+02  0.12786801297E+01 -0.46510787980E+02  0.85566948507E+02  0.00000000000E+00 0.  1.
<mgrwt>
<rscale>  1 0.14417008E+03</rscale>
<asrwt>0</asrwt>
<pdfrwt beam="1">  1       21 0.47493639E-01 0.14417008E+03</pdfrwt>
<pdfrwt beam="2">  1       21 0.12924270E-01 0.14417008E+03</pdfrwt>
<totfact> 0.22064856E+05</totfact>
</mgrwt>
</event>
<event>
 6    1  0.4180481E-002  0.1286885E+03  0.7546771E-02  0.1229415E+00
         21   -1    0    0  504  502  0.00000000000E+00  0.00000000000E+00  0.75017324984E+02  0.75017324984E+02  0.00000000000E+00 0.  1.
         21   -1    0    0  502  503 -0.00000000000E+00 -0.00000000000E+00 -0.95696963288E+02  0.95696963288E+02  0.00000000000E+00 0.  1.
         25    2    1    2    0    0  0.22807202459E+02  0.20392530696E+02  0.77880198539E+01  0.12892396220E+03  0.12499884393E+03 0.  0.
          5    1    3    3  501    0  0.74190398708E+02  0.62153262048E+01 -0.31214342151E+01  0.74515762707E+02  0.10000000000E+00 0.  1.
         -5    1    3    3    0  501 -0.51383196249E+02  0.14177204491E+02  0.10909454069E+02  0.54408199493E+02  0.10000000000E+00 0.  1.
         21    1    1    2  504  503 -0.22807202459E+02 -0.20392530696E+02 -0.28467658158E+02  0.41790326072E+02  0.00000000000E+00 0.  1.
<mgrwt>
<rscale>  1 0.12868852E+03</rscale>
<asrwt>0</asrwt>
<pdfrwt beam="1">  1       21 0.11541127E-01 0.12868852E+03</pdfrwt>
<pdfrwt beam="2">  1       21 0.14722610E-01 0.12868852E+03</pdfrwt>
<totfact> 0.25317325E+06</totfact>
</mgrwt>
</event>
<event>
 6    1  0.4180481E-002  0.1268895E+03  0.7546771E-02  0.1232146E+00
         21   -1    0    0  504  502  0.00000000000E+00  0.00000000000E+00  0.40184442691E+02  0.40184442691E+02  0.00000000000E+00 0.  1.
         21   -1    0    0  502  503 -0.00000000000E+00 -0.00000000000E+00 -0.16709163746E+03  0.16709163746E+03  0.00000000000E+00 0.  1.
         25    2    1    2    0    0 -0.73556740798E+01 -0.20560236684E+02 -0.66955032491E+02  0.14347097820E+03  0.12499646369E+03 0.  0.
          5    1    3    3  501    0  0.18712875285E+02 -0.47016921218E+02 -0.87460026179E+02  0.10104468695E+03  0.10000000000E+00 0.  1.
         -5    1    3    3    0  501 -0.26068549365E+02  0.26456684535E+02  0.20504993688E+02  0.42426291243E+02  0.10000000000E+00 0.  1.
         21    1    1    2  504  503  0.73556740798E+01  0.20560236684E+02 -0.59952162277E+02  0.63805101954E+02  0.00000000000E+00 0.  1.
<mgrwt>
<rscale>  1 0.12688950E+03</rscale>
<asrwt>0</asrwt>
<pdfrwt beam="1">  1       21 0.61822220E-02 0.12688950E+03</pdfrwt>
<pdfrwt beam="2">  1       21 0.25706406E-01 0.12688950E+03</pdfrwt>
<totfact> 0.26659644E+06</totfact>
</mgrwt>
</event>
<event>
 6    1  0.4180481E-002  0.1366703E+03  0.7546771E-02  0.1217881E+00
         21   -1    0    0  503  502  0.00000000000E+00  0.00000000000E+00  0.66559592010E+03  0.66559592010E+03  0.00000000000E+00 0. -1.
         21   -1    0    0  504  503 -0.00000000000E+00 -0.00000000000E+00 -0.14045809909E+02  0.14045809909E+02  0.00000000000E+00 0. -1.
         25    2    1    2    0    0 -0.42387471695E+02 -0.35467932847E+02  0.42434806113E+03  0.44581392347E+03  0.12499642135E+03 0.  0.
          5    1    3    3  501    0  0.31208105539E+02 -0.11270345864E+02  0.32732363042E+02  0.46608841839E+02  0.10000000000E+00 0.  1.
         -5    1    3    3    0  501 -0.73595577234E+02 -0.24197586983E+02  0.39161569809E+03  0.39920508163E+03  0.10000000000E+00 0.  1.
         21    1    1    2  504  502  0.42387471695E+02  0.35467932847E+02  0.22720204905E+03  0.23382780654E+03  0.00000000000E+00 0. -1.
<mgrwt>
<rscale>  1 0.13667032E+03</rscale>
<asrwt>0</asrwt>
<pdfrwt beam="1">  1       21 0.10239935E+00 0.13667032E+03</pdfrwt>
<pdfrwt beam="2">  1       21 0.21608944E-02 0.13667032E+03</pdfrwt>
<totfact> 0.84756924E+05</totfact>
</mgrwt>
</event>
<event>
 6    1  0.4180481E-002  0.1266477E+03  0.7546771E-02  0.1232517E+00
         21   -1    0    0  504  502  0.00000000000E+00  0.00000000000E+00  0.20310970719E+03  0.20310970719E+03  0.00000000000E+00 0.  1.
         21   -1    0    0  502  503 -0.00000000000E+00 -0.00000000000E+00 -0.30157381876E+02  0.30157381876E+02  0.00000000000E+00 0.  1.
         25    2    1    2    0    0 -0.14120658048E+02  0.14676933942E+02  0.17102046961E+03  0.21280890146E+03  0.12499928856E+03 0.  0.
          5    1    3    3  501    0 -0.43273161301E+02  0.20701221174E+02  0.99248408809E+01  0.48985911379E+02  0.10000000000E+00 0.  1.
         -5    1    3    3    0  501  0.29152503253E+02 -0.60242872311E+01  0.16109562873E+03  0.16382299008E+03  0.10000000000E+00 0.  1.
         21    1    1    2  504  503  0.14120658048E+02 -0.14676933942E+02  0.19318557008E+01  0.20458187606E+02  0.00000000000E+00 0.  1.
<mgrwt>
<rscale>  1 0.12664765E+03</rscale>
<asrwt>0</asrwt>
<pdfrwt beam="1">  1       21 0.31247646E-01 0.12664765E+03</pdfrwt>
<pdfrwt beam="2">  1       21 0.46395973E-02 0.12664765E+03</pdfrwt>
<totfact> 0.29748737E+06</totfact>
</mgrwt>
</event>
<event>
 6    1  0.4180481E-002  0.2332032E+03  0.7546771E-02  0.1124405E+00
         21   -1    0    0  503  502  0.00000000000E+00  0.00000000000E+00  0.56474518403E+02  0.56474518403E+02  0.00000000000E+00 0. -1.
         21   -1    0    0  504  503 -0.00000000000E+00 -0.00000000000E+00 -0.82361660750E+03  0.82361660750E+03  0.00000000000E+00 0. -1.
         25    2    1    2    0    0  0.10649057187E+03 -0.16558528532E+03 -0.38224671711E+03  0.44776812630E+03  0.12500005429E+03 0.  0.
          5    1    3    3  501    0  0.76826597827E+02 -0.17679007060E+03 -0.27427953007E+03  0.33524069832E+03  0.10000000000E+00 0. -1.
         -5    1    3    3    0  501  0.29663974044E+02  0.11204785277E+02 -0.10796718704E+03  0.11252742798E+03  0.10000000000E+00 0. -1.
         21    1    1    2  504  502 -0.10649057187E+03  0.16558528532E+03 -0.38489537198E+03  0.43232299960E+03  0.00000000000E+00 0. -1.
<mgrwt>
<rscale>  1 0.23320322E+03</rscale>
<asrwt>0</asrwt>
<pdfrwt beam="1">  1       21 0.86883879E-02 0.23320322E+03</pdfrwt>
<pdfrwt beam="2">  1       21 0.12671024E+00 0.23320322E+03</pdfrwt>
<totfact> 0.46911048E+04</totfact>
</mgrwt>
</event>
<event>
 6    1  0.4180481E-002  0.1259854E+03  0.7546771E-02  0.1233537E+00
         21   -1    0    0  503  502  0.00000000000E+00  0.00000000000E+00  0.29506666777E+03  0.29506666777E+03  0.00000000000E+00 0. -1.
         21   -1    0    0  504  503 -0.00000000000E+00 -0.00000000000E+00 -0.33577922960E+02  0.33577922960E+02  0.00000000000E+00 0. -1.
         25    2    1    2    0    0 -0.46899623942E+00  0.15679157622E+02  0.27839931774E+03  0.30557895790E+03  0.12500505370E+03 0.  0.
          5    1    3    3  501    0  0.26354986282E+02 -0.40104179627E+02  0.51520396294E+02  0.70408037608E+02  0.10000000000E+00 0.  1.
         -5    1    3    3    0  501 -0.26823982521E+02  0.55783337249E+02  0.22687892145E+03  0.23517092029E+03  0.10000000000E+00 0.  1.
         21    1    1    2  504  502  0.46899623942E+00 -0.15679157622E+02 -0.16910572930E+02  0.23065632833E+02  0.00000000000E+00 0. -1.
<mgrwt>
<rscale>  1 0.12598539E+03</rscale>
<asrwt>0</asrwt>
<pdfrwt beam="1">  1       21 0.45394870E-01 0.12598539E+03</pdfrwt>
<pdfrwt beam="2">  1       21 0.51658345E-02 0.12598539E+03</pdfrwt>
<totfact> 0.11845724E+06</totfact>
</mgrwt>
</event>
<event>
 6    1  0.4180481E-002  0.1269094E+03  0.7546771E-02  0.1232115E+00
         21   -1    0    0  504  502  0.00000000000E+00  0.00000000000E+00  0.39977784751E+03  0.39977784751E+03  0.00000000000E+00 0. -1.
         21   -1    0    0  502  503 -0.00000000000E+00 -0.00000000000E+00 -0.14892692602E+02  0.14892692602E+02  0.00000000000E+00 0. -1.
         25    2    1    2    0    0  0.66707718860E+01  0.20874986149E+02  0.35890399664E+03  0.38068105895E+03  0.12500290237E+03 0.  0.
          5    1    3    3  501    0 -0.21308092781E+02  0.58960413364E+02  0.10401027547E+03  0.12144345419E+03  0.10000000000E+00 0.  1.
         -5    1    3    3    0  501  0.27978864667E+02 -0.38085427215E+02  0.25489372116E+03  0.25923760476E+03  0.10000000000E+00 0.  1.
         21    1    1    2  504  503 -0.66707718860E+01 -0.20874986149E+02  0.25981158270E+02  0.33989481157E+02  0.00000000000E+00 0. -1.
<mgrwt>
<rscale>  1 0.12690938E+03</rscale>
<asrwt>0</asrwt>
<pdfrwt beam="1">  1       21 0.61504276E-01 0.12690938E+03</pdfrwt>
<pdfrwt beam="2">  1       21 0.22911838E-02 0.12690938E+03</pdfrwt>
<totfact> 0.24085540E+06</totfact>
</mgrwt>
</event>
<event>
 6    1  0.4180481E-002  0.1364860E+03  0.7546771E-02  0.1218137E+00
         21   -1    0    0  504  502  0.00000000000E+00  0.00000000000E+00  0.59750348207E+02  0.59750348207E+02  0.00000000000E+00 0.  1.
         21   -1    0    0  502  503 -0.00000000000E+00 -0.00000000000E+00 -0.48745269406E+03  0.48745269406E+03  0.00000000000E+00 0.  1.
         25    2    1    2    0    0  0.10771412791E+02  0.53736760766E+02 -0.22520521844E+02  0.13833145693E+03  0.12499902112E+03 0.  0.
          5    1    3    3  501    0  0.31755778126E+02  0.46033144269E+02 -0.67767897949E+02  0.87863404260E+02  0.10000000000E+00 0.  1.
         -5    1    3    3    0  501 -0.20984365335E+02  0.77036164977E+01  0.45247376105E+02  0.50468052668E+02  0.10000000000E+00 0.  1.
         21    1    1    2  504  503 -0.10771412791E+02 -0.53736760766E+02 -0.40518182401E+03  0.40887158534E+03  0.00000000000E+00 0.  1.
<mgrwt>
<rscale>  1 0.13648596E+03</rscale>
<asrwt>0</asrwt>
<pdfrwt beam="1">  1       21 0.91923616E-02 0.13648596E+03</pdfrwt>
<pdfrwt beam="2">  1       21 0.74992719E-01 0.13648596E+03</pdfrwt>
<totfact> 0.15253651E+05</totfact>
</mgrwt>
</event>
<event>
 6    1  0.4180481E-002  0.1502975E+03  0.7546771E-02  0.1200108E+00
         21   -1    0    0  503  502  0.00000000000E+00  0.00000000000E+00  0.30019038104E+03  0.30019038104E+03  0.00000000000E+00 0.  1.
         21   -1    0    0  504  503 -0.00000000000E+00 -0.00000000000E+00 -0.46453378993E+02  0.46453378993E+02  0.00000000000E+00 0.  1.
         25    2    1    2    0    0  0.55660560172E+02 -0.62176305570E+02  0.13862964238E+03  0.20446888468E+03  0.12500142448E+03 0.  0.
          5    1    3    3  501    0  0.56359944801E+02  0.24230193203E+02  0.76407185265E+02  0.97987823737E+02  0.10000000000E+00 0.  1.
         -5    1    3    3    0  501 -0.69938462876E+00 -0.86406498773E+02  0.62222457116E+02  0.10648106094E+03  0.10000000000E+00 0.  1.
         21    1    1    2  504  502 -0.55660560172E+02  0.62176305570E+02  0.11510735966E+03  0.14217487535E+03  0.00000000000E+00 0.  1.
<mgrwt>
<rscale>  1 0.15029753E+03</rscale>
<asrwt>0</asrwt>
<pdfrwt beam="1">  1       21 0.46183134E-01 0.15029753E+03</pdfrwt>
<pdfrwt beam="2">  1       21 0.71466739E-02 0.15029753E+03</pdfrwt>
<totfact> 0.65888306E+05</totfact>
</mgrwt>
</event>
<event>
 6    1  0.4180481E-002  0.1264767E+03  0.7546771E-02  0.1232779E+00
         21   -1    0    0  503  502  0.00000000000E+00  0.00000000000E+00  0.17985506341E+03  0.17985506341E+03  0.00000000000E+00 0. -1.
         21   -1    0    0  504  503 -0.00000000000E+00 -0.00000000000E+00 -0.39363426549E+02  0.39363426549E+02  0.00000000000E+00 0. -1.
         25    2    1    2    0    0  0.60076731562E+01 -0.18285119620E+02  0.15125544426E+03  0.19716634072E+03  0.12500367498E+03 0.  0.
          5    1    3    3  501    0  0.16541674602E+02  0.34412879969E+02  0.16683182050E+01  0.38218668109E+02  0.10000000000E+00 0.  1.
         -5    1    3    3    0  501 -0.10534001446E+02 -0.52697999589E+02  0.14958712606E+03  0.15894767262E+03  0.10000000000E+00 0.  1.
         21    1    1    2  504  502 -0.60076731562E+01  0.18285119620E+02 -0.10763807400E+02  0.22052149238E+02  0.00000000000E+00 0. -1.
<mgrwt>
<rscale>  1 0.12647670E+03</rscale>
<asrwt>0</asrwt>
<pdfrwt beam="1">  1       21 0.27670009E-01 0.12647670E+03</pdfrwt>
<pdfrwt beam="2">  1       21 0.60559119E-02 0.12647670E+03</pdfrwt>
<totfact> 0.24000184E+06</totfact>
</mgrwt>
</event>
<event>
 6    1  0.4180481E-002  0.1293740E+03  0.7546771E-02  0.1228388E+00
         21   -1    0    0  503  502  0.00000000000E+00  0.00000000000E+00  0.30211206918E+03  0.30211206918E+03  0.00000000000E+00 0. -1.
         21   -1    0    0  504  503 -0.00000000000E+00 -0.00000000000E+00 -0.26406193495E+02  0.26406193495E+02  0.00000000000E+00 0. -1.
         25    2    1    2    0    0  0.26977226933E+02  0.19592213147E+02  0.26251396588E+03  0.29266227191E+03  0.12500399005E+03 0.  0.
          5    1    3    3  501    0 -0.83545531496E+01 -0.40927346111E+02  0.34670845614E+02  0.54285575926E+02  0.10000000000E+00 0.  1.
         -5    1    3    3    0  501  0.35331780083E+02  0.60519559258E+02  0.22784312027E+03  0.23837669599E+03  0.10000000000E+00 0.  1.
         21    1    1    2  504  502 -0.26977226933E+02 -0.19592213147E+02  0.13191909797E+02  0.35855990756E+02  0.00000000000E+00 0. -1.
<mgrwt>
<rscale>  1 0.12937397E+03</rscale>
<asrwt>0</asrwt>
<pdfrwt beam="1">  1       21 0.46478777E-01 0.12937397E+03</pdfrwt>
<pdfrwt beam="2">  1       21 0.40624915E-02 0.12937397E+03</pdfrwt>
<totfact> 0.16878240E+06</totfact>
</mgrwt>
</event>
<event>
 6    1  0.4180481E-002  0.1381485E+03  0.7546771E-02  0.1215842E+00
         21   -1    0    0  504  502  0.00000000000E+00  0.00000000000E+00  0.95294697687E+03  0.95294697687E+03  0.00000000000E+00 0. -1.
         21   -1    0    0  502  503 -0.00000000000E+00 -0.00000000000E+00 -0.26218160299E+02  0.26218160299E+02  0.00000000000E+00 0.  1.
         25    2    1    2    0    0  0.52347228042E+02  0.26812292141E+02  0.90650429600E+03  0.91697058334E+03  0.12500352296E+03 0.  0.
          5    1    3    3  501    0  0.58632743178E+02  0.34645706758E+02  0.90407574656E+03  0.90663724228E+03  0.10000000000E+00 0. -1.
         -5    1    3    3    0  501 -0.62855151366E+01 -0.78334146169E+01  0.24285494390E+01  0.10333341060E+02  0.10000000000E+00 0. -1.
         21    1    1    2  504  503 -0.52347228042E+02 -0.26812292141E+02  0.20224520571E+02  0.62194553828E+02  0.00000000000E+00 0.  1.
<mgrwt>
<rscale>  1 0.13814851E+03</rscale>
<asrwt>0</asrwt>
<pdfrwt beam="1">  1       21 0.14660720E+00 0.13814851E+03</pdfrwt>
<pdfrwt beam="2">  1       21 0.40335639E-02 0.13814851E+03</pdfrwt>
<totfact> 0.12573078E+05</totfact>
</mgrwt>
</event>
<event>
 6    1  0.4180481E-002  0.1294631E+03  0.7546771E-02  0.1228255E+00
         21   -1    0    0  504  502  0.00000000000E+00  0.00000000000E+00  0.17103540302E+02  0.17103540302E+02  0.00000000000E+00 0.  1.
         21   -1    0    0  502  503 -0.00000000000E+00 -0.00000000000E+00 -0.16547102332E+04  0.16547102332E+04  0.00000000000E+00 0.  1.
         25    2    1    2    0    0 -0.24655703947E+02 -0.22964277730E+02 -0.23101120466E+03  0.26481479365E+03  0.12500174585E+03 0.  0.
          5    1    3    3  501    0 -0.65829180517E+02 -0.18127701874E+02 -0.20452041796E+03  0.21561703537E+03  0.10000000000E+00 0. -1.
         -5    1    3    3    0  501  0.41173476570E+02 -0.48365758553E+01 -0.26490786708E+02  0.49197758275E+02  0.10000000000E+00 0. -1.
         21    1    1    2  504  503  0.24655703947E+02  0.22964277730E+02 -0.14065954882E+04  0.14069989798E+04  0.00000000000E+00 0.  1.
<mgrwt>
<rscale>  1 0.12946312E+03</rscale>
<asrwt>0</asrwt>
<pdfrwt beam="1">  1       21 0.26313129E-02 0.12946312E+03</pdfrwt>
<pdfrwt beam="2">  1       21 0.25457090E+00 0.12946312E+03</pdfrwt>
<totfact> 0.51900364E+04</totfact>
</mgrwt>
</event>
<event>
 6    1  0.4180481E-002  0.1739411E+03  0.7546771E-02  0.1173799E+00
         21   -1    0    0  503  502  0.00000000000E+00  0.00000000000E+00  0.68301312323E+03  0.68301312323E+03  0.00000000000E+00 0. -1.
         21   -1    0    0  504  503 -0.00000000000E+00 -0.00000000000E+00 -0.97966639820E+02  0.97966639820E+02  0.00000000000E+00 0.  1.
         25    2    1    2    0    0  0.44150719400E+02 -0.11261553260E+03  0.62874948790E+03  0.65236601259E+03  0.12499580651E+03 0.  0.
          5    1    3    3  501    0  0.40218998489E+02  0.15643066938E+02  0.11489463259E+03  0.12273165843E+03  0.10000000000E+00 0.  1.
         -5    1    3    3    0  501  0.39317209113E+01 -0.12825859953E+03  0.51385485531E+03  0.52963435416E+03  0.10000000000E+00 0.  1.
         21    1    1    2  504  502 -0.44150719400E+02  0.11261553260E+03 -0.43703004490E+02  0.12861375046E+03  0.00000000000E+00 0.  1.
<mgrwt>
<rscale>  1 0.17394107E+03</rscale>
<asrwt>0</asrwt>
<pdfrwt beam="1">  1       21 0.10507894E+00 0.17394107E+03</pdfrwt>
<pdfrwt beam="2">  1       21 0.15071791E-01 0.17394107E+03</pdfrwt>
<totfact> 0.28673023E+04</totfact>
</mgrwt>
</event>
<event>
 6    1  0.4180481E-002  0.1862296E+03  0.7546771E-02  0.1161907E+00
         21   -1    0    0  503  502  0.00000000000E+00  0.00000000000E+00  0.81473820049E+02  0.81473820049E+02  0.00000000000E+00 0. -1.
         21   -1    0    0  504  503 -0.00000000000E+00 -0.00000000000E+00 -0.52476439896E+03  0.52476439896E+03  0.00000000000E+00 0. -1.
         25    2    1    2    0    0  0.12595558587E+03  0.56498196159E+02 -0.55065742563E+02  0.19420013905E+03  0.12499840887E+03 0.  0.
          5    1    3    3  501    0  0.13133908769E+01  0.22041434753E+02  0.31583639035E+02  0.38536814817E+02  0.10000000000E+00 0. -1.
         -5    1    3    3    0  501  0.12464219499E+03  0.34456761406E+02 -0.86649381598E+02  0.15566332423E+03  0.10000000000E+00 0. -1.
         21    1    1    2  504  502 -0.12595558587E+03 -0.56498196159E+02 -0.38822483635E+03  0.41203807996E+03  0.00000000000E+00 0. -1.
<mgrwt>
<rscale>  1 0.18622958E+03</rscale>
<asrwt>0</asrwt>
<pdfrwt beam="1">  1       21 0.12534434E-01 0.18622958E+03</pdfrwt>
<pdfrwt beam="2">  1       21 0.80732985E-01 0.18622958E+03</pdfrwt>
<totfact> 0.73325728E+04</totfact>
</mgrwt>
</event>
<event>
 6    1  0.4180481E-002  0.1268547E+03  0.7546771E-02  0.1232199E+00
         21   -1    0    0  504  502  0.00000000000E+00  0.00000000000E+00  0.12965527021E+03  0.12965527021E+03  0.00000000000E+00 0. -1.
         21   -1    0    0  502  503 -0.00000000000E+00 -0.00000000000E+00 -0.42460960335E+02  0.42460960335E+02  0.00000000000E+00 0. -1.
         25    2    1    2    0    0  0.85657733432E+01 -0.19751597047E+02  0.73782188958E+02  0.14675123406E+03  0.12501446010E+03 0.  0.
          5    1    3    3  501    0  0.32120423934E+02 -0.60700513994E+02  0.71966685945E+02  0.99476067065E+02  0.10000000000E+00 0. -1.
         -5    1    3    3    0  501 -0.23554650591E+02  0.40948916947E+02  0.18155030128E+01  0.47275166999E+02  0.10000000000E+00 0. -1.
         21    1    1    2  504  503 -0.85657733432E+01  0.19751597047E+02  0.13412120913E+02  0.25364996477E+02  0.00000000000E+00 0. -1.
<mgrwt>
<rscale>  1 0.12685469E+03</rscale>
<asrwt>0</asrwt>
<pdfrwt beam="1">  1       21 0.19946965E-01 0.12685469E+03</pdfrwt>
<pdfrwt beam="2">  1       21 0.65324555E-02 0.12685469E+03</pdfrwt>
<totfact> 0.39012808E+06</totfact>
</mgrwt>
</event>
<event>
 6    1  0.4180481E-002  0.1270245E+03  0.7546771E-02  0.1231939E+00
         21   -1    0    0  504  502  0.00000000000E+00  0.00000000000E+00  0.47922937665E+03  0.47922937665E+03  0.00000000000E+00 0.  1.
         21   -1    0    0  502  503 -0.00000000000E+00 -0.00000000000E+00 -0.21119434702E+02  0.21119434702E+02  0.00000000000E+00 0.  1.
         25    2    1    2    0    0 -0.11555533995E+02  0.19269652506E+02  0.46055144398E+03  0.47774768736E+03  0.12502147953E+03 0.  0.
          5    1    3    3  501    0 -0.25487919273E+02  0.62677007067E+02  0.15941000272E+03  0.17317505655E+03  0.10000000000E+00 0. -1.
         -5    1    3    3    0  501  0.13932385278E+02 -0.43407354562E+02  0.30114144126E+03  0.30457263080E+03  0.10000000000E+00 0. -1.
         21    1    1    2  504  503  0.11555533995E+02 -0.19269652506E+02 -0.24415020382E+01  0.22601123994E+02  0.00000000000E+00 0.  1.
<mgrwt>
<rscale>  1 0.12702449E+03</rscale>
<asrwt>0</asrwt>
<pdfrwt beam="1">  1       21 0.73727588E-01 0.12702449E+03</pdfrwt>
<pdfrwt beam="2">  1       21 0.32491442E-02 0.12702449E+03</pdfrwt>
<totfact> 0.91959570E+05</totfact>
</mgrwt>
</event>
<event>
 6    1  0.4180481E-002  0.1292252E+03  0.7546771E-02  0.1228610E+00
         21   -1    0    0  503  502  0.00000000000E+00  0.00000000000E+00  0.55770869704E+03  0.55770869704E+03  0.00000000000E+00 0.  1.
         21   -1    0    0  504  503 -0.00000000000E+00 -0.00000000000E+00 -0.55600921921E+02  0.55600921921E+02  0.00000000000E+00 0.  1.
         25    2    1    2    0    0 -0.27026783538E+02 -0.18543400258E+02  0.54455655567E+03  0.55967936917E+03  0.12499939694E+03 0.  0.
          5    1    3    3  501    0 -0.49014478336E+02 -0.62220048834E+02  0.37130744044E+03  0.37966166371E+03  0.10000000000E+00 0.  1.
         -5    1    3    3    0  501  0.21987694798E+02  0.43676648577E+02  0.17324911523E+03  0.18001770546E+03  0.10000000000E+00 0.  1.
         21    1    1    2  504  502  0.27026783538E+02  0.18543400258E+02 -0.42448780553E+02  0.53630249785E+02  0.00000000000E+00 0.  1.
<mgrwt>
<rscale>  1 0.12922521E+03</rscale>
<asrwt>0</asrwt>
<pdfrwt beam="1">  1       21 0.85801334E-01 0.12922521E+03</pdfrwt>
<pdfrwt beam="2">  1       21 0.85539884E-02 0.12922521E+03</pdfrwt>
<totfact> 0.12821892E+05</totfact>
</mgrwt>
</event>
<event>
 6    1  0.4180481E-002  0.1311566E+03  0.7546771E-02  0.1225750E+00
         21   -1    0    0  504  502  0.00000000000E+00  0.00000000000E+00  0.42155209608E+03  0.42155209608E+03  0.00000000000E+00 0.  1.
         21   -1    0    0  502  503 -0.00000000000E+00 -0.00000000000E+00 -0.17393883130E+02  0.17393883130E+02  0.00000000000E+00 0.  1.
         25    2    1    2    0    0  0.29962852594E+02 -0.26013297910E+02  0.32278523843E+03  0.34841407773E+03  0.12501038040E+03 0.  0.
          5    1    3    3  501    0  0.74357479589E+02  0.34311749640E+01  0.14758836722E+03  0.16529713812E+03  0.10000000000E+00 0.  1.
         -5    1    3    3    0  501 -0.44394626995E+02 -0.29444472874E+02  0.17519687122E+03  0.18311693961E+03  0.10000000000E+00 0.  1.
         21    1    1    2  504  503 -0.29962852594E+02  0.26013297910E+02  0.81372974512E+02  0.90531901475E+02  0.00000000000E+00 0.  1.
<mgrwt>
<rscale>  1 0.13115662E+03</rscale>
<asrwt>0</asrwt>
<pdfrwt beam="1">  1       21 0.64854161E-01 0.13115662E+03</pdfrwt>
<pdfrwt beam="2">  1       21 0.26759823E-02 0.13115662E+03</pdfrwt>
<totfact> 0.16712004E+06</totfact>
</mgrwt>
</event>
<event>
 6    1  0.4180481E-002  0.1294341E+03  0.7546771E-02  0.1228298E+00
         21   -1    0    0  504  502  0.00000000000E+00  0.00000000000E+00  0.30832950461E+02  0.30832950461E+02  0.00000000000E+00 0. -1.
         21   -1    0    0  502  503 -0.00000000000E+00 -0.00000000000E+00 -0.34025034702E+03  0.34025034702E+03  0.00000000000E+00 0. -1.
         25    2    1    2    0    0  0.29751047298E+02 -0.15539198058E+02 -0.11300467839E+03  0.17182329811E+03  0.12500638761E+03 0.  0.
          5    1    3    3  501    0  0.42867337145E+02  0.48115664016E+02 -0.56399659200E+02  0.85636775251E+02  0.10000000000E+00 0.  1.
         -5    1    3    3    0  501 -0.13116289846E+02 -0.63654862074E+02 -0.56605019195E+02  0.86186522862E+02  0.10000000000E+00 0.  1.
         21    1    1    2  504  503 -0.29751047298E+02  0.15539198058E+02 -0.19641271816E+03  0.19925999937E+03  0.00000000000E+00 0. -1.
<mgrwt>
<rscale>  1 0.12943411E+03</rscale>
<asrwt>0</asrwt>
<pdfrwt beam="1">  1       21 0.47435308E-02 0.12943411E+03</pdfrwt>
<pdfrwt beam="2">  1       21 0.52346208E-01 0.12943411E+03</pdfrwt>
<totfact> 0.10201880E+06</totfact>
</mgrwt>
</event>
<event>
 6    1  0.4180481E-002  0.1258999E+03  0.7546771E-02  0.1233670E+00
         21   -1    0    0  504  502  0.00000000000E+00  0.00000000000E+00  0.81251918966E+02  0.81251918966E+02  0.00000000000E+00 0.  1.
         21   -1    0    0  502  503 -0.00000000000E+00 -0.00000000000E+00 -0.61657135385E+02  0.61657135385E+02  0.00000000000E+00 0.  1.
         25    2    1    2    0    0 -0.36730382788E+01  0.14617451614E+02  0.21482032749E+02  0.12771949177E+03  0.12499451886E+03 0.  0.
          5    1    3    3  501    0  0.16944776702E+02  0.66041757374E+02 -0.31660465235E+00  0.68181738120E+02  0.10000000000E+00 0. -1.
         -5    1    3    3    0  501 -0.20617814981E+02 -0.51424305760E+02  0.21798637402E+02  0.59537753653E+02  0.10000000000E+00 0. -1.
         21    1    1    2  504  503  0.36730382788E+01 -0.14617451614E+02 -0.18872491687E+01  0.15189562578E+02  0.00000000000E+00 0.  1.
<mgrwt>
<rscale>  1 0.12589992E+03</rscale>
<asrwt>0</asrwt>
<pdfrwt beam="1">  1       21 0.12500295E-01 0.12589992E+03</pdfrwt>
<pdfrwt beam="2">  1       21 0.94857131E-02 0.12589992E+03</pdfrwt>
<totfact> 0.47805541E+06</totfact>
</mgrwt>
</event>
<event>
 6    1  0.4180481E-002  0.1262744E+03  0.7546771E-02  0.1233091E+00
         21   -1    0    0  504  502  0.00000000000E+00  0.00000000000E+00  0.11533115338E+03  0.11533115338E+03  0.00000000000E+00 0. -1.
         21   -1    0    0  502  503 -0.00000000000E+00 -0.00000000000E+00 -0.82043086125E+02  0.82043086125E+02  0.00000000000E+00 0. -1.
         25    2    1    2    0    0 -0.17685541181E+02 -0.22674599155E+01  0.78560051494E+02  0.14871756167E+03  0.12500924653E+03 0.  0.
          5    1    3    3  501    0 -0.30452023850E+02 -0.59665399128E+02  0.48324064995E+02  0.82598491919E+02  0.10000000000E+00 0. -1.
         -5    1    3    3    0  501  0.12766482669E+02  0.57397939212E+02  0.30235986500E+02  0.66119069754E+02  0.10000000000E+00 0. -1.
         21    1    1    2  504  503  0.17685541181E+02  0.22674599155E+01 -0.45271984236E+02  0.48656677836E+02  0.00000000000E+00 0. -1.
<mgrwt>
<rscale>  1 0.12627443E+03</rscale>
<asrwt>0</asrwt>
<pdfrwt beam="1">  1       21 0.17743254E-01 0.12627443E+03</pdfrwt>
<pdfrwt beam="2">  1       21 0.12622013E-01 0.12627443E+03</pdfrwt>
<totfact> 0.15393508E+06</totfact>
</mgrwt>
</event>
<event>
 6    1  0.4180481E-002  0.1360831E+03  0.7546771E-02  0.1218699E+00
         21   -1    0    0  504  502  0.00000000000E+00  0.00000000000E+00  0.55116781410E+03  0.55116781410E+03  0.00000000000E+00 0. -1.
         21   -1    0    0  502  503 -0.00000000000E+00 -0.00000000000E+00 -0.17411056624E+02  0.17411056624E+02  0.00000000000E+00 0. -1.
         25    2    1    2    0    0  0.52357213619E+02  0.12334257297E+02  0.43912714030E+03  0.45972954290E+03  0.12500078218E+03 0.  0.
          5    1    3    3  501    0  0.43977257698E+01 -0.51914391350E+02  0.22836874991E+03  0.23423650432E+03  0.10000000000E+00 0. -1.
         -5    1    3    3    0  501  0.47959487849E+02  0.64248648647E+02  0.21075839039E+03  0.22549303858E+03  0.10000000000E+00 0. -1.
         21    1    1    2  504  503 -0.52357213619E+02 -0.12334257297E+02  0.94629617173E+02  0.10884932782E+03  0.00000000000E+00 0. -1.
<mgrwt>
<rscale>  1 0.13608309E+03</rscale>
<asrwt>0</asrwt>
<pdfrwt beam="1">  1       21 0.84795035E-01 0.13608309E+03</pdfrwt>
<pdfrwt beam="2">  1       21 0.26786245E-02 0.13608309E+03</pdfrwt>
<totfact> 0.92375519E+05</totfact>
</mgrwt>
</event>
<event>
 6    1  0.4180481E-002  0.1405660E+03  0.7546771E-02  0.1212569E+00
         21   -1    0    0  503  502  0.00000000000E+00  0.00000000000E+00  0.98527529932E+03  0.98527529932E+03  0.00000000000E+00 0.  1.
         21   -1    0    0  504  503 -0.00000000000E+00 -0.00000000000E+00 -0.31986147561E+02  0.31986147561E+02  0.00000000000E+00 0.  1.
         25    2    1    2    0    0 -0.57362036322E+02  0.29038128222E+02  0.94145161957E+03  0.95188757389E+03  0.12500074093E+03 0.  0.
          5    1    3    3  501    0 -0.46063303222E+02 -0.34170377234E+02  0.68954670835E+03  0.69192782541E+03  0.10000000000E+00 0. -1.
         -5    1    3    3    0  501 -0.11298733099E+02  0.63208505455E+02  0.25190491122E+03  0.25995974848E+03  0.10000000000E+00 0. -1.
         21    1    1    2  504  502  0.57362036322E+02 -0.29038128222E+02  0.11837532189E+02  0.65373872991E+02  0.00000000000E+00 0.  1.
<mgrwt>
<rscale>  1 0.14056600E+03</rscale>
<asrwt>0</asrwt>
<pdfrwt beam="1">  1       21 0.15158079E+00 0.14056600E+03</pdfrwt>
<pdfrwt beam="2">  1       21 0.49209465E-02 0.14056600E+03</pdfrwt>
<totfact> 0.82574329E+04</totfact>
</mgrwt>
</event>
<event>
 6    1  0.4180481E-002  0.1315173E+03  0.7546771E-02  0.1225222E+00
         21   -1    0    0  504  502  0.00000000000E+00  0.00000000000E+00  0.50867055476E+03  0.50867055476E+03  0.00000000000E+00 0. -1.
         21   -1    0    0  502  503 -0.00000000000E+00 -0.00000000000E+00 -0.60901795252E+02  0.60901795252E+02  0.00000000000E+00 0. -1.
         25    2    1    2    0    0  0.12841732217E+02 -0.38780878069E+02  0.49205136854E+03  0.50932439525E+03  0.12501169433E+03 0.  0.
          5    1    3    3  501    0  0.49442151192E+02  0.20395487840E+02  0.12869886008E+03  0.13936968402E+03  0.10000000000E+00 0. -1.
         -5    1    3    3    0  501 -0.36600418975E+02 -0.59176365909E+02  0.36335250846E+03  0.36995471122E+03  0.10000000000E+00 0. -1.
         21    1    1    2  504  503 -0.12841732217E+02  0.38780878069E+02 -0.44282609036E+02  0.60247954763E+02  0.00000000000E+00 0. -1.
<mgrwt>
<rscale>  1 0.13151726E+03</rscale>
<asrwt>0</asrwt>
<pdfrwt beam="1">  1       21 0.78257006E-01 0.13151726E+03</pdfrwt>
<pdfrwt beam="2">  1       21 0.93695073E-02 0.13151726E+03</pdfrwt>
<totfact> 0.13447254E+05</totfact>
</mgrwt>
</event>
<event>
 6    1  0.4180481E-002  0.1352030E+03  0.7546771E-02  0.1219933E+00
         21   -1    0    0  504  502  0.00000000000E+00  0.00000000000E+00  0.26864561713E+03  0.26864561713E+03  0.00000000000E+00 0. -1.
         21   -1    0    0  502  503 -0.00000000000E+00 -0.00000000000E+00 -0.12919339545E+04  0.12919339545E+04  0.00000000000E+00 0.  1.
         25    2    1    2    0    0  0.41907370792E+02 -0.30006074798E+02  0.25108051272E+03  0.28516883060E+03  0.12499298312E+03 0.  0.
          5    1    3    3  501    0  0.22827170409E+01 -0.21516850748E+01 -0.14689625729E+02  0.15021173383E+02  0.10000000000E+00 0. -1.
         -5    1    3    3    0  501  0.39624653751E+02 -0.27854389723E+02  0.26577013845E+03  0.27014765722E+03  0.10000000000E+00 0. -1.
         21    1    1    2  504  503 -0.41907370792E+02  0.30006074798E+02 -0.12743688501E+04  0.12754107410E+04  0.00000000000E+00 0.  1.
<mgrwt>
<rscale>  1 0.13520295E+03</rscale>
<asrwt>0</asrwt>
<pdfrwt beam="1">  1       21 0.41330095E-01 0.13520295E+03</pdfrwt>
<pdfrwt beam="2">  1       21 0.19875907E+00 0.13520295E+03</pdfrwt>
<totfact> 0.83217145E+02</totfact>
</mgrwt>
</event>
<event>
 6    1  0.4180481E-002  0.1264029E+03  0.7546771E-02  0.1232893E+00
         21   -1    0    0  504  502  0.00000000000E+00  0.00000000000E+00  0.31915844020E+02  0.31915844020E+02  0.00000000000E+00 0.  1.
         21   -1    0    0  502  503 -0.00000000000E+00 -0.00000000000E+00 -0.16824029826E+03  0.16824029826E+03  0.00000000000E+00 0.  1.
         25    2    1    2    0    0  0.10707427512E+01 -0.18546256629E+02 -0.10786570297E+03  0.16617069468E+03  0.12503031539E+03 0.  0.
          5    1    3    3  501    0  0.26499192494E+02 -0.27713549045E+02  0.14395421310E+02  0.40957125854E+02  0.10000000000E+00 0. -1.
         -5    1    3    3    0  501 -0.25428449743E+02  0.91672924163E+01 -0.12226112428E+03  0.12521356882E+03  0.10000000000E+00 0. -1.
         21    1    1    2  504  503 -0.10707427512E+01  0.18546256629E+02 -0.28458751266E+02  0.33985447601E+02  0.00000000000E+00 0.  1.
<mgrwt>
<rscale>  1 0.12640289E+03</rscale>
<asrwt>0</asrwt>
<pdfrwt beam="1">  1       21 0.49101299E-02 0.12640289E+03</pdfrwt>
<pdfrwt beam="2">  1       21 0.25883123E-01 0.12640289E+03</pdfrwt>
<totfact> 0.38811007E+06</totfact>
</mgrwt>
</event>
<event>
 6    1  0.4180481E-002  0.1261824E+03  0.7546771E-02  0.1233233E+00
         21   -1    0    0  504  502  0.00000000000E+00  0.00000000000E+00  0.17171547441E+03  0.17171547441E+03  0.00000000000E+00 0. -1.
         21   -1    0    0  502  503 -0.00000000000E+00 -0.00000000000E+00 -0.31906948730E+02  0.31906948730E+02  0.00000000000E+00 0. -1.
         25    2    1    2    0    0 -0.11249750137E+02 -0.13140414998E+02  0.13672235022E+03  0.18605108672E+03  0.12499111343E+03 0.  0.
          5    1    3    3  501    0 -0.37231783277E+02  0.47017221604E+02  0.75003550329E+02  0.96033157687E+02  0.10000000000E+00 0. -1.
         -5    1    3    3    0  501  0.25982033140E+02 -0.60157636602E+02  0.61718799891E+02  0.90017929034E+02  0.10000000000E+00 0. -1.
         21    1    1    2  504  503  0.11249750137E+02  0.13140414998E+02  0.30861754560E+01  0.17571336415E+02  0.00000000000E+00 0. -1.
<mgrwt>
<rscale>  1 0.12618243E+03</rscale>
<asrwt>0</asrwt>
<pdfrwt beam="1">  1       21 0.26417765E-01 0.12618243E+03</pdfrwt>
<pdfrwt beam="2">  1       21 0.49087614E-02 0.12618243E+03</pdfrwt>
<totfact> 0.37348737E+06</totfact>
</mgrwt>
</event>
<event>
 6    1  0.4180481E-002  0.1440047E+03  0.7546771E-02  0.1208040E+00
         21   -1    0    0  503  502  0.00000000000E+00  0.00000000000E+00  0.94185173355E+03  0.94185173355E+03  0.00000000000E+00 0.  1.
         21   -1    0    0  504  503 -0.00000000000E+00 -0.00000000000E+00 -0.35355771046E+02  0.35355771046E+02  0.00000000000E+00 0.  1.
         25    2    1    2    0    0 -0.16243126416E+01  0.71473205495E+02  0.89289588725E+03  0.90443374874E+03  0.12500513148E+03 0.  0.
          5    1    3    3  501    0  0.12912190072E+02  0.96356863720E+02  0.43955168642E+03  0.45017448270E+03  0.10000000000E+00 0. -1.
         -5    1    3    3    0  501 -0.14536502714E+02 -0.24883658225E+02  0.45334420082E+03  0.45425926603E+03  0.10000000000E+00 0. -1.
         21    1    1    2  504  502  0.16243126416E+01 -0.71473205495E+02  0.13600075260E+02  0.72773755863E+02  0.00000000000E+00 0.  1.
<mgrwt>
<rscale>  1 0.14400465E+03</rscale>
<asrwt>0</asrwt>
<pdfrwt beam="1">  1       21 0.14490025E+00 0.14400465E+03</pdfrwt>
<pdfrwt beam="2">  1       21 0.54393501E-02 0.14400465E+03</pdfrwt>
<totfact> 0.78237865E+04</totfact>
</mgrwt>
</event>
<event>
 6    1  0.4180481E-002  0.1290927E+03  0.7546771E-02  0.1228808E+00
         21   -1    0    0  503  502  0.00000000000E+00  0.00000000000E+00  0.55222745804E+02  0.55222745804E+02  0.00000000000E+00 0. -1.
         21   -1    0    0  504  503 -0.00000000000E+00 -0.00000000000E+00 -0.18170417989E+03  0.18170417989E+03  0.00000000000E+00 0. -1.
         25    2    1    2    0    0 -0.21856705935E+02  0.23659045592E+02 -0.26365985566E+02  0.13175768559E+03  0.12500982555E+03 0.  0.
          5    1    3    3  501    0 -0.20260839196E+02  0.68138308070E+02  0.13086214957E+02  0.72281322992E+02  0.10000000000E+00 0.  1.
         -5    1    3    3    0  501 -0.15958667397E+01 -0.44479262478E+02 -0.39452200523E+02  0.59476362593E+02  0.10000000000E+00 0.  1.
         21    1    1    2  504  502  0.21856705935E+02 -0.23659045592E+02 -0.10011544852E+03  0.10516924011E+03  0.00000000000E+00 0. -1.
<mgrwt>
<rscale>  1 0.12909269E+03</rscale>
<asrwt>0</asrwt>
<pdfrwt beam="1">  1       21 0.84958070E-02 0.12909269E+03</pdfrwt>
<pdfrwt beam="2">  1       21 0.27954489E-01 0.12909269E+03</pdfrwt>
<totfact> 0.13185958E+06</totfact>
</mgrwt>
</event>
<event>
 6    1  0.4180481E-002  0.1405205E+03  0.7546771E-02  0.1212630E+00
         21   -1    0    0  504  502  0.00000000000E+00  0.00000000000E+00  0.24334005989E+03  0.24334005989E+03  0.00000000000E+00 0.  1.
         21   -1    0    0  502  503 -0.00000000000E+00 -0.00000000000E+00 -0.65781063525E+02  0.65781063525E+02  0.00000000000E+00 0.  1.
         25    2    1    2    0    0  0.62935160299E+02 -0.12632388187E+02  0.19706325254E+03  0.24203291550E+03  0.12500238018E+03 0.  0.
          5    1    3    3  501    0  0.50205704524E+02 -0.55868685204E+02  0.55290716049E+02  0.93268408555E+02  0.10000000000E+00 0.  1.
         -5    1    3    3    0  501  0.12729455776E+02  0.43236297017E+02  0.14177253649E+03  0.14876450694E+03  0.10000000000E+00 0.  1.
         21    1    1    2  504  503 -0.62935160299E+02  0.12632388187E+02 -0.19504256169E+02  0.67088207920E+02  0.00000000000E+00 0.  1.
<mgrwt>
<rscale>  1 0.14052048E+03</rscale>
<asrwt>0</asrwt>
<pdfrwt beam="1">  1       21 0.37436932E-01 0.14052048E+03</pdfrwt>
<pdfrwt beam="2">  1       21 0.10120164E-01 0.14052048E+03</pdfrwt>
<totfact> 0.55031932E+05</totfact>
</mgrwt>
</event>
<event>
 6    1  0.4180481E-002  0.1440584E+03  0.7546771E-02  0.1207970E+00
         21   -1    0    0  503  502  0.00000000000E+00  0.00000000000E+00  0.60431329070E+02  0.60431329070E+02  0.00000000000E+00 0. -1.
         21   -1    0    0  504  503 -0.00000000000E+00 -0.00000000000E+00 -0.30842194136E+03  0.30842194136E+03  0.00000000000E+00 0. -1.
         25    2    1    2    0    0  0.57313151163E+02  0.42927932767E+02 -0.40929542729E+02  0.14975993134E+03  0.12500081943E+03 0.  0.
          5    1    3    3  501    0  0.64881460284E+02  0.73024270280E+02  0.88444949766E+00  0.97687973617E+02  0.10000000000E+00 0.  1.
         -5    1    3    3    0  501 -0.75683091212E+01 -0.30096337513E+02 -0.41813992227E+02  0.52071957718E+02  0.10000000000E+00 0.  1.
         21    1    1    2  504  502 -0.57313151163E+02 -0.42927932767E+02 -0.20706106956E+03  0.21909333909E+03  0.00000000000E+00 0. -1.
<mgrwt>
<rscale>  1 0.14405835E+03</rscale>
<asrwt>0</asrwt>
<pdfrwt beam="1">  1       21 0.92971276E-02 0.14405835E+03</pdfrwt>
<pdfrwt beam="2">  1       21 0.47449529E-01 0.14405835E+03</pdfrwt>
<totfact> 0.39545878E+05</totfact>
</mgrwt>
</event>
<event>
 6    1  0.4180481E-002  0.1279881E+03  0.7546771E-02  0.1230472E+00
         21   -1    0    0  504  502  0.00000000000E+00  0.00000000000E+00  0.22361241580E+02  0.22361241580E+02  0.00000000000E+00 0. -1.
         21   -1    0    0  502  503 -0.00000000000E+00 -0.00000000000E+00 -0.27364772821E+03  0.27364772821E+03  0.00000000000E+00 0. -1.
         25    2    1    2    0    0  0.27517757474E+02  0.13224438678E+01 -0.19360135355E+03  0.23208283732E+03  0.12498793321E+03 0.  0.
          5    1    3    3  501    0 -0.38918321002E+02  0.31443011404E+02 -0.48520743704E+02  0.69696278562E+02  0.10000000000E+00 0.  1.
         -5    1    3    3    0  501  0.66436078476E+02 -0.30120567536E+02 -0.14508060984E+03  0.16238655875E+03  0.10000000000E+00 0.  1.
         21    1    1    2  504  503 -0.27517757474E+02 -0.13224438678E+01 -0.57685133080E+02  0.63926132470E+02  0.00000000000E+00 0. -1.
<mgrwt>
<rscale>  1 0.12798812E+03</rscale>
<asrwt>0</asrwt>
<pdfrwt beam="1">  1       21 0.34401910E-02 0.12798812E+03</pdfrwt>
<pdfrwt beam="2">  1       21 0.42099651E-01 0.12798812E+03</pdfrwt>
<totfact> 0.27157324E+06</totfact>
</mgrwt>
</event>
<event>
 6    1  0.4180481E-002  0.1372183E+03  0.7546771E-02  0.1217122E+00
         21   -1    0    0  504  502  0.00000000000E+00  0.00000000000E+00  0.82240393757E+02  0.82240393757E+02  0.00000000000E+00 0.  1.
         21   -1    0    0  502  503 -0.00000000000E+00 -0.00000000000E+00 -0.11558932257E+03  0.11558932257E+03  0.00000000000E+00 0.  1.
         25    2    1    2    0    0  0.56234296017E+02 -0.63234564776E+01 -0.13585997774E+02  0.13788928261E+03  0.12500637093E+03 0.  0.
          5    1    3    3  501    0  0.79899110030E+02 -0.64586397815E+01 -0.49989376610E+02  0.94469728407E+02  0.10000000000E+00 0. -1.
         -5    1    3    3    0  501 -0.23664814013E+02  0.13518330399E+00  0.36403378836E+02  0.43419554206E+02  0.10000000000E+00 0. -1.
         21    1    1    2  504  503 -0.56234296017E+02  0.63234564776E+01 -0.19762931036E+02  0.59940433711E+02  0.00000000000E+00 0.  1.
<mgrwt>
<rscale>  1 0.13721835E+03</rscale>
<asrwt>0</asrwt>
<pdfrwt beam="1">  1       21 0.12652368E-01 0.13721835E+03</pdfrwt>
<pdfrwt beam="2">  1       21 0.17782973E-01 0.13721835E+03</pdfrwt>
<totfact> 0.15290147E+06</totfact>
</mgrwt>
</event>
<event>
 6    1  0.4180481E-002  0.1740407E+03  0.7546771E-02  0.1173698E+00
         21   -1    0    0  504  502  0.00000000000E+00  0.00000000000E+00  0.30388550291E+02  0.30388550291E+02  0.00000000000E+00 0.  1.
         21   -1    0    0  502  503 -0.00000000000E+00 -0.00000000000E+00 -0.76001872647E+03  0.76001872647E+03  0.00000000000E+00 0.  1.
         25    2    1    2    0    0 -0.88984315858E+02 -0.82138227076E+02 -0.33351578061E+03  0.37619536096E+03  0.12500110749E+03 0.  0.
          5    1    3    3  501    0 -0.57793901375E+02 -0.14895399794E+02 -0.27598472046E+03  0.28236427518E+03  0.10000000000E+00 0.  1.
         -5    1    3    3    0  501 -0.31190414483E+02 -0.67242827282E+02 -0.57531060156E+02  0.93831085783E+02  0.10000000000E+00 0.  1.
         21    1    1    2  504  503  0.88984315858E+02  0.82138227076E+02 -0.39611439556E+03  0.41421191580E+03  0.00000000000E+00 0.  1.
<mgrwt>
<rscale>  1 0.17404072E+03</rscale>
<asrwt>0</asrwt>
<pdfrwt beam="1">  1       21 0.46751619E-02 0.17404072E+03</pdfrwt>
<pdfrwt beam="2">  1       21 0.11692595E+00 0.17404072E+03</pdfrwt>
<totfact> 0.17082839E+05</totfact>
</mgrwt>
</event>
<event>
 6    1  0.4180481E-002  0.1273736E+03  0.7546771E-02  0.1231406E+00
         21   -1    0    0  504  502  0.00000000000E+00  0.00000000000E+00  0.19506779284E+03  0.19506779284E+03  0.00000000000E+00 0. -1.
         21   -1    0    0  502  503 -0.00000000000E+00 -0.00000000000E+00 -0.45171811600E+02  0.45171811600E+02  0.00000000000E+00 0. -1.
         25    2    1    2    0    0  0.24458816233E+02  0.88472969904E+00  0.16725491179E+03  0.21023378988E+03  0.12500009781E+03 0.  0.
          5    1    3    3  501    0  0.11825221878E+02 -0.60626843335E+02  0.61016742525E+02  0.86824552251E+02  0.10000000000E+00 0.  1.
         -5    1    3    3    0  501  0.12633594354E+02  0.61511573034E+02  0.10623816926E+03  0.12340923763E+03  0.10000000000E+00 0.  1.
         21    1    1    2  504  503 -0.24458816233E+02 -0.88472969904E+00 -0.17358930544E+02  0.30005814566E+02  0.00000000000E+00 0. -1.
<mgrwt>
<rscale>  1 0.12737363E+03</rscale>
<asrwt>0</asrwt>
<pdfrwt beam="1">  1       21 0.30010429E-01 0.12737363E+03</pdfrwt>
<pdfrwt beam="2">  1       21 0.69495096E-02 0.12737363E+03</pdfrwt>
<totfact> 0.16249546E+06</totfact>
</mgrwt>
</event>
<event>
 6    1  0.4180481E-002  0.1272600E+03  0.7546771E-02  0.1231579E+00
         21   -1    0    0  503  502  0.00000000000E+00  0.00000000000E+00  0.14898093039E+02  0.14898093039E+02  0.00000000000E+00 0. -1.
         21   -1    0    0  504  503 -0.00000000000E+00 -0.00000000000E+00 -0.52261182460E+03  0.52261182460E+03  0.00000000000E+00 0. -1.
         25    2    1    2    0    0 -0.16001664209E+02 -0.17712497345E+02 -0.26875965178E+03  0.29736654783E+03  0.12500131008E+03 0.  0.
          5    1    3    3  501    0  0.40004960461E+02 -0.43305461688E+02 -0.84066748467E+02  0.10267905371E+03  0.10000000000E+00 0. -1.
         -5    1    3    3    0  501 -0.56006624670E+02  0.25592964343E+02 -0.18469290332E+03  0.19468749412E+03  0.10000000000E+00 0. -1.
         21    1    1    2  504  502  0.16001664209E+02  0.17712497345E+02 -0.23895407978E+03  0.24014336981E+03  0.00000000000E+00 0. -1.
<mgrwt>
<rscale>  1 0.12726002E+03</rscale>
<asrwt>0</asrwt>
<pdfrwt beam="1">  1       21 0.22920140E-02 0.12726002E+03</pdfrwt>
<pdfrwt beam="2">  1       21 0.80401830E-01 0.12726002E+03</pdfrwt>
<totfact> 0.13416413E+06</totfact>
</mgrwt>
</event>
<event>
 6    1  0.4180481E-002  0.1572576E+03  0.7546771E-02  0.1191828E+00
         21   -1    0    0  504  502  0.00000000000E+00  0.00000000000E+00  0.10426144948E+03  0.10426144948E+03  0.00000000000E+00 0. -1.
         21   -1    0    0  502  503 -0.00000000000E+00 -0.00000000000E+00 -0.16131708812E+03  0.16131708812E+03  0.00000000000E+00 0. -1.
         25    2    1    2    0    0  0.56376920219E+02 -0.76967830550E+02 -0.60045876460E+01  0.15737218899E+03  0.12501018647E+03 0.  0.
          5    1    3    3  501    0 -0.16347503485E+02 -0.72627320344E+02 -0.30586368762E+02  0.80482945303E+02  0.10000000000E+00 0. -1.
         -5    1    3    3    0  501  0.72724423704E+02 -0.43405102055E+01  0.24581781116E+02  0.76889243687E+02  0.10000000000E+00 0. -1.
         21    1    1    2  504  503 -0.56376920219E+02  0.76967830550E+02 -0.51051050995E+02  0.10820634861E+03  0.00000000000E+00 0. -1.
<mgrwt>
<rscale>  1 0.15725759E+03</rscale>
<asrwt>0</asrwt>
<pdfrwt beam="1">  1       21 0.16040223E-01 0.15725759E+03</pdfrwt>
<pdfrwt beam="2">  1       21 0.24818014E-01 0.15725759E+03</pdfrwt>
<totfact> 0.53593340E+05</totfact>
</mgrwt>
</event>
<event>
 6    1  0.4180481E-002  0.1262302E+03  0.7546771E-02  0.1233159E+00
         21   -1    0    0  504  502  0.00000000000E+00  0.00000000000E+00  0.84743795730E+03  0.84743795730E+03  0.00000000000E+00 0.  1.
         21   -1    0    0  502  503 -0.00000000000E+00 -0.00000000000E+00 -0.66261500937E+01  0.66261500937E+01  0.00000000000E+00 0.  1.
         25    2    1    2    0    0 -0.15497550829E+02  0.82806463055E+01  0.79571277439E+03  0.80566301292E+03  0.12500131152E+03 0.  0.
          5    1    3    3  501    0 -0.32498420016E+02  0.60031660881E+02  0.34656024182E+03  0.35321942022E+03  0.10000000000E+00 0.  1.
         -5    1    3    3    0  501  0.17000869187E+02 -0.51751014575E+02  0.44915253257E+03  0.45244359270E+03  0.10000000000E+00 0.  1.
         21    1    1    2  504  503  0.15497550829E+02 -0.82806463055E+01  0.45099032815E+02  0.48401094469E+02  0.00000000000E+00 0. -1.
<mgrwt>
<rscale>  1 0.12623023E+03</rscale>
<asrwt>0</asrwt>
<pdfrwt beam="1">  1       21 0.13037498E+00 0.12623023E+03</pdfrwt>
<pdfrwt beam="2">  1       21 0.10194084E-02 0.12623023E+03</pdfrwt>
<totfact> 0.15691250E+06</totfact>
</mgrwt>
</event>
<event>
 6    1  0.4180481E-002  0.1274984E+03  0.7546771E-02  0.1231216E+00
         21   -1    0    0  503  502  0.00000000000E+00  0.00000000000E+00  0.38206098520E+02  0.38206098520E+02  0.00000000000E+00 0. -1.
         21   -1    0    0  504  503 -0.00000000000E+00 -0.00000000000E+00 -0.16056152908E+03  0.16056152908E+03  0.00000000000E+00 0. -1.
         25    2    1    2    0    0  0.13468102751E+02  0.21193518627E+02 -0.83171284846E+02  0.15222783496E+03  0.12500118436E+03 0.  0.
          5    1    3    3  501    0  0.64044494766E+02  0.36715468839E+02 -0.56613624730E+02  0.93031368188E+02  0.10000000000E+00 0. -1.
         -5    1    3    3    0  501 -0.50576392015E+02 -0.15521950212E+02 -0.26557660117E+02  0.59196466774E+02  0.10000000000E+00 0. -1.
         21    1    1    2  504  502 -0.13468102751E+02 -0.21193518627E+02 -0.39184145715E+02  0.46539792640E+02  0.00000000000E+00 0. -1.
<mgrwt>
<rscale>  1 0.12749844E+03</rscale>
<asrwt>0</asrwt>
<pdfrwt beam="1">  1       21 0.58778613E-02 0.12749844E+03</pdfrwt>
<pdfrwt beam="2">  1       21 0.24701774E-01 0.12749844E+03</pdfrwt>
<totfact> 0.31320905E+06</totfact>
</mgrwt>
</event>
<event>
 6    1  0.4180481E-002  0.1353037E+03  0.7546771E-02  0.1219792E+00
         21   -1    0    0  503  502  0.00000000000E+00  0.00000000000E+00  0.41123378618E+02  0.41123378618E+02  0.00000000000E+00 0. -1.
         21   -1    0    0  504  503 -0.00000000000E+00 -0.00000000000E+00 -0.31089324270E+03  0.31089324270E+03  0.00000000000E+00 0.  1.
         25    2    1    2    0    0  0.25755870980E+02 -0.44927735585E+02 -0.84216912289E+02  0.15937248247E+03  0.12500093414E+03 0.  0.
          5    1    3    3  501    0 -0.16079009701E+02 -0.68518714567E+02 -0.86225617500E+02  0.11130236256E+03  0.10000000000E+00 0. -1.
         -5    1    3    3    0  501  0.41834880680E+02  0.23590978981E+02  0.20087052115E+01  0.48070119903E+02  0.10000000000E+00 0. -1.
         21    1    1    2  504  502 -0.25755870980E+02  0.44927735585E+02 -0.18555295179E+03  0.19264413885E+03  0.00000000000E+00 0.  1.
<mgrwt>
<rscale>  1 0.13530373E+03</rscale>
<asrwt>0</asrwt>
<pdfrwt beam="1">  1       21 0.63266737E-02 0.13530373E+03</pdfrwt>
<pdfrwt beam="2">  1       21 0.47829729E-01 0.13530373E+03</pdfrwt>
<totfact> 0.75583708E+05</totfact>
</mgrwt>
</event>
<event>
 6    1  0.4180481E-002  0.1259548E+03  0.7546771E-02  0.1233585E+00
         21   -1    0    0  503  502  0.00000000000E+00  0.00000000000E+00  0.73396659334E+03  0.73396659334E+03  0.00000000000E+00 0.  1.
         21   -1    0    0  504  503 -0.00000000000E+00 -0.00000000000E+00 -0.46122776450E+02  0.46122776450E+02  0.00000000000E+00 0. -1.
         25    2    1    2    0    0  0.34935770126E+01 -0.15084222482E+02  0.72707971082E+03  0.73790887405E+03  0.12499944669E+03 0.  0.
          5    1    3    3  501    0  0.46881776984E+02 -0.41303428950E+02  0.23289032181E+03  0.24112607957E+03  0.10000000000E+00 0. -1.
         -5    1    3    3    0  501 -0.43388199972E+02  0.26219206468E+02  0.49418938901E+03  0.49678279448E+03  0.10000000000E+00 0. -1.
         21    1    1    2  504  502 -0.34935770126E+01  0.15084222482E+02 -0.39235893929E+02  0.42180495737E+02  0.00000000000E+00 0. -1.
<mgrwt>
<rscale>  1 0.12595476E+03</rscale>
<asrwt>0</asrwt>
<pdfrwt beam="1">  1       21 0.11291793E+00 0.12595476E+03</pdfrwt>
<pdfrwt beam="2">  1       21 0.70958123E-02 0.12595476E+03</pdfrwt>
<totfact> 0.93343367E+04</totfact>
</mgrwt>
</event>
<event>
 6    1  0.4180481E-002  0.1339393E+03  0.7546771E-02  0.1221725E+00
         21   -1    0    0  504  502  0.00000000000E+00  0.00000000000E+00  0.36903136815E+02  0.36903136815E+02  0.00000000000E+00 0.  1.
         21   -1    0    0  502  503 -0.00000000000E+00 -0.00000000000E+00 -0.66904357384E+03  0.66904357384E+03  0.00000000000E+00 0. -1.
         25    2    1    2    0    0 -0.30180184577E+02  0.37497508027E+02 -0.89305890957E+02  0.16098226131E+03  0.12499135829E+03 0.  0.
          5    1    3    3  501    0 -0.61766743255E+02  0.24139965993E+02 -0.10800659344E+01  0.66325297383E+02  0.10000000000E+00 0.  1.
         -5    1    3    3    0  501  0.31586558678E+02  0.13357542034E+02 -0.88225825023E+02  0.94656963924E+02  0.10000000000E+00 0.  1.
         21    1    1    2  504  503  0.30180184577E+02 -0.37497508027E+02 -0.54283454607E+03  0.54496444935E+03  0.00000000000E+00 0. -1.
<mgrwt>
<rscale>  1 0.13393934E+03</rscale>
<asrwt>0</asrwt>
<pdfrwt beam="1">  1       21 0.56774054E-02 0.13393934E+03</pdfrwt>
<pdfrwt beam="2">  1       21 0.10292979E+00 0.13393934E+03</pdfrwt>
<totfact> 0.16950567E+05</totfact>
</mgrwt>
</event>
<event>
 6    1  0.4180481E-002  0.1465904E+03  0.7546771E-02  0.1204726E+00
         21   -1    0    0  504  502  0.00000000000E+00  0.00000000000E+00  0.63629860328E+02  0.63629860328E+02  0.00000000000E+00 0. -1.
         21   -1    0    0  502  503 -0.00000000000E+00 -0.00000000000E+00 -0.21413772786E+03  0.21413772786E+03  0.00000000000E+00 0. -1.
         25    2    1    2    0    0 -0.60841794329E+02  0.46498765756E+02 -0.57924995633E+02  0.15761998179E+03  0.12499957754E+03 0.  0.
          5    1    3    3  501    0  0.11584926685E+02  0.34157564715E+02  0.27198744576E+02  0.45174455836E+02  0.10000000000E+00 0. -1.
         -5    1    3    3    0  501 -0.72426721013E+02  0.12341201041E+02 -0.85123740209E+02  0.11244552595E+03  0.10000000000E+00 0. -1.
         21    1    1    2  504  503  0.60841794329E+02 -0.46498765756E+02 -0.92582871900E+02  0.12014760640E+03  0.00000000000E+00 0. -1.
<mgrwt>
<rscale>  1 0.14659043E+03</rscale>
<asrwt>0</asrwt>
<pdfrwt beam="1">  1       21 0.97892091E-02 0.14659043E+03</pdfrwt>
<pdfrwt beam="2">  1       21 0.32944266E-01 0.14659043E+03</pdfrwt>
<totfact> 0.75030412E+05</totfact>
</mgrwt>
</event>
<event>
 6    1  0.4180481E-002  0.1297814E+03  0.7546771E-02  0.1227780E+00
         21   -1    0    0  503  502  0.00000000000E+00  0.00000000000E+00  0.10452770816E+03  0.10452770816E+03  0.00000000000E+00 0.  1.
         21   -1    0    0  504  503 -0.00000000000E+00 -0.00000000000E+00 -0.23504932502E+03  0.23504932502E+03  0.00000000000E+00 0. -1.
         25    2    1    2    0    0  0.31516714504E+02 -0.15006523466E+02  0.62060700459E+02  0.14385670213E+03  0.12499888466E+03 0.  0.
          5    1    3    3  501    0 -0.10778697156E+02 -0.62189222480E+02  0.47089508634E+02  0.78747136636E+02  0.10000000000E+00 0. -1.
         -5    1    3    3    0  501  0.42295411661E+02  0.47182699014E+02  0.14971191826E+02  0.65109565491E+02  0.10000000000E+00 0. -1.
         21    1    1    2  504  502 -0.31516714504E+02  0.15006523466E+02 -0.19258231732E+03  0.19572033104E+03  0.00000000000E+00 0. -1.
<mgrwt>
<rscale>  1 0.12978143E+03</rscale>
<asrwt>0</asrwt>
<pdfrwt beam="1">  1       21 0.16081186E-01 0.12978143E+03</pdfrwt>
<pdfrwt beam="2">  1       21 0.36161434E-01 0.12978143E+03</pdfrwt>
<totfact> 0.25853985E+05</totfact>
</mgrwt>
</event>
<event>
 6    1  0.4180481E-002  0.1275177E+03  0.7546771E-02  0.1231186E+00
         21   -1    0    0  503  502  0.00000000000E+00  0.00000000000E+00  0.11473747648E+02  0.11473747648E+02  0.00000000000E+00 0.  1.
         21   -1    0    0  504  503 -0.00000000000E+00 -0.00000000000E+00 -0.80211750560E+03  0.80211750560E+03  0.00000000000E+00 0.  1.
         25    2    1    2    0    0  0.91138523197E+01 -0.23540398031E+02 -0.35484419064E+03  0.37706121361E+03  0.12499418598E+03 0.  0.
          5    1    3    3  501    0 -0.26373428552E+02  0.24707832930E+02 -0.27439719571E+03  0.27676680754E+03  0.10000000000E+00 0. -1.
         -5    1    3    3    0  501  0.35487280872E+02 -0.48248230961E+02 -0.80446994929E+02  0.10029440606E+03  0.10000000000E+00 0. -1.
         21    1    1    2  504  502 -0.91138523197E+01  0.23540398031E+02 -0.43579956731E+03  0.43653003965E+03  0.00000000000E+00 0.  1.
<mgrwt>
<rscale>  1 0.12751768E+03</rscale>
<asrwt>0</asrwt>
<pdfrwt beam="1">  1       21 0.17651914E-02 0.12751768E+03</pdfrwt>
<pdfrwt beam="2">  1       21 0.12340273E+00 0.12751768E+03</pdfrwt>
<totfact> 0.75060723E+05</totfact>
</mgrwt>
</event>
<event>
 6    1  0.4180481E-002  0.1265889E+03  0.7546771E-02  0.1232607E+00
         21   -1    0    0  503  502  0.00000000000E+00  0.00000000000E+00  0.20105622862E+01  0.20105622862E+01  0.00000000000E+00 0.  1.
         21   -1    0    0  504  503 -0.00000000000E+00 -0.00000000000E+00 -0.29233012651E+04  0.29233012651E+04  0.00000000000E+00 0.  1.
         25    2    1    2    0    0  0.13121141377E+02 -0.14840275190E+02 -0.21198302130E+04  0.21236065730E+04  0.12502938446E+03 0.  0.
          5    1    3    3  501    0  0.23437781084E+02 -0.40376695230E+02 -0.20041199053E+04  0.20046636156E+04  0.10000000000E+00 0. -1.
         -5    1    3    3    0  501 -0.10316639708E+02  0.25536420039E+02 -0.11571030768E+03  0.11894295736E+03  0.10000000000E+00 0. -1.
         21    1    1    2  504  502 -0.13121141377E+02  0.14840275190E+02 -0.80146048988E+03  0.80170525442E+03  0.00000000000E+00 0.  1.
<mgrwt>
<rscale>  1 0.12658888E+03</rscale>
<asrwt>0</asrwt>
<pdfrwt beam="1">  1       21 0.30931866E-03 0.12658888E+03</pdfrwt>
<pdfrwt beam="2">  1       21 0.44973664E+00 0.12658888E+03</pdfrwt>
<totfact> 0.10691385E+05</totfact>
</mgrwt>
</event>
<event>
 6    1  0.4180481E-002  0.1307455E+03  0.7546771E-02  0.1226354E+00
         21   -1    0    0  503  502  0.00000000000E+00  0.00000000000E+00  0.86380609991E+02  0.86380609991E+02  0.00000000000E+00 0. -1.
         21   -1    0    0  504  503 -0.00000000000E+00 -0.00000000000E+00 -0.22639155332E+04  0.22639155332E+04  0.00000000000E+00 0. -1.
         25    2    1    2    0    0 -0.19288649747E+02  0.33128862123E+02  0.36645477989E+02  0.13578391189E+03  0.12499922463E+03 0.  0.
          5    1    3    3  501    0  0.81198250846E+01 -0.45788424104E+02  0.19893876215E+02  0.50579518109E+02  0.10000000000E+00 0. -1.
         -5    1    3    3    0  501 -0.27408474832E+02  0.78917286227E+02  0.16751601775E+02  0.85204393784E+02  0.10000000000E+00 0. -1.
         21    1    1    2  504  502  0.19288649747E+02 -0.33128862123E+02 -0.22141804012E+04  0.22145122313E+04  0.00000000000E+00 0. -1.
<mgrwt>
<rscale>  1 0.13074548E+03</rscale>
<asrwt>0</asrwt>
<pdfrwt beam="1">  1       21 0.13289327E-01 0.13074548E+03</pdfrwt>
<pdfrwt beam="2">  1       21 0.34829465E+00 0.13074548E+03</pdfrwt>
<totfact> 0.97404621E+02</totfact>
</mgrwt>
</event>
<event>
 6    1  0.4180481E-002  0.1313504E+03  0.7546771E-02  0.1225466E+00
         21   -1    0    0  503  502  0.00000000000E+00  0.00000000000E+00  0.16591980239E+02  0.16591980239E+02  0.00000000000E+00 0.  1.
         21   -1    0    0  504  503 -0.00000000000E+00 -0.00000000000E+00 -0.46095955202E+03  0.46095955202E+03  0.00000000000E+00 0.  1.
         25    2    1    2    0    0 -0.39869685900E+02  0.61476355321E+01 -0.37459403353E+03  0.39695542865E+03  0.12500214840E+03 0.  0.
          5    1    3    3  501    0  0.22456828056E+02  0.40378697708E+02 -0.24323972819E+03  0.24758902182E+03  0.10000000000E+00 0. -1.
         -5    1    3    3    0  501 -0.62326513956E+02 -0.34231062176E+02 -0.13135430533E+03  0.14936640683E+03  0.10000000000E+00 0. -1.
         21    1    1    2  504  502  0.39869685900E+02 -0.61476355321E+01 -0.69773538254E+02  0.80596103609E+02  0.00000000000E+00 0.  1.
<mgrwt>
<rscale>  1 0.13135038E+03</rscale>
<asrwt>0</asrwt>
<pdfrwt beam="1">  1       21 0.25526125E-02 0.13135038E+03</pdfrwt>
<pdfrwt beam="2">  1       21 0.70916850E-01 0.13135038E+03</pdfrwt>
<totfact> 0.14868701E+06</totfact>
</mgrwt>
</event>
<event>
 6    1  0.4180481E-002  0.1491665E+03  0.7546771E-02  0.1201501E+00
         21   -1    0    0  504  502  0.00000000000E+00  0.00000000000E+00  0.34353970389E+02  0.34353970389E+02  0.00000000000E+00 0.  1.
         21   -1    0    0  502  503 -0.00000000000E+00 -0.00000000000E+00 -0.70217886082E+03  0.70217886082E+03  0.00000000000E+00 0. -1.
         25    2    1    2    0    0  0.10947107723E+02 -0.80661377657E+02 -0.14714602368E+03  0.20952943530E+03  0.12499813983E+03 0.  0.
          5    1    3    3  501    0 -0.17069170102E+02 -0.10306311044E+03 -0.73874940628E+02  0.12794873252E+03  0.10000000000E+00 0. -1.
         -5    1    3    3    0  501  0.28016277825E+02  0.22401732783E+02 -0.73271083048E+02  0.81580702779E+02  0.10000000000E+00 0. -1.
         21    1    1    2  504  503 -0.10947107723E+02  0.80661377657E+02 -0.52067886676E+03  0.52700339591E+03  0.00000000000E+00 0. -1.
<mgrwt>
<rscale>  1 0.14916646E+03</rscale>
<asrwt>0</asrwt>
<pdfrwt beam="1">  1       21 0.52852262E-02 0.14916646E+03</pdfrwt>
<pdfrwt beam="2">  1       21 0.10802752E+00 0.14916646E+03</pdfrwt>
<totfact> 0.16965202E+05</totfact>
</mgrwt>
</event>
<event>
 6    1  0.4180481E-002  0.1300500E+03  0.7546771E-02  0.1227382E+00
         21   -1    0    0  503  502  0.00000000000E+00  0.00000000000E+00  0.28881397615E+03  0.28881397615E+03  0.00000000000E+00 0. -1.
         21   -1    0    0  504  503 -0.00000000000E+00 -0.00000000000E+00 -0.37723819718E+02  0.37723819718E+02  0.00000000000E+00 0. -1.
         25    2    1    2    0    0  0.30365932242E+02 -0.19059061969E+02  0.25900614715E+03  0.28982266828E+03  0.12501062798E+03 0.  0.
          5    1    3    3  501    0 -0.47604582980E+02 -0.18991272779E+02  0.11902865011E+03  0.12959434521E+03  0.10000000000E+00 0.  1.
         -5    1    3    3    0  501  0.77970515223E+02 -0.67789189387E-01  0.13997749703E+03  0.16022832308E+03  0.10000000000E+00 0.  1.
         21    1    1    2  504  502 -0.30365932242E+02  0.19059061969E+02 -0.79159907190E+01  0.36715127579E+02  0.00000000000E+00 0. -1.
<mgrwt>
<rscale>  1 0.13004997E+03</rscale>
<asrwt>0</asrwt>
<pdfrwt beam="1">  1       21 0.44432918E-01 0.13004997E+03</pdfrwt>
<pdfrwt beam="2">  1       21 0.58036647E-02 0.13004997E+03</pdfrwt>
<totfact> 0.10169387E+06</totfact>
</mgrwt>
</event>
<event>
 6    1  0.4180481E-002  0.1262521E+03  0.7546771E-02  0.1233125E+00
         21   -1    0    0  503  502  0.00000000000E+00  0.00000000000E+00  0.12742831769E+03  0.12742831769E+03  0.00000000000E+00 0.  1.
         21   -1    0    0  504  503 -0.00000000000E+00 -0.00000000000E+00 -0.14220228792E+03  0.14220228792E+03  0.00000000000E+00 0.  1.
         25    2    1    2    0    0  0.16364349088E+02 -0.70354632955E+01  0.95263650191E+02  0.15816057567E+03  0.12498925948E+03 0.  0.
          5    1    3    3  501    0  0.24644904010E+02 -0.14823619253E+01  0.12467964058E+03  0.12710071387E+03  0.10000000000E+00 0.  1.
         -5    1    3    3    0  501 -0.82805549227E+01 -0.55531013702E+01 -0.29415990390E+02  0.31059861804E+02  0.10000000000E+00 0.  1.
         21    1    1    2  504  502 -0.16364349088E+02  0.70354632955E+01 -0.11003762043E+03  0.11147002993E+03  0.00000000000E+00 0.  1.
<mgrwt>
<rscale>  1 0.12625215E+03</rscale>
<asrwt>0</asrwt>
<pdfrwt beam="1">  1       21 0.19604357E-01 0.12625215E+03</pdfrwt>
<pdfrwt beam="2">  1       21 0.21877275E-01 0.12625215E+03</pdfrwt>
<totfact> 0.47151500E+05</totfact>
</mgrwt>
</event>
<event>
 6    1  0.4180481E-002  0.1825122E+03  0.7546771E-02  0.1165394E+00
         21   -1    0    0  503  502  0.00000000000E+00  0.00000000000E+00  0.14484384249E+03  0.14484384249E+03  0.00000000000E+00 0. -1.
         21   -1    0    0  504  503 -0.00000000000E+00 -0.00000000000E+00 -0.18028073091E+03  0.18028073091E+03  0.00000000000E+00 0. -1.
         25    2    1    2    0    0  0.11553374168E+03  0.65861702446E+02  0.14459745490E+02  0.18308414467E+03  0.12499964190E+03 0.  0.
          5    1    3    3  501    0  0.44829827987E+02  0.83567516565E+02 -0.27810709703E+02  0.98826559569E+02  0.10000000000E+00 0. -1.
         -5    1    3    3    0  501  0.70703913693E+02 -0.17705814118E+02  0.42270455193E+02  0.84257585103E+02  0.10000000000E+00 0. -1.
         21    1    1    2  504  502 -0.11553374168E+03 -0.65861702446E+02 -0.49896633914E+02  0.14204042872E+03  0.00000000000E+00 0. -1.
<mgrwt>
<rscale>  1 0.18251225E+03</rscale>
<asrwt>0</asrwt>
<pdfrwt beam="1">  1       21 0.22283668E-01 0.18251225E+03</pdfrwt>
<pdfrwt beam="2">  1       21 0.27735497E-01 0.18251225E+03</pdfrwt>
<totfact> 0.23443309E+05</totfact>
</mgrwt>
</event>
<event>
 6    1  0.4180481E-002  0.1289874E+03  0.7546771E-02  0.1228966E+00
         21   -1    0    0  504  502  0.00000000000E+00  0.00000000000E+00  0.26038844251E+03  0.26038844251E+03  0.00000000000E+00 0.  1.
         21   -1    0    0  502  503 -0.00000000000E+00 -0.00000000000E+00 -0.27493157170E+02  0.27493157170E+02  0.00000000000E+00 0. -1.
         25    2    1    2    0    0  0.19155465761E+02 -0.25335275686E+02  0.21681186302E+03  0.25227985062E+03  0.12501572310E+03 0.  0.
          5    1    3    3  501    0 -0.16358498483E+02  0.19419405089E+02 -0.26254197218E+01  0.25526781923E+02  0.10000000000E+00 0. -1.
         -5    1    3    3    0  501  0.35513964244E+02 -0.44754680775E+02  0.21943728274E+03  0.22675306870E+03  0.10000000000E+00 0. -1.
         21    1    1    2  504  503 -0.19155465761E+02  0.25335275686E+02  0.16083422326E+02  0.35601749063E+02  0.00000000000E+00 0. -1.
<mgrwt>
<rscale>  1 0.12898736E+03</rscale>
<asrwt>0</asrwt>
<pdfrwt beam="1">  1       21 0.40059759E-01 0.12898736E+03</pdfrwt>
<pdfrwt beam="2">  1       21 0.42297167E-02 0.12898736E+03</pdfrwt>
<totfact> 0.21308688E+06</totfact>
</mgrwt>
</event>
<event>
 6    1  0.4180481E-002  0.1380359E+03  0.7546771E-02  0.1215996E+00
         21   -1    0    0  503  502  0.00000000000E+00  0.00000000000E+00  0.16672147592E+03  0.16672147592E+03  0.00000000000E+00 0. -1.
         21   -1    0    0  504  503 -0.00000000000E+00 -0.00000000000E+00 -0.32207876460E+03  0.32207876460E+03  0.00000000000E+00 0. -1.
         25    2    1    2    0    0  0.55344711073E+02 -0.19124543594E+02  0.13471404764E+03  0.19287767402E+03  0.12500054917E+03 0.  0.
          5    1    3    3  501    0  0.53424626962E+01 -0.83933304634E+01 -0.24078351747E+02  0.26053155793E+02  0.10000000000E+00 0.  1.
         -5    1    3    3    0  501  0.50002248377E+02 -0.10731213131E+02  0.15879239938E+03  0.16682451822E+03  0.10000000000E+00 0.  1.
         21    1    1    2  504  502 -0.55344711073E+02  0.19124543594E+02 -0.29007133632E+03  0.29592256650E+03  0.00000000000E+00 0. -1.
<mgrwt>
<rscale>  1 0.13803595E+03</rscale>
<asrwt>0</asrwt>
<pdfrwt beam="1">  1       21 0.25649458E-01 0.13803595E+03</pdfrwt>
<pdfrwt beam="2">  1       21 0.49550578E-01 0.13803595E+03</pdfrwt>
<totfact> 0.57460209E+04</totfact>
</mgrwt>
</event>
<event>
 6    1  0.4180481E-002  0.1276457E+03  0.7546771E-02  0.1230992E+00
         21   -1    0    0  503  502  0.00000000000E+00  0.00000000000E+00  0.22280445982E+03  0.22280445982E+03  0.00000000000E+00 0. -1.
         21   -1    0    0  504  503 -0.00000000000E+00 -0.00000000000E+00 -0.29177580967E+02  0.29177580967E+02  0.00000000000E+00 0. -1.
         25    2    1    2    0    0 -0.22621896291E+02  0.12453596028E+02  0.18498582039E+03  0.22475135704E+03  0.12500630584E+03 0.  0.
          5    1    3    3  501    0 -0.52657803682E+02 -0.20907139643E+02  0.16707531623E+03  0.17642030516E+03  0.10000000000E+00 0.  1.
         -5    1    3    3    0  501  0.30035907391E+02  0.33360735671E+02  0.17910504161E+02  0.48331051888E+02  0.10000000000E+00 0.  1.
         21    1    1    2  504  502  0.22621896291E+02 -0.12453596028E+02  0.86410584579E+01  0.27230683743E+02  0.00000000000E+00 0. -1.
<mgrwt>
<rscale>  1 0.12764568E+03</rscale>
<asrwt>0</asrwt>
<pdfrwt beam="1">  1       21 0.34277608E-01 0.12764568E+03</pdfrwt>
<pdfrwt beam="2">  1       21 0.44888588E-02 0.12764568E+03</pdfrwt>
<totfact> 0.26258825E+06</totfact>
</mgrwt>
</event>
<event>
 6    1  0.4180481E-002  0.1267928E+03  0.7546771E-02  0.1232294E+00
         21   -1    0    0  503  502  0.00000000000E+00  0.00000000000E+00  0.12426917587E+03  0.12426917587E+03  0.00000000000E+00 0.  1.
         21   -1    0    0  504  503 -0.00000000000E+00 -0.00000000000E+00 -0.84708745665E+02  0.84708745665E+02  0.00000000000E+00 0.  1.
         25    2    1    2    0    0 -0.20010293933E+02  0.71073150640E+01  0.89173938095E+02  0.15501102468E+03  0.12500200296E+03 0.  0.
          5    1    3    3  501    0 -0.44510030723E+02  0.41935827544E+02  0.58450751042E+01  0.61432331632E+02  0.10000000000E+00 0. -1.
         -5    1    3    3    0  501  0.24499736790E+02 -0.34828512479E+02  0.83328862991E+02  0.93578693043E+02  0.10000000000E+00 0. -1.
         21    1    1    2  504  502  0.20010293933E+02 -0.71073150640E+01 -0.49613507894E+02  0.53966896856E+02  0.00000000000E+00 0.  1.
<mgrwt>
<rscale>  1 0.12679285E+03</rscale>
<asrwt>0</asrwt>
<pdfrwt beam="1">  1       21 0.19118335E-01 0.12679285E+03</pdfrwt>
<pdfrwt beam="2">  1       21 0.13032115E-01 0.12679285E+03</pdfrwt>
<totfact> 0.12683141E+06</totfact>
</mgrwt>
</event>
<event>
 6    1  0.4180481E-002  0.1414198E+03  0.7546771E-02  0.1211431E+00
         21   -1    0    0  503  502  0.00000000000E+00  0.00000000000E+00  0.27102414428E+02  0.27102414428E+02  0.00000000000E+00 0. -1.
         21   -1    0    0  504  503 -0.00000000000E+00 -0.00000000000E+00 -0.85172199802E+03  0.85172199802E+03  0.00000000000E+00 0. -1.
         25    2    1    2    0    0 -0.63259627435E+02 -0.19343890906E+02 -0.17116181881E+03  0.22202686607E+03  0.12499437771E+03 0.  0.
          5    1    3    3  501    0 -0.42768421062E+02 -0.36352186635E+02 -0.18406631884E+03  0.19243450586E+03  0.10000000000E+00 0.  1.
         -5    1    3    3    0  501 -0.20491206373E+02  0.17008295729E+02  0.12904500024E+02  0.29592360215E+02  0.10000000000E+00 0.  1.
         21    1    1    2  504  502  0.63259627435E+02  0.19343890906E+02 -0.65345776478E+03  0.65679754638E+03  0.00000000000E+00 0. -1.
<mgrwt>
<rscale>  1 0.14141980E+03</rscale>
<asrwt>0</asrwt>
<pdfrwt beam="1">  1       21 0.41696015E-02 0.14141980E+03</pdfrwt>
<pdfrwt beam="2">  1       21 0.13103418E+00 0.14141980E+03</pdfrwt>
<totfact> 0.15803055E+05</totfact>
</mgrwt>
</event>
<event>
 6    1  0.4180481E-002  0.1293837E+03  0.7546771E-02  0.1228373E+00
         21   -1    0    0  504  502  0.00000000000E+00  0.00000000000E+00  0.10940058474E+04  0.10940058474E+04  0.00000000000E+00 0.  1.
         21   -1    0    0  502  503 -0.00000000000E+00 -0.00000000000E+00 -0.89591697851E+01  0.89591697851E+01  0.00000000000E+00 0.  1.
         25    2    1    2    0    0 -0.23715253394E+02  0.23523613911E+02  0.10333318993E+04  0.10414004823E+04  0.12499750736E+03 0.  0.
          5    1    3    3  501    0  0.45383551382E+02 -0.85432426984E+01  0.56802915194E+03  0.56990330863E+03  0.10000000000E+00 0. -1.
         -5    1    3    3    0  501 -0.69098804776E+02  0.32066856610E+02  0.46530274736E+03  0.47149717371E+03  0.10000000000E+00 0. -1.
         21    1    1    2  504  503  0.23715253394E+02 -0.23523613911E+02  0.51714778317E+02  0.61564534850E+02  0.00000000000E+00 0.  1.
<mgrwt>
<rscale>  1 0.12938373E+03</rscale>
<asrwt>0</asrwt>
<pdfrwt beam="1">  1       21 0.16830849E+00 0.12938373E+03</pdfrwt>
<pdfrwt beam="2">  1       21 0.13783347E-02 0.12938373E+03</pdfrwt>
<totfact> 0.50265813E+05</totfact>
</mgrwt>
</event>
<event>
 6    1  0.4180481E-002  0.1281243E+03  0.7546771E-02  0.1230266E+00
         21   -1    0    0  503  502  0.00000000000E+00  0.00000000000E+00  0.61744376223E+02  0.61744376223E+02  0.00000000000E+00 0.  1.
         21   -1    0    0  504  503 -0.00000000000E+00 -0.00000000000E+00 -0.10541931369E+03  0.10541931369E+03  0.00000000000E+00 0.  1.
         25    2    1    2    0    0 -0.14909902720E+02 -0.23803216439E+02 -0.18514618925E+02  0.12945507099E+03  0.12500770368E+03 0.  0.
          5    1    3    3  501    0  0.17670444918E+02  0.43802577241E+02 -0.26205303574E+02  0.54015167610E+02  0.10000000000E+00 0. -1.
         -5    1    3    3    0  501 -0.32580347638E+02 -0.67605793680E+02  0.76906846486E+01  0.75439903378E+02  0.10000000000E+00 0. -1.
         21    1    1    2  504  502  0.14909902720E+02  0.23803216439E+02 -0.25160318537E+02  0.37708618920E+02  0.00000000000E+00 0.  1.
<mgrwt>
<rscale>  1 0.12812425E+03</rscale>
<asrwt>0</asrwt>
<pdfrwt beam="1">  1       21 0.94991349E-02 0.12812425E+03</pdfrwt>
<pdfrwt beam="2">  1       21 0.16218356E-01 0.12812425E+03</pdfrwt>
<totfact> 0.29908794E+06</totfact>
</mgrwt>
</event>
<event>
 6    1  0.4180481E-002  0.1273100E+03  0.7546771E-02  0.1231503E+00
         21   -1    0    0  503  502  0.00000000000E+00  0.00000000000E+00  0.97650426705E+02  0.97650426705E+02  0.00000000000E+00 0. -1.
         21   -1    0    0  504  503 -0.00000000000E+00 -0.00000000000E+00 -0.59131736691E+02  0.59131736691E+02  0.00000000000E+00 0. -1.
         25    2    1    2    0    0  0.15780785881E+02 -0.18283278876E+02  0.27552971464E+02  0.13025748672E+03  0.12499814047E+03 0.  0.
          5    1    3    3  501    0  0.43346590376E+02 -0.13060756326E+02 -0.37901929224E+02  0.59043005444E+02  0.10000000000E+00 0.  1.
         -5    1    3    3    0  501 -0.27565804495E+02 -0.52225225498E+01  0.65454900687E+02  0.71214481275E+02  0.10000000000E+00 0.  1.
         21    1    1    2  504  502 -0.15780785881E+02  0.18283278876E+02  0.10965718550E+02  0.26524676677E+02  0.00000000000E+00 0. -1.
<mgrwt>
<rscale>  1 0.12731004E+03</rscale>
<asrwt>0</asrwt>
<pdfrwt beam="1">  1       21 0.15023143E-01 0.12731004E+03</pdfrwt>
<pdfrwt beam="2">  1       21 0.90971902E-02 0.12731004E+03</pdfrwt>
<totfact> 0.37023447E+06</totfact>
</mgrwt>
</event>
<event>
 6    1  0.4180481E-002  0.1297788E+03  0.7546771E-02  0.1227784E+00
         21   -1    0    0  503  502  0.00000000000E+00  0.00000000000E+00  0.30394425927E+02  0.30394425927E+02  0.00000000000E+00 0. -1.
         21   -1    0    0  504  503 -0.00000000000E+00 -0.00000000000E+00 -0.37430114295E+03  0.37430114295E+03  0.00000000000E+00 0. -1.
         25    2    1    2    0    0 -0.31281943538E+02  0.15406360907E+02 -0.11577687058E+03  0.17391614435E+03  0.12500650205E+03 0.  0.
          5    1    3    3  501    0 -0.75624901358E+02  0.31799564241E+02 -0.66261791967E+02  0.10545602432E+03  0.10000000000E+00 0. -1.
         -5    1    3    3    0  501  0.44342957820E+02 -0.16393203334E+02 -0.49515078613E+02  0.68460120025E+02  0.10000000000E+00 0. -1.
         21    1    1    2  504  502  0.31281943538E+02 -0.15406360907E+02 -0.22812984644E+03  0.23077942453E+03  0.00000000000E+00 0. -1.
<mgrwt>
<rscale>  1 0.12977882E+03</rscale>
<asrwt>0</asrwt>
<pdfrwt beam="1">  1       21 0.46760656E-02 0.12977882E+03</pdfrwt>
<pdfrwt beam="2">  1       21 0.57584790E-01 0.12977882E+03</pdfrwt>
<totfact> 0.85587625E+05</totfact>
</mgrwt>
</event>
<event>
 6    1  0.4180481E-002  0.1260388E+03  0.7546771E-02  0.1233455E+00
         21   -1    0    0  503  502  0.00000000000E+00  0.00000000000E+00  0.12479011533E+03  0.12479011533E+03  0.00000000000E+00 0.  1.
         21   -1    0    0  504  503 -0.00000000000E+00 -0.00000000000E+00 -0.41104665017E+02  0.41104665017E+02  0.00000000000E+00 0.  1.
         25    2    1    2    0    0 -0.50706061280E+01  0.15325896878E+02  0.80164259327E+02  0.14937228213E+03  0.12500070413E+03 0.  0.
          5    1    3    3  501    0 -0.29114667183E+02  0.34898303583E+02 -0.16117663921E+02  0.48221826266E+02  0.10000000000E+00 0. -1.
         -5    1    3    3    0  501  0.24044061055E+02 -0.19572406705E+02  0.96281923248E+02  0.10115045586E+03  0.10000000000E+00 0. -1.
         21    1    1    2  504  502  0.50706061280E+01 -0.15325896878E+02  0.35211909901E+01  0.16522498226E+02  0.00000000000E+00 0.  1.
<mgrwt>
<rscale>  1 0.12603876E+03</rscale>
<asrwt>0</asrwt>
<pdfrwt beam="1">  1       21 0.19198479E-01 0.12603876E+03</pdfrwt>
<pdfrwt beam="2">  1       21 0.63237947E-02 0.12603876E+03</pdfrwt>
<totfact> 0.44228255E+06</totfact>
</mgrwt>
</event>
<event>
 6    1  0.4180481E-002  0.1280096E+03  0.7546771E-02  0.1230439E+00
         21   -1    0    0  504  502  0.00000000000E+00  0.00000000000E+00  0.33741785397E+02  0.33741785397E+02  0.00000000000E+00 0.  1.
         21   -1    0    0  502  503 -0.00000000000E+00 -0.00000000000E+00 -0.18923141724E+03  0.18923141724E+03  0.00000000000E+00 0.  1.
         25    2    1    2    0    0  0.21890888519E+02 -0.16754027799E+02 -0.10547893940E+03  0.16586823082E+03  0.12500621941E+03 0.  0.
          5    1    3    3  501    0  0.47570711408E+02 -0.26308330839E+02 -0.12221634222E+03  0.13376077587E+03  0.10000000000E+00 0.  1.
         -5    1    3    3    0  501 -0.25679822889E+02  0.95543030399E+01  0.16737402820E+02  0.32107454950E+02  0.10000000000E+00 0.  1.
         21    1    1    2  504  503 -0.21890888519E+02  0.16754027799E+02 -0.50010692445E+02  0.57104971819E+02  0.00000000000E+00 0.  1.
<mgrwt>
<rscale>  1 0.12800962E+03</rscale>
<asrwt>0</asrwt>
<pdfrwt beam="1">  1       21 0.51910440E-02 0.12800962E+03</pdfrwt>
<pdfrwt beam="2">  1       21 0.29112525E-01 0.12800962E+03</pdfrwt>
<totfact> 0.28256986E+06</totfact>
</mgrwt>
</event>
<event>
 6    1  0.4180481E-002  0.1264102E+03  0.7546771E-02  0.1232882E+00
         21   -1    0    0  503  502  0.00000000000E+00  0.00000000000E+00  0.12596634426E+04  0.12596634426E+04  0.00000000000E+00 0.  1.
         21   -1    0    0  504  503 -0.00000000000E+00 -0.00000000000E+00 -0.42333536161E+01  0.42333536161E+01  0.00000000000E+00 0.  1.
         25    2    1    2    0    0 -0.60700165827E+00 -0.19286763661E+02  0.10575901950E+04  0.10651180967E+04  0.12492874687E+03 0.  0.
          5    1    3    3  501    0  0.57197067222E+02  0.14757375146E+01  0.69607059096E+03  0.69841818411E+03  0.10000000000E+00 0.  1.
         -5    1    3    3    0  501 -0.57804068881E+02 -0.20762501176E+02  0.36151960401E+03  0.36669991263E+03  0.10000000000E+00 0.  1.
         21    1    1    2  504  502  0.60700165827E+00  0.19286763661E+02  0.19783989397E+03  0.19877869944E+03  0.00000000000E+00 0. -1.
<mgrwt>
<rscale>  1 0.12641020E+03</rscale>
<asrwt>0</asrwt>
<pdfrwt beam="1">  1       21 0.19379408E+00 0.12641020E+03</pdfrwt>
<pdfrwt beam="2">  1       21 0.65128618E-03 0.12641020E+03</pdfrwt>
<totfact> 0.11072792E+06</totfact>
</mgrwt>
</event>
<event>
 6    1  0.4180481E-002  0.1280228E+03  0.7546771E-02  0.1230419E+00
         21   -1    0    0  503  502  0.00000000000E+00  0.00000000000E+00  0.32373075650E+03  0.32373075650E+03  0.00000000000E+00 0.  1.
         21   -1    0    0  504  503 -0.00000000000E+00 -0.00000000000E+00 -0.22923789197E+02  0.22923789197E+02  0.00000000000E+00 0.  1.
         25    2    1    2    0    0 -0.89868965763E+01 -0.26157906157E+02  0.28992410804E+03  0.31693187774E+03  0.12499930538E+03 0.  0.
          5    1    3    3  501    0 -0.22763447048E+02 -0.63373922106E+02  0.86228168849E+02  0.10940628697E+03  0.10000000000E+00 0. -1.
         -5    1    3    3    0  501  0.13776550471E+02  0.37216015949E+02  0.20369593919E+03  0.20752559078E+03  0.10000000000E+00 0. -1.
         21    1    1    2  504  502  0.89868965763E+01  0.26157906157E+02  0.10882859270E+02  0.29722667957E+02  0.00000000000E+00 0.  1.
<mgrwt>
<rscale>  1 0.12802276E+03</rscale>
<asrwt>0</asrwt>
<pdfrwt beam="1">  1       21 0.49804729E-01 0.12802276E+03</pdfrwt>
<pdfrwt beam="2">  1       21 0.35267370E-02 0.12802276E+03</pdfrwt>
<totfact> 0.18510394E+06</totfact>
</mgrwt>
</event>
<event>
 6    1  0.4180481E-002  0.1303258E+03  0.7546771E-02  0.1226973E+00
         21   -1    0    0  503  502  0.00000000000E+00  0.00000000000E+00  0.36764758756E+02  0.36764758756E+02  0.00000000000E+00 0.  1.
         21   -1    0    0  504  503 -0.00000000000E+00 -0.00000000000E+00 -0.70074949229E+03  0.70074949229E+03  0.00000000000E+00 0.  1.
         25    2    1    2    0    0 -0.22772539689E+02 -0.29024566527E+02 -0.81176760062E+02  0.15353980985E+03  0.12499517114E+03 0.  0.
          5    1    3    3  501    0  0.32115491948E+01 -0.59779683935E+02  0.33021533863E+01  0.59956975212E+02  0.10000000000E+00 0. -1.
         -5    1    3    3    0  501 -0.25984088884E+02  0.30755117408E+02 -0.84478913448E+02  0.93582834640E+02  0.10000000000E+00 0. -1.
         21    1    1    2  504  502  0.22772539689E+02  0.29024566527E+02 -0.58280797347E+03  0.58397444119E+03  0.00000000000E+00 0.  1.
<mgrwt>
<rscale>  1 0.13032577E+03</rscale>
<asrwt>0</asrwt>
<pdfrwt beam="1">  1       21 0.56561172E-02 0.13032577E+03</pdfrwt>
<pdfrwt beam="2">  1       21 0.10780761E+00 0.13032577E+03</pdfrwt>
<totfact> 0.15303628E+05</totfact>
</mgrwt>
</event>
<event>
 6    1  0.4180481E-002  0.1568496E+03  0.7546771E-02  0.1192300E+00
         21   -1    0    0  504  502  0.00000000000E+00  0.00000000000E+00  0.91650267590E+02  0.91650267590E+02  0.00000000000E+00 0. -1.
         21   -1    0    0  502  503 -0.00000000000E+00 -0.00000000000E+00 -0.51138767901E+03  0.51138767901E+03  0.00000000000E+00 0. -1.
         25    2    1    2    0    0 -0.39073252019E+02 -0.86313420650E+02  0.15494320050E+02  0.15761299705E+03  0.12500022910E+03 0.  0.
          5    1    3    3  501    0 -0.72428096293E+02 -0.12560751914E+02 -0.63203533298E+01  0.73780474974E+02  0.10000000000E+00 0.  1.
         -5    1    3    3    0  501  0.33354844273E+02 -0.73752668736E+02  0.21814673380E+02  0.83832522071E+02  0.10000000000E+00 0.  1.
         21    1    1    2  504  503  0.39073252019E+02  0.86313420650E+02 -0.43523173147E+03  0.44542494956E+03  0.00000000000E+00 0. -1.
<mgrwt>
<rscale>  1 0.15684955E+03</rscale>
<asrwt>0</asrwt>
<pdfrwt beam="1">  1       21 0.14100041E-01 0.15684955E+03</pdfrwt>
<pdfrwt beam="2">  1       21 0.78675028E-01 0.15684955E+03</pdfrwt>
<totfact> 0.63754196E+04</totfact>
</mgrwt>
</event>
<event>
 6    1  0.4180481E-002  0.1291567E+03  0.7546771E-02  0.1228712E+00
         21   -1    0    0  503  502  0.00000000000E+00  0.00000000000E+00  0.46965685533E+02  0.46965685533E+02  0.00000000000E+00 0.  1.
         21   -1    0    0  504  503 -0.00000000000E+00 -0.00000000000E+00 -0.59413793070E+03  0.59413793070E+03  0.00000000000E+00 0.  1.
         25    2    1    2    0    0 -0.17567222936E+02  0.27346317177E+02 -0.43355217332E+02  0.13623925235E+03  0.12500012250E+03 0.  0.
          5    1    3    3  501    0 -0.66926225919E+01 -0.12398506154E+02  0.40459775654E+02  0.42842941053E+02  0.10000000000E+00 0.  1.
         -5    1    3    3    0  501 -0.10874600345E+02  0.39744823331E+02 -0.83814992987E+02  0.93396311296E+02  0.10000000000E+00 0.  1.
         21    1    1    2  504  502  0.17567222936E+02 -0.27346317177E+02 -0.50381702783E+03  0.50486436388E+03  0.00000000000E+00 0.  1.
<mgrwt>
<rscale>  1 0.12915672E+03</rscale>
<asrwt>0</asrwt>
<pdfrwt beam="1">  1       21 0.72254900E-02 0.12915672E+03</pdfrwt>
<pdfrwt beam="2">  1       21 0.91405836E-01 0.12915672E+03</pdfrwt>
<totfact> 0.14845080E+05</totfact>
</mgrwt>
</event>
<event>
 6    1  0.4180481E-002  0.1289098E+03  0.7546771E-02  0.1229082E+00
         21   -1    0    0  504  502  0.00000000000E+00  0.00000000000E+00  0.44832001776E+01  0.44832001776E+01  0.00000000000E+00 0.  1.
         21   -1    0    0  502  503 -0.00000000000E+00 -0.00000000000E+00 -0.25239033700E+04  0.25239033700E+04  0.00000000000E+00 0. -1.
         25    2    1    2    0    0 -0.30920069818E+02 -0.60662772533E+01 -0.95636845894E+03  0.96501729156E+03  0.12499957326E+03 0.  0.
          5    1    3    3  501    0 -0.32725033184E+02 -0.35595319452E+02 -0.90051799546E+03  0.90181518323E+03  0.10000000000E+00 0. -1.
         -5    1    3    3    0  501  0.18049633658E+01  0.29529042198E+02 -0.55850463489E+02  0.63202108334E+02  0.10000000000E+00 0. -1.
         21    1    1    2  504  503  0.30920069818E+02  0.60662772533E+01 -0.15630517109E+04  0.15633692786E+04  0.00000000000E+00 0. -1.
<mgrwt>
<rscale>  1 0.12890983E+03</rscale>
<asrwt>0</asrwt>
<pdfrwt beam="1">  1       21 0.68972428E-03 0.12890983E+03</pdfrwt>
<pdfrwt beam="2">  1       21 0.38829216E+00 0.12890983E+03</pdfrwt>
<totfact> 0.75124290E+04</totfact>
</mgrwt>
</event>
<event>
 6    1  0.4180481E-002  0.1259943E+03  0.7546771E-02  0.1233524E+00
         21   -1    0    0  504  502  0.00000000000E+00  0.00000000000E+00  0.24279745606E+03  0.24279745606E+03  0.00000000000E+00 0. -1.
         21   -1    0    0  502  503 -0.00000000000E+00 -0.00000000000E+00 -0.55819640339E+02  0.55819640339E+02  0.00000000000E+00 0. -1.
         25    2    1    2    0    0  0.10552109340E+02 -0.11671367602E+02  0.22477330593E+03  0.25767730020E+03  0.12500793634E+03 0.  0.
          5    1    3    3  501    0 -0.47688313883E+02 -0.31201499040E+02  0.15264485120E+03  0.16293608999E+03  0.10000000000E+00 0. -1.
         -5    1    3    3    0  501  0.58240423223E+02  0.19530131439E+02  0.72128454729E+02  0.94741210214E+02  0.10000000000E+00 0. -1.
         21    1    1    2  504  503 -0.10552109340E+02  0.11671367602E+02 -0.37795490203E+02  0.40939796200E+02  0.00000000000E+00 0. -1.
<mgrwt>
<rscale>  1 0.12599425E+03</rscale>
<asrwt>0</asrwt>
<pdfrwt beam="1">  1       21 0.37353454E-01 0.12599425E+03</pdfrwt>
<pdfrwt beam="2">  1       21 0.85876371E-02 0.12599425E+03</pdfrwt>
<totfact> 0.73628108E+05</totfact>
</mgrwt>
</event>
<event>
 6    1  0.4180481E-002  0.1501124E+03  0.7546771E-02  0.1200335E+00
         21   -1    0    0  504  502  0.00000000000E+00  0.00000000000E+00  0.76179944611E+03  0.76179944611E+03  0.00000000000E+00 0.  1.
         21   -1    0    0  502  503 -0.00000000000E+00 -0.00000000000E+00 -0.22034225140E+03  0.22034225140E+03  0.00000000000E+00 0.  1.
         25    2    1    2    0    0  0.35863379667E+02  0.74980166744E+02  0.74621167337E+03  0.76116069393E+03  0.12500213242E+03 0.  0.
          5    1    3    3  501    0  0.72201984626E+02  0.67036170067E+01  0.38328764119E+03  0.39008651727E+03  0.10000000000E+00 0.  1.
         -5    1    3    3    0  501 -0.36338604959E+02  0.68276549737E+02  0.36292403218E+03  0.37107417666E+03  0.10000000000E+00 0.  1.
         21    1    1    2  504  503 -0.35863379667E+02 -0.74980166744E+02 -0.20475447867E+03  0.22098100357E+03  0.00000000000E+00 0.  1.
<mgrwt>
<rscale>  1 0.15011243E+03</rscale>
<asrwt>0</asrwt>
<pdfrwt beam="1">  1       21 0.11719991E+00 0.15011243E+03</pdfrwt>
<pdfrwt beam="2">  1       21 0.33898808E-01 0.15011243E+03</pdfrwt>
<totfact> 0.48713959E+03</totfact>
</mgrwt>
</event>
<event>
 6    1  0.4180481E-002  0.1263998E+03  0.7546771E-02  0.1232898E+00
         21   -1    0    0  504  502  0.00000000000E+00  0.00000000000E+00  0.63155342083E+01  0.63155342083E+01  0.00000000000E+00 0. -1.
         21   -1    0    0  502  503 -0.00000000000E+00 -0.00000000000E+00 -0.12891673234E+04  0.12891673234E+04  0.00000000000E+00 0. -1.
         25    2    1    2    0    0  0.36023427032E+00 -0.18767884579E+02 -0.64029679227E+03  0.65265372998E+03  0.12499818320E+03 0.  0.
          5    1    3    3  501    0 -0.41746794548E+01 -0.61371999712E+02 -0.17708764057E+03  0.18746731113E+03  0.10000000000E+00 0. -1.
         -5    1    3    3    0  501  0.45349137252E+01  0.42604115133E+02 -0.46320915170E+03  0.46518641885E+03  0.10000000000E+00 0. -1.
         21    1    1    2  504  503 -0.36023427032E+00  0.18767884579E+02 -0.64255499697E+03  0.64282912767E+03  0.00000000000E+00 0. -1.
<mgrwt>
<rscale>  1 0.12639980E+03</rscale>
<asrwt>0</asrwt>
<pdfrwt beam="1">  1       21 0.97162062E-03 0.12639980E+03</pdfrwt>
<pdfrwt beam="2">  1       21 0.19833344E+00 0.12639980E+03</pdfrwt>
<totfact> 0.55421581E+05</totfact>
</mgrwt>
</event>
<event>
 6    1  0.4180481E-002  0.1309430E+03  0.7546771E-02  0.1226063E+00
         21   -1    0    0  503  502  0.00000000000E+00  0.00000000000E+00  0.20830015133E+03  0.20830015133E+03  0.00000000000E+00 0. -1.
         21   -1    0    0  504  503 -0.00000000000E+00 -0.00000000000E+00 -0.12959694615E+03  0.12959694615E+03  0.00000000000E+00 0. -1.
         25    2    1    2    0    0  0.13467998294E+02  0.36610708366E+02  0.18386890756E+03  0.22572956251E+03  0.12499731708E+03 0.  0.
          5    1    3    3  501    0  0.59241932278E+02  0.18880850593E+02  0.15895073697E+03  0.17067934803E+03  0.10000000000E+00 0. -1.
         -5    1    3    3    0  501 -0.45773933984E+02  0.17729857773E+02  0.24918170585E+02  0.55050214480E+02  0.10000000000E+00 0. -1.
         21    1    1    2  504  502 -0.13467998294E+02 -0.36610708366E+02 -0.10516570238E+03  0.11216753497E+03  0.00000000000E+00 0. -1.
<mgrwt>
<rscale>  1 0.13094297E+03</rscale>
<asrwt>0</asrwt>
<pdfrwt beam="1">  1       21 0.32046177E-01 0.13094297E+03</pdfrwt>
<pdfrwt beam="2">  1       21 0.19937992E-01 0.13094297E+03</pdfrwt>
<totfact> 0.22093519E+05</totfact>
</mgrwt>
</event>
<event>
 6    1  0.4180481E-002  0.1369438E+03  0.7546771E-02  0.1217502E+00
         21   -1    0    0  504  502  0.00000000000E+00  0.00000000000E+00  0.20336020155E+03  0.20336020155E+03  0.00000000000E+00 0. -1.
         21   -1    0    0  502  503 -0.00000000000E+00 -0.00000000000E+00 -0.19140640395E+03  0.19140640395E+03  0.00000000000E+00 0. -1.
         25    2    1    2    0    0  0.36377322488E+01 -0.55800319637E+02  0.17510668300E+03  0.22229697692E+03  0.12500674681E+03 0.  0.
          5    1    3    3  501    0 -0.98980183161E+01 -0.75532056235E+02  0.41865165267E+02  0.86923899755E+02  0.10000000000E+00 0.  1.
         -5    1    3    3    0  501  0.13535750565E+02  0.19731736598E+02  0.13324151774E+03  0.13537307717E+03  0.10000000000E+00 0.  1.
         21    1    1    2  504  503 -0.36377322488E+01  0.55800319637E+02 -0.16315288540E+03  0.17246962858E+03  0.00000000000E+00 0. -1.
<mgrwt>
<rscale>  1 0.13694377E+03</rscale>
<asrwt>0</asrwt>
<pdfrwt beam="1">  1       21 0.31286185E-01 0.13694377E+03</pdfrwt>
<pdfrwt beam="2">  1       21 0.29447139E-01 0.13694377E+03</pdfrwt>
<totfact> 0.11071102E+05</totfact>
</mgrwt>
</event>
<event>
 6    1  0.4180481E-002  0.1285978E+03  0.7546771E-02  0.1229551E+00
         21   -1    0    0  503  502  0.00000000000E+00  0.00000000000E+00  0.19993709960E+03  0.19993709960E+03  0.00000000000E+00 0. -1.
         21   -1    0    0  504  503 -0.00000000000E+00 -0.00000000000E+00 -0.29044498215E+03  0.29044498215E+03  0.00000000000E+00 0.  1.
         25    2    1    2    0    0 -0.25949948459E+02  0.15415448224E+02  0.17832659246E+03  0.21985849530E+03  0.12500539392E+03 0.  0.
          5    1    3    3  501    0 -0.40957486681E+01  0.53492104490E+02  0.22867438220E+02  0.58319037464E+02  0.10000000000E+00 0. -1.
         -5    1    3    3    0  501 -0.21854199791E+02 -0.38076656266E+02  0.15545915424E+03  0.16153945784E+03  0.10000000000E+00 0. -1.
         21    1    1    2  504  502  0.25949948459E+02 -0.15415448224E+02 -0.26883447501E+03  0.27052358645E+03  0.00000000000E+00 0.  1.
<mgrwt>
<rscale>  1 0.12859776E+03</rscale>
<asrwt>0</asrwt>
<pdfrwt beam="1">  1       21 0.30759554E-01 0.12859776E+03</pdfrwt>
<pdfrwt beam="2">  1       21 0.44683843E-01 0.12859776E+03</pdfrwt>
<totfact> 0.50376145E+04</totfact>
</mgrwt>
</event>
<event>
 6    1  0.4180481E-002  0.1272753E+03  0.7546771E-02  0.1231556E+00
         21   -1    0    0  504  502  0.00000000000E+00  0.00000000000E+00  0.96657457450E+02  0.96657457450E+02  0.00000000000E+00 0.  1.
         21   -1    0    0  502  503 -0.00000000000E+00 -0.00000000000E+00 -0.63191347751E+02  0.63191347751E+02  0.00000000000E+00 0.  1.
         25    2    1    2    0    0 -0.20354298138E+02 -0.12588370405E+02  0.42625537932E+02  0.13422343403E+03  0.12500491685E+03 0.  0.
          5    1    3    3  501    0  0.21042430197E+02 -0.17271848359E+02  0.76072877831E+02  0.80797236065E+02  0.10000000000E+00 0.  1.
         -5    1    3    3    0  501 -0.41396728335E+02  0.46834779540E+01 -0.33447339898E+02  0.53426197964E+02  0.10000000000E+00 0.  1.
         21    1    1    2  504  503  0.20354298138E+02  0.12588370405E+02 -0.91594282336E+01  0.25625371172E+02  0.00000000000E+00 0.  1.
<mgrwt>
<rscale>  1 0.12727527E+03</rscale>
<asrwt>0</asrwt>
<pdfrwt beam="1">  1       21 0.14870378E-01 0.12727527E+03</pdfrwt>
<pdfrwt beam="2">  1       21 0.97217458E-02 0.12727527E+03</pdfrwt>
<totfact> 0.33592448E+06</totfact>
</mgrwt>
</event>
<event>
 6    1  0.4180481E-002  0.1264790E+03  0.7546771E-02  0.1232776E+00
         21   -1    0    0  503  502  0.00000000000E+00  0.00000000000E+00  0.62132763936E+01  0.62132763936E+01  0.00000000000E+00 0. -1.
         21   -1    0    0  504  503 -0.00000000000E+00 -0.00000000000E+00 -0.10762876760E+04  0.10762876760E+04  0.00000000000E+00 0. -1.
         25    2    1    2    0    0  0.14393418857E+02 -0.12854320184E+02 -0.66220826341E+03  0.67417854410E+03  0.12499808459E+03 0.  0.
          5    1    3    3  501    0  0.50561267455E+02  0.65473872107E+01 -0.11951151023E+03  0.12993198653E+03  0.10000000000E+00 0. -1.
         -5    1    3    3    0  501 -0.36167848598E+02 -0.19401707395E+02 -0.54269675318E+03  0.54424655758E+03  0.10000000000E+00 0. -1.
         21    1    1    2  504  502 -0.14393418857E+02  0.12854320184E+02 -0.40786613618E+03  0.40832240827E+03  0.00000000000E+00 0. -1.
<mgrwt>
<rscale>  1 0.12647895E+03</rscale>
<asrwt>0</asrwt>
<pdfrwt beam="1">  1       21 0.95588867E-03 0.12647895E+03</pdfrwt>
<pdfrwt beam="2">  1       21 0.16558272E+00 0.12647895E+03</pdfrwt>
<totfact> 0.93791328E+05</totfact>
</mgrwt>
</event>
<event>
 6    1  0.4180481E-002  0.1291827E+03  0.7546771E-02  0.1228673E+00
         21   -1    0    0  504  502  0.00000000000E+00  0.00000000000E+00  0.36623632231E+03  0.36623632231E+03  0.00000000000E+00 0. -1.
         21   -1    0    0  502  503 -0.00000000000E+00 -0.00000000000E+00 -0.14917897673E+03  0.14917897673E+03  0.00000000000E+00 0.  1.
         25    2    1    2    0    0  0.25381608207E+02 -0.20456023154E+02  0.35285538153E+03  0.37575935937E+03  0.12500200383E+03 0.  0.
          5    1    3    3  501    0  0.42364430434E+02 -0.24930452458E+02  0.35470931955E+03  0.35809912566E+03  0.10000000000E+00 0. -1.
         -5    1    3    3    0  501 -0.16982822227E+02  0.44744293037E+01 -0.18539380196E+01  0.17660233707E+02  0.10000000000E+00 0. -1.
         21    1    1    2  504  503 -0.25381608207E+02  0.20456023154E+02 -0.13579803594E+03  0.13965593967E+03  0.00000000000E+00 0.  1.
<mgrwt>
<rscale>  1 0.12918272E+03</rscale>
<asrwt>0</asrwt>
<pdfrwt beam="1">  1       21 0.56344049E-01 0.12918272E+03</pdfrwt>
<pdfrwt beam="2">  1       21 0.22950612E-01 0.12918272E+03</pdfrwt>
<totfact> 0.54477077E+04</totfact>
</mgrwt>
</event>
<event>
 6    1  0.4180481E-002  0.2179587E+03  0.7546771E-02  0.1135414E+00
         21   -1    0    0  503  502  0.00000000000E+00  0.00000000000E+00  0.41409027275E+02  0.41409027275E+02  0.00000000000E+00 0.  1.
         21   -1    0    0  504  503 -0.00000000000E+00 -0.00000000000E+00 -0.12726480134E+04  0.12726480134E+04  0.00000000000E+00 0.  1.
         25    2    1    2    0    0 -0.27362880207E+00  0.17855429276E+03 -0.33124250176E+03  0.39651936722E+03  0.12499721307E+03 0.  0.
          5    1    3    3  501    0 -0.59809158002E+02  0.88002667922E+02 -0.19791929571E+03  0.22470794947E+03  0.10000000000E+00 0. -1.
         -5    1    3    3    0  501  0.59535529200E+02  0.90551624836E+02 -0.13332320605E+03  0.17181141775E+03  0.10000000000E+00 0. -1.
         21    1    1    2  504  502  0.27362880207E+00 -0.17855429276E+03 -0.89999648434E+03  0.91753767343E+03  0.00000000000E+00 0.  1.
<mgrwt>
<rscale>  1 0.21795874E+03</rscale>
<asrwt>0</asrwt>
<pdfrwt beam="1">  1       21 0.63706191E-02 0.21795874E+03</pdfrwt>
<pdfrwt beam="2">  1       21 0.19579202E+00 0.21795874E+03</pdfrwt>
<totfact> 0.24982084E+04</totfact>
</mgrwt>
</event>
<event>
 6    1  0.4180481E-002  0.1292824E+03  0.7546771E-02  0.1228524E+00
         21   -1    0    0  504  502  0.00000000000E+00  0.00000000000E+00  0.10795276495E+03  0.10795276495E+03  0.00000000000E+00 0.  1.
         21   -1    0    0  502  503 -0.00000000000E+00 -0.00000000000E+00 -0.69646238389E+02  0.69646238389E+02  0.00000000000E+00 0.  1.
         25    2    1    2    0    0  0.33010166947E+02  0.52422307762E+00  0.55128870929E+02  0.14054583610E+03  0.12499597475E+03 0.  0.
          5    1    3    3  501    0  0.25944277497E+02 -0.55119907758E+02  0.58357653600E+02  0.84361931579E+02  0.10000000000E+00 0.  1.
         -5    1    3    3    0  501  0.70658894500E+01  0.55644130835E+02 -0.32287826708E+01  0.56183904525E+02  0.10000000000E+00 0.  1.
         21    1    1    2  504  503 -0.33010166947E+02 -0.52422307762E+00 -0.16822344372E+02  0.37053167231E+02  0.00000000000E+00 0.  1.
<mgrwt>
<rscale>  1 0.12928240E+03</rscale>
<asrwt>0</asrwt>
<pdfrwt beam="1">  1       21 0.16608118E-01 0.12928240E+03</pdfrwt>
<pdfrwt beam="2">  1       21 0.10714806E-01 0.12928240E+03</pdfrwt>
<totfact> 0.23209610E+06</totfact>
</mgrwt>
</event>
<event>
 6    1  0.4180481E-002  0.1272550E+03  0.7546771E-02  0.1231587E+00
         21   -1    0    0  504  502  0.00000000000E+00  0.00000000000E+00  0.25152043466E+02  0.25152043466E+02  0.00000000000E+00 0. -1.
         21   -1    0    0  502  503 -0.00000000000E+00 -0.00000000000E+00 -0.70993505616E+03  0.70993505616E+03  0.00000000000E+00 0. -1.
         25    2    1    2    0    0 -0.18083639794E+02  0.15521244215E+02 -0.13774416123E+03  0.18752940215E+03  0.12500358262E+03 0.  0.
          5    1    3    3  501    0  0.41532360376E+01  0.16768165004E+01 -0.15570446395E+03  0.15576890311E+03  0.10000000000E+00 0. -1.
         -5    1    3    3    0  501 -0.22236875831E+02  0.13844427715E+02  0.17960302720E+02  0.31760499040E+02  0.10000000000E+00 0. -1.
         21    1    1    2  504  503  0.18083639794E+02 -0.15521244215E+02 -0.54703885146E+03  0.54755769747E+03  0.00000000000E+00 0. -1.
<mgrwt>
<rscale>  1 0.12725495E+03</rscale>
<asrwt>0</asrwt>
<pdfrwt beam="1">  1       21 0.38695459E-02 0.12725495E+03</pdfrwt>
<pdfrwt beam="2">  1       21 0.10922076E+00 0.12725495E+03</pdfrwt>
<totfact> 0.28036817E+05</totfact>
</mgrwt>
</event>
<event>
 6    1  0.4180481E-002  0.1300324E+03  0.7546771E-02  0.1227408E+00
         21   -1    0    0  504  502  0.00000000000E+00  0.00000000000E+00  0.11286912532E+03  0.11286912532E+03  0.00000000000E+00 0. -1.
         21   -1    0    0  502  503 -0.00000000000E+00 -0.00000000000E+00 -0.62880427860E+02  0.62880427860E+02  0.00000000000E+00 0. -1.
         25    2    1    2    0    0  0.33022578432E+02 -0.14151530705E+02  0.51331189162E+02  0.13979737952E+03  0.12497063588E+03 0.  0.
          5    1    3    3  501    0  0.70670265938E+02  0.19104631897E+02  0.51598538781E+02  0.89563902617E+02  0.10000000000E+00 0.  1.
         -5    1    3    3    0  501 -0.37647687506E+02 -0.33256162602E+02 -0.26734961880E+00  0.50233476899E+02  0.10000000000E+00 0.  1.
         21    1    1    2  504  503 -0.33022578432E+02  0.14151530705E+02 -0.13424916984E+01  0.35952173669E+02  0.00000000000E+00 0. -1.
<mgrwt>
<rscale>  1 0.13003237E+03</rscale>
<asrwt>0</asrwt>
<pdfrwt beam="1">  1       21 0.17364481E-01 0.13003237E+03</pdfrwt>
<pdfrwt beam="2">  1       21 0.96739120E-02 0.13003237E+03</pdfrwt>
<totfact> 0.25601663E+06</totfact>
</mgrwt>
</event>
<event>
 6    1  0.4180481E-002  0.1497109E+03  0.7546771E-02  0.1200829E+00
         21   -1    0    0  504  502  0.00000000000E+00  0.00000000000E+00  0.56171338245E+02  0.56171338245E+02  0.00000000000E+00 0. -1.
         21   -1    0    0  502  503 -0.00000000000E+00 -0.00000000000E+00 -0.60669990806E+03  0.60669990806E+03  0.00000000000E+00 0. -1.
         25    2    1    2    0    0  0.67180914432E+02 -0.47705442983E+02 -0.53382694245E+02  0.15894356682E+03  0.12499704330E+03 0.  0.
          5    1    3    3  501    0 -0.14184284685E+02 -0.21885941603E+02 -0.67552118133E+02  0.72411926063E+02  0.10000000000E+00 0. -1.
         -5    1    3    3    0  501  0.81365199117E+02 -0.25819501379E+02  0.14169423889E+02  0.86531640757E+02  0.10000000000E+00 0. -1.
         21    1    1    2  504  503 -0.67180914432E+02  0.47705442983E+02 -0.49714587557E+03  0.50392767949E+03  0.00000000000E+00 0. -1.
<mgrwt>
<rscale>  1 0.14971087E+03</rscale>
<asrwt>0</asrwt>
<pdfrwt beam="1">  1       21 0.86417443E-02 0.14971087E+03</pdfrwt>
<pdfrwt beam="2">  1       21 0.93338448E-01 0.14971087E+03</pdfrwt>
<totfact> 0.10305277E+05</totfact>
</mgrwt>
</event>
<event>
 6    1  0.4180481E-002  0.1704505E+03  0.7546771E-02  0.1177379E+00
         21   -1    0    0  504  502  0.00000000000E+00  0.00000000000E+00  0.76748269866E+02  0.76748269866E+02  0.00000000000E+00 0.  1.
         21   -1    0    0  502  503 -0.00000000000E+00 -0.00000000000E+00 -0.27506422622E+03  0.27506422622E+03  0.00000000000E+00 0. -1.
         25    2    1    2    0    0 -0.11458395761E+03 -0.17282833912E+02 -0.88030512260E+02  0.19184043956E+03  0.12500081388E+03 0.  0.
          5    1    3    3  501    0 -0.42538707061E+02 -0.63354883608E+02 -0.11680809377E+02  0.77199962326E+02  0.10000000000E+00 0. -1.
         -5    1    3    3    0  501 -0.72045250551E+02  0.46072049696E+02 -0.76349702882E+02  0.11464047723E+03  0.10000000000E+00 0. -1.
         21    1    1    2  504  503  0.11458395761E+03  0.17282833912E+02 -0.11028544409E+03  0.15997205652E+03  0.00000000000E+00 0. -1.
<mgrwt>
<rscale>  1 0.17045053E+03</rscale>
<asrwt>0</asrwt>
<pdfrwt beam="1">  1       21 0.11807426E-01 0.17045053E+03</pdfrwt>
<pdfrwt beam="2">  1       21 0.42317574E-01 0.17045053E+03</pdfrwt>
<totfact> 0.32619291E+05</totfact>
</mgrwt>
</event>
<event>
 6    1  0.4180481E-002  0.1332244E+03  0.7546771E-02  0.1222748E+00
         21   -1    0    0  503  502  0.00000000000E+00  0.00000000000E+00  0.28723891046E+02  0.28723891046E+02  0.00000000000E+00 0. -1.
         21   -1    0    0  504  503 -0.00000000000E+00 -0.00000000000E+00 -0.28124115258E+03  0.28124115258E+03  0.00000000000E+00 0. -1.
         25    2    1    2    0    0 -0.11984839573E+02  0.44497836009E+02 -0.19690918452E+03  0.23774349547E+03  0.12500019560E+03 0.  0.
          5    1    3    3  501    0 -0.59360290127E+02  0.21606289457E+02 -0.16384495731E+03  0.17560084233E+03  0.10000000000E+00 0.  1.
         -5    1    3    3    0  501  0.47375450554E+02  0.22891546552E+02 -0.33064227204E+02  0.62142653140E+02  0.10000000000E+00 0.  1.
         21    1    1    2  504  502  0.11984839573E+02 -0.44497836009E+02 -0.55608077011E+02  0.72221548156E+02  0.00000000000E+00 0. -1.
<mgrwt>
<rscale>  1 0.13322441E+03</rscale>
<asrwt>0</asrwt>
<pdfrwt beam="1">  1       21 0.44190603E-02 0.13322441E+03</pdfrwt>
<pdfrwt beam="2">  1       21 0.43267868E-01 0.13322441E+03</pdfrwt>
<totfact> 0.16977110E+06</totfact>
</mgrwt>
</event>
<event>
 6    1  0.4180481E-002  0.1843289E+03  0.7546771E-02  0.1163678E+00
         21   -1    0    0  504  502  0.00000000000E+00  0.00000000000E+00  0.45313400911E+03  0.45313400911E+03  0.00000000000E+00 0.  1.
         21   -1    0    0  502  503 -0.00000000000E+00 -0.00000000000E+00 -0.68538451124E+02  0.68538451124E+02  0.00000000000E+00 0. -1.
         25    2    1    2    0    0 -0.11094795197E+03 -0.77735809084E+02  0.32508334587E+03  0.37370622269E+03  0.12499942022E+03 0.  0.
          5    1    3    3  501    0 -0.56671408326E+02 -0.41562034423E+02  0.29244243073E+03  0.30076841010E+03  0.10000000000E+00 0.  1.
         -5    1    3    3    0  501 -0.54276543648E+02 -0.36173774661E+02  0.32640915139E+02  0.72937812585E+02  0.10000000000E+00 0.  1.
         21    1    1    2  504  503  0.11094795197E+03  0.77735809084E+02  0.59512212117E+02  0.14796623754E+03  0.00000000000E+00 0. -1.
<mgrwt>
<rscale>  1 0.18432894E+03</rscale>
<asrwt>0</asrwt>
<pdfrwt beam="1">  1       21 0.69712923E-01 0.18432894E+03</pdfrwt>
<pdfrwt beam="2">  1       21 0.10544377E-01 0.18432894E+03</pdfrwt>
<totfact> 0.13853319E+05</totfact>
</mgrwt>
</event>
<event>
 6    1  0.4180481E-002  0.1302536E+03  0.7546771E-02  0.1227080E+00
         21   -1    0    0  503  502  0.00000000000E+00  0.00000000000E+00  0.96971704455E+02  0.96971704455E+02  0.00000000000E+00 0. -1.
         21   -1    0    0  504  503 -0.00000000000E+00 -0.00000000000E+00 -0.81325715448E+02  0.81325715448E+02  0.00000000000E+00 0. -1.
         25    2    1    2    0    0  0.31412283550E+02 -0.18850119841E+02  0.37621147422E+02  0.13557779721E+03  0.12499571907E+03 0.  0.
          5    1    3    3  501    0  0.33561093099E+00 -0.55789590378E+02 -0.21023745422E+02  0.59620457067E+02  0.10000000000E+00 0. -1.
         -5    1    3    3    0  501  0.31076672619E+02  0.36939470537E+02  0.58644892844E+02  0.75957340141E+02  0.10000000000E+00 0. -1.
         21    1    1    2  504  502 -0.31412283550E+02  0.18850119841E+02 -0.21975158415E+02  0.42719622695E+02  0.00000000000E+00 0. -1.
<mgrwt>
<rscale>  1 0.13025355E+03</rscale>
<asrwt>0</asrwt>
<pdfrwt beam="1">  1       21 0.14918724E-01 0.13025355E+03</pdfrwt>
<pdfrwt beam="2">  1       21 0.12511649E-01 0.13025355E+03</pdfrwt>
<totfact> 0.21434174E+06</totfact>
</mgrwt>
</event>
<event>
 6    1  0.4180481E-002  0.1273709E+03  0.7546771E-02  0.1231410E+00
         21   -1    0    0  503  502  0.00000000000E+00  0.00000000000E+00  0.14606223495E+04  0.14606223495E+04  0.00000000000E+00 0.  1.
         21   -1    0    0  504  503 -0.00000000000E+00 -0.00000000000E+00 -0.50948437196E+01  0.50948437196E+01  0.00000000000E+00 0.  1.
         25    2    1    2    0    0 -0.20507605115E+02  0.13340454459E+02  0.13891081373E+04  0.13949354011E+04  0.12499930560E+03 0.  0.
          5    1    3    3  501    0  0.79758762743E+01 -0.44412224441E+02  0.25218339216E+03  0.25618847274E+03  0.10000000000E+00 0.  1.
         -5    1    3    3    0  501 -0.28483481389E+02  0.57752678900E+02  0.11369247452E+04  0.11387469283E+04  0.10000000000E+00 0.  1.
         21    1    1    2  504  502  0.20507605115E+02 -0.13340454459E+02  0.66419368416E+02  0.70781792104E+02  0.00000000000E+00 0.  1.
<mgrwt>
<rscale>  1 0.12737094E+03</rscale>
<asrwt>0</asrwt>
<pdfrwt beam="1">  1       21 0.22471080E+00 0.12737094E+03</pdfrwt>
<pdfrwt beam="2">  1       21 0.78382327E-03 0.12737094E+03</pdfrwt>
<totfact> 0.53532959E+05</totfact>
</mgrwt>
</event>
<event>
 6    1  0.4180481E-002  0.1363376E+03  0.7546771E-02  0.1218344E+00
         21   -1    0    0  504  502  0.00000000000E+00  0.00000000000E+00  0.13602359984E+03  0.13602359984E+03  0.00000000000E+00 0. -1.
         21   -1    0    0  502  503 -0.00000000000E+00 -0.00000000000E+00 -0.16124532390E+04  0.16124532390E+04  0.00000000000E+00 0. -1.
         25    2    1    2    0    0  0.54345257779E+02 -0.18874856941E+01  0.10127405648E+03  0.16983630949E+03  0.12502386916E+03 0.  0.
          5    1    3    3  501    0 -0.12781888472E+02  0.46950423860E+02  0.59627078621E+02  0.76961792329E+02  0.10000000000E+00 0. -1.
         -5    1    3    3    0  501  0.67127146251E+02 -0.48837909554E+02  0.41646977857E+02  0.92874517162E+02  0.10000000000E+00 0. -1.
         21    1    1    2  504  503 -0.54345257779E+02  0.18874856941E+01 -0.15777036957E+04  0.15786405294E+04  0.00000000000E+00 0. -1.
<mgrwt>
<rscale>  1 0.13633759E+03</rscale>
<asrwt>0</asrwt>
<pdfrwt beam="1">  1       21 0.20926708E-01 0.13633759E+03</pdfrwt>
<pdfrwt beam="2">  1       21 0.24806973E+00 0.13633759E+03</pdfrwt>
<totfact> 0.15622699E+03</totfact>
</mgrwt>
</event>
<event>
 6    1  0.4180481E-002  0.1262983E+03  0.7546771E-02  0.1233054E+00
         21   -1    0    0  504  502  0.00000000000E+00  0.00000000000E+00  0.27836882511E+03  0.27836882511E+03  0.00000000000E+00 0.  1.
         21   -1    0    0  502  503 -0.00000000000E+00 -0.00000000000E+00 -0.21689485605E+02  0.21689485605E+02  0.00000000000E+00 0.  1.
         25    2    1    2    0    0  0.12798077198E+01  0.18028093806E+02  0.25121556091E+03  0.28117702499E+03  0.12499844504E+03 0.  0.
          5    1    3    3  501    0  0.22219667518E+02  0.62639589584E+02  0.19700332491E+03  0.20791284673E+03  0.10000000000E+00 0. -1.
         -5    1    3    3    0  501 -0.20939859798E+02 -0.44611495778E+02  0.54212235997E+02  0.73264178257E+02  0.10000000000E+00 0. -1.
         21    1    1    2  504  503 -0.12798077198E+01 -0.18028093806E+02  0.54637785887E+01  0.18881285723E+02  0.00000000000E+00 0.  1.
<mgrwt>
<rscale>  1 0.12629830E+03</rscale>
<asrwt>0</asrwt>
<pdfrwt beam="1">  1       21 0.42825971E-01 0.12629830E+03</pdfrwt>
<pdfrwt beam="2">  1       21 0.33368441E-02 0.12629830E+03</pdfrwt>
<totfact> 0.27577966E+06</totfact>
</mgrwt>
</event>
<event>
 6    1  0.4180481E-002  0.1618695E+03  0.7546771E-02  0.1186602E+00
         21   -1    0    0  503  502  0.00000000000E+00  0.00000000000E+00  0.15208407057E+04  0.15208407057E+04  0.00000000000E+00 0.  1.
         21   -1    0    0  504  503 -0.00000000000E+00 -0.00000000000E+00 -0.36008794234E+02  0.36008794234E+02  0.00000000000E+00 0. -1.
         25    2    1    2    0    0 -0.48754655446E+01  0.10272774866E+03  0.14322045707E+04  0.14413228904E+04  0.12499992638E+03 0.  0.
          5    1    3    3  501    0 -0.59143197029E+02  0.48185720365E+02  0.94568501690E+03  0.94875705140E+03  0.10000000000E+00 0.  1.
         -5    1    3    3    0  501  0.54267731485E+02  0.54542028294E+02  0.48651955378E+03  0.49256583899E+03  0.10000000000E+00 0.  1.
         21    1    1    2  504  502  0.48754655446E+01 -0.10272774866E+03  0.52627340753E+02  0.11552660950E+03  0.00000000000E+00 0. -1.
<mgrwt>
<rscale>  1 0.16186952E+03</rscale>
<asrwt>0</asrwt>
<pdfrwt beam="1">  1       21 0.23397544E+00 0.16186952E+03</pdfrwt>
<pdfrwt beam="2">  1       21 0.55398157E-02 0.16186952E+03</pdfrwt>
<totfact> 0.19224451E+04</totfact>
</mgrwt>
</event>
<event>
 6    1  0.4180481E-002  0.1311556E+03  0.7546771E-02  0.1225751E+00
         21   -1    0    0  503  502  0.00000000000E+00  0.00000000000E+00  0.18083487642E+04  0.18083487642E+04  0.00000000000E+00 0.  1.
         21   -1    0    0  504  503 -0.00000000000E+00 -0.00000000000E+00 -0.41933026422E+01  0.41933026422E+01  0.00000000000E+00 0.  1.
         25    2    1    2    0    0 -0.35063106416E+02 -0.18598367839E+02  0.15165585256E+04  0.15222192839E+04  0.12500586393E+03 0.  0.
          5    1    3    3  501    0  0.33801587104E+02  0.11954764656E+02  0.17982450342E+03  0.18336391608E+03  0.10000000000E+00 0. -1.
         -5    1    3    3    0  501 -0.68864693520E+02 -0.30553132495E+02  0.13367340222E+04  0.13388553678E+04  0.10000000000E+00 0. -1.
         21    1    1    2  504  502  0.35063106416E+02  0.18598367839E+02  0.28759693593E+03  0.29032278291E+03  0.00000000000E+00 0.  1.
<mgrwt>
<rscale>  1 0.13115558E+03</rscale>
<asrwt>0</asrwt>
<pdfrwt beam="1">  1       21 0.27820688E+00 0.13115558E+03</pdfrwt>
<pdfrwt beam="2">  1       21 0.64512493E-03 0.13115558E+03</pdfrwt>
<totfact> 0.35629132E+05</totfact>
</mgrwt>
</event>
<event>
 6    1  0.4180481E-002  0.1268245E+03  0.7546771E-02  0.1232245E+00
         21   -1    0    0  503  502  0.00000000000E+00  0.00000000000E+00  0.85806511403E+02  0.85806511403E+02  0.00000000000E+00 0.  1.
         21   -1    0    0  504  503 -0.00000000000E+00 -0.00000000000E+00 -0.18847260476E+03  0.18847260476E+03  0.00000000000E+00 0.  1.
         25    2    1    2    0    0  0.77557444748E+01 -0.19949519056E+02  0.37685228784E+02  0.13230507449E+03  0.12500528542E+03 0.  0.
          5    1    3    3  501    0 -0.87979542570E+01  0.50584984184E+02  0.16105873264E+01  0.51369724698E+02  0.10000000000E+00 0.  1.
         -5    1    3    3    0  501  0.16553698732E+02 -0.70534503241E+02  0.36074641458E+02  0.80935349789E+02  0.10000000000E+00 0.  1.
         21    1    1    2  504  502 -0.77557444748E+01  0.19949519056E+02 -0.14035132214E+03  0.14197404167E+03  0.00000000000E+00 0.  1.
<mgrwt>
<rscale>  1 0.12682451E+03</rscale>
<asrwt>0</asrwt>
<pdfrwt beam="1">  1       21 0.13201002E-01 0.12682451E+03</pdfrwt>
<pdfrwt beam="2">  1       21 0.28995785E-01 0.12682451E+03</pdfrwt>
<totfact> 0.56686331E+05</totfact>
</mgrwt>
</event>
<event>
 6    1  0.4180481E-002  0.1260690E+03  0.7546771E-02  0.1233408E+00
         21   -1    0    0  503  502  0.00000000000E+00  0.00000000000E+00  0.23444967155E+03  0.23444967155E+03  0.00000000000E+00 0.  1.
         21   -1    0    0  504  503 -0.00000000000E+00 -0.00000000000E+00 -0.22488639535E+02  0.22488639535E+02  0.00000000000E+00 0.  1.
         25    2    1    2    0    0  0.27431481108E-01 -0.16385665664E+02  0.20086170989E+03  0.23714725898E+03  0.12499962060E+03 0.  0.
          5    1    3    3  501    0 -0.30608098384E+02 -0.43170894874E+02  0.28620542565E+02  0.60164169633E+02  0.10000000000E+00 0. -1.
         -5    1    3    3    0  501  0.30635529865E+02  0.26785229211E+02  0.17224116732E+03  0.17698308935E+03  0.10000000000E+00 0. -1.
         21    1    1    2  504  502 -0.27431481108E-01  0.16385665664E+02  0.11099322125E+02  0.19791052104E+02  0.00000000000E+00 0.  1.
<mgrwt>
<rscale>  1 0.12606901E+03</rscale>
<asrwt>0</asrwt>
<pdfrwt beam="1">  1       21 0.36069179E-01 0.12606901E+03</pdfrwt>
<pdfrwt beam="2">  1       21 0.34597909E-02 0.12606901E+03</pdfrwt>
<totfact> 0.36581896E+06</totfact>
</mgrwt>
</event>
<event>
 6    1  0.4180481E-002  0.1297265E+03  0.7546771E-02  0.1227862E+00
         21   -1    0    0  503  502  0.00000000000E+00  0.00000000000E+00  0.14278706329E+04  0.14278706329E+04  0.00000000000E+00 0. -1.
         21   -1    0    0  504  503 -0.00000000000E+00 -0.00000000000E+00 -0.54585098627E+01  0.54585098627E+01  0.00000000000E+00 0. -1.
         25    2    1    2    0    0  0.34249342603E+02 -0.57256498268E+01  0.12875312738E+04  0.12940501277E+04  0.12499260602E+03 0.  0.
          5    1    3    3  501    0 -0.44634044172E+02  0.84227955649E+01  0.63364699925E+03  0.63527291068E+03  0.10000000000E+00 0. -1.
         -5    1    3    3    0  501  0.78883386776E+02 -0.14148445392E+02  0.65388427454E+03  0.65877721706E+03  0.10000000000E+00 0. -1.
         21    1    1    2  504  502 -0.34249342603E+02  0.57256498268E+01  0.13488084928E+03  0.13927901506E+03  0.00000000000E+00 0. -1.
<mgrwt>
<rscale>  1 0.12972645E+03</rscale>
<asrwt>0</asrwt>
<pdfrwt beam="1">  1       21 0.21967211E+00 0.12972645E+03</pdfrwt>
<pdfrwt beam="2">  1       21 0.83977189E-03 0.12972645E+03</pdfrwt>
<totfact> 0.51441831E+05</totfact>
</mgrwt>
</event>
<event>
 6    1  0.4180481E-002  0.1260060E+03  0.7546771E-02  0.1233505E+00
         21   -1    0    0  503  502  0.00000000000E+00  0.00000000000E+00  0.57274322955E+03  0.57274322955E+03  0.00000000000E+00 0.  1.
         21   -1    0    0  504  503 -0.00000000000E+00 -0.00000000000E+00 -0.90706096138E+01  0.90706096138E+01  0.00000000000E+00 0.  1.
         25    2    1    2    0    0 -0.90388275548E+01  0.13068485035E+02  0.46064735868E+03  0.47757042133E+03  0.12500013026E+03 0.  0.
          5    1    3    3  501    0  0.27280237531E+02  0.41760513788E+02  0.38957432630E+03  0.39275478047E+03  0.10000000000E+00 0. -1.
         -5    1    3    3    0  501 -0.36319065086E+02 -0.28692028753E+02  0.71073032387E+02  0.84815640865E+02  0.10000000000E+00 0. -1.
         21    1    1    2  504  502  0.90388275548E+01 -0.13068485035E+02  0.10302526125E+03  0.10424341782E+03  0.00000000000E+00 0.  1.
<mgrwt>
<rscale>  1 0.12600602E+03</rscale>
<asrwt>0</asrwt>
<pdfrwt beam="1">  1       21 0.88114315E-01 0.12600602E+03</pdfrwt>
<pdfrwt beam="2">  1       21 0.13954788E-02 0.12600602E+03</pdfrwt>
<totfact> 0.24212916E+06</totfact>
</mgrwt>
</event>
<event>
 6    1  0.4180481E-002  0.1473408E+03  0.7546771E-02  0.1203779E+00
         21   -1    0    0  503  502  0.00000000000E+00  0.00000000000E+00  0.41924441655E+02  0.41924441655E+02  0.00000000000E+00 0.  1.
         21   -1    0    0  504  503 -0.00000000000E+00 -0.00000000000E+00 -0.86025264137E+03  0.86025264137E+03  0.00000000000E+00 0.  1.
         25    2    1    2    0    0  0.52843216575E+02 -0.57329619834E+02 -0.96453464499E+02  0.17610392955E+03  0.12502092762E+03 0.  0.
          5    1    3    3  501    0  0.70258341362E+02 -0.87310095718E+02 -0.66696571927E+02  0.13041368813E+03  0.10000000000E+00 0.  1.
         -5    1    3    3    0  501 -0.17415124787E+02  0.29980475884E+02 -0.29756892572E+02  0.45690241421E+02  0.10000000000E+00 0.  1.
         21    1    1    2  504  502 -0.52843216575E+02  0.57329619834E+02 -0.72187473522E+03  0.72607315348E+03  0.00000000000E+00 0.  1.
<mgrwt>
<rscale>  1 0.14734084E+03</rscale>
<asrwt>0</asrwt>
<pdfrwt beam="1">  1       21 0.64499135E-02 0.14734084E+03</pdfrwt>
<pdfrwt beam="2">  1       21 0.13234657E+00 0.14734084E+03</pdfrwt>
<totfact> 0.73624651E+04</totfact>
</mgrwt>
</event>
<event>
 6    1  0.4180481E-002  0.1369274E+03  0.7546771E-02  0.1217524E+00
         21   -1    0    0  503  502  0.00000000000E+00  0.00000000000E+00  0.94458277932E+02  0.94458277932E+02  0.00000000000E+00 0. -1.
         21   -1    0    0  504  503 -0.00000000000E+00 -0.00000000000E+00 -0.15388769115E+03  0.15388769115E+03  0.00000000000E+00 0. -1.
         25    2    1    2    0    0  0.82153434444E+01 -0.55281886024E+02  0.32526836900E+02  0.14073774112E+03  0.12500215144E+03 0.  0.
          5    1    3    3  501    0  0.14924934843E+02 -0.20235372460E+02 -0.47149968086E+02  0.53435507569E+02  0.10000000000E+00 0.  1.
         -5    1    3    3    0  501 -0.67095913981E+01 -0.35046513564E+02  0.79676804986E+02  0.87302233548E+02  0.10000000000E+00 0.  1.
         21    1    1    2  504  502 -0.82153434444E+01  0.55281886024E+02 -0.91956250121E+02  0.10760822797E+03  0.00000000000E+00 0. -1.
<mgrwt>
<rscale>  1 0.13692741E+03</rscale>
<asrwt>0</asrwt>
<pdfrwt beam="1">  1       21 0.14532043E-01 0.13692741E+03</pdfrwt>
<pdfrwt beam="2">  1       21 0.23675029E-01 0.13692741E+03</pdfrwt>
<totfact> 0.70131745E+05</totfact>
</mgrwt>
</event>
<event>
 6    1  0.4180481E-002  0.1262614E+03  0.7546771E-02  0.1233111E+00
         21   -1    0    0  504  502  0.00000000000E+00  0.00000000000E+00  0.15261174799E+04  0.15261174799E+04  0.00000000000E+00 0.  1.
         21   -1    0    0  502  503 -0.00000000000E+00 -0.00000000000E+00 -0.40885756618E+01  0.40885756618E+01  0.00000000000E+00 0.  1.
         25    2    1    2    0    0  0.17757904423E+02  0.16273704278E+01  0.14655510646E+04  0.14709798969E+04  0.12499577000E+03 0.  0.
          5    1    3    3  501    0  0.70209683462E+02  0.10827681558E+02  0.96248768053E+03  0.96510578876E+03  0.10000000000E+00 0.  1.
         -5    1    3    3    0  501 -0.52451779039E+02 -0.92003111299E+01  0.50306338408E+03  0.50587410811E+03  0.10000000000E+00 0.  1.
         21    1    1    2  504  503 -0.17757904423E+02 -0.16273704278E+01  0.56477839624E+02  0.59226158685E+02  0.00000000000E+00 0.  1.
<mgrwt>
<rscale>  1 0.12626137E+03</rscale>
<asrwt>0</asrwt>
<pdfrwt beam="1">  1       21 0.23478685E+00 0.12626137E+03</pdfrwt>
<pdfrwt beam="2">  1       21 0.62901286E-03 0.12626137E+03</pdfrwt>
<totfact> 0.65835483E+05</totfact>
</mgrwt>
</event>
<event>
 6    1  0.4180481E-002  0.1260634E+03  0.7546771E-02  0.1233417E+00
         21   -1    0    0  504  502  0.00000000000E+00  0.00000000000E+00  0.85072608935E+02  0.85072608935E+02  0.00000000000E+00 0.  1.
         21   -1    0    0  502  503 -0.00000000000E+00 -0.00000000000E+00 -0.60917125928E+02  0.60917125928E+02  0.00000000000E+00 0.  1.
         25    2    1    2    0    0 -0.16271136329E+02 -0.15806848256E+01  0.28134451381E+02  0.12916473468E+03  0.12499893155E+03 0.  0.
          5    1    3    3  501    0  0.52147545759E+01 -0.31199838238E+02 -0.40497487549E+02  0.51387547802E+02  0.10000000000E+00 0. -1.
         -5    1    3    3    0  501 -0.21485890905E+02  0.29619153413E+02  0.68631938930E+02  0.77777186875E+02  0.10000000000E+00 0. -1.
         21    1    1    2  504  503  0.16271136329E+02  0.15806848256E+01 -0.39789683734E+01  0.16825000186E+02  0.00000000000E+00 0.  1.
<mgrwt>
<rscale>  1 0.12606340E+03</rscale>
<asrwt>0</asrwt>
<pdfrwt beam="1">  1       21 0.13088094E-01 0.12606340E+03</pdfrwt>
<pdfrwt beam="2">  1       21 0.93718656E-02 0.12606340E+03</pdfrwt>
<totfact> 0.44992393E+06</totfact>
</mgrwt>
</event>
<event>
 6    1  0.4180481E-002  0.1348308E+03  0.7546771E-02  0.1220459E+00
         21   -1    0    0  503  502  0.00000000000E+00  0.00000000000E+00  0.46851310271E+02  0.46851310271E+02  0.00000000000E+00 0. -1.
         21   -1    0    0  504  503 -0.00000000000E+00 -0.00000000000E+00 -0.19471183926E+03  0.19471183926E+03  0.00000000000E+00 0. -1.
         25    2    1    2    0    0  0.50021671276E+02  0.72346392635E+01 -0.79419095428E+02  0.15648237949E+03  0.12499933908E+03 0.  0.
          5    1    3    3  501    0  0.65527396273E+02 -0.37615999243E+02 -0.78590630674E+02  0.10901972432E+03  0.10000000000E+00 0.  1.
         -5    1    3    3    0  501 -0.15505724997E+02  0.44850638506E+02 -0.82846475454E+00  0.47462655171E+02  0.10000000000E+00 0.  1.
         21    1    1    2  504  502 -0.50021671276E+02 -0.72346392635E+01 -0.68441433560E+02  0.85080770038E+02  0.00000000000E+00 0. -1.
<mgrwt>
<rscale>  1 0.13483079E+03</rscale>
<asrwt>0</asrwt>
<pdfrwt beam="1">  1       21 0.72078939E-02 0.13483079E+03</pdfrwt>
<pdfrwt beam="2">  1       21 0.29955668E-01 0.13483079E+03</pdfrwt>
<totfact> 0.15335917E+06</totfact>
</mgrwt>
</event>
<event>
 6    1  0.4180481E-002  0.1301414E+03  0.7546771E-02  0.1227246E+00
         21   -1    0    0  504  502  0.00000000000E+00  0.00000000000E+00  0.24706740196E+02  0.24706740196E+02  0.00000000000E+00 0. -1.
         21   -1    0    0  502  503 -0.00000000000E+00 -0.00000000000E+00 -0.28035355146E+03  0.28035355146E+03  0.00000000000E+00 0. -1.
         25    2    1    2    0    0  0.23699347411E+01 -0.36147544522E+02 -0.19585556122E+03  0.23515138559E+03  0.12499804686E+03 0.  0.
          5    1    3    3  501    0 -0.26001344095E+02 -0.60858569636E+02 -0.18425441890E+03  0.19577930502E+03  0.10000000000E+00 0.  1.
         -5    1    3    3    0  501  0.28371278836E+02  0.24711025114E+02 -0.11601142328E+02  0.39372080568E+02  0.10000000000E+00 0.  1.
         21    1    1    2  504  503 -0.23699347411E+01  0.36147544522E+02 -0.59791250035E+02  0.69908906059E+02  0.00000000000E+00 0. -1.
<mgrwt>
<rscale>  1 0.13014136E+03</rscale>
<asrwt>0</asrwt>
<pdfrwt beam="1">  1       21 0.38010371E-02 0.13014136E+03</pdfrwt>
<pdfrwt beam="2">  1       21 0.43131314E-01 0.13014136E+03</pdfrwt>
<totfact> 0.21941736E+06</totfact>
</mgrwt>
</event>
<event>
 6    1  0.4180481E-002  0.1316996E+03  0.7546771E-02  0.1224955E+00
         21   -1    0    0  503  502  0.00000000000E+00  0.00000000000E+00  0.23452492875E+02  0.23452492875E+02  0.00000000000E+00 0. -1.
         21   -1    0    0  504  503 -0.00000000000E+00 -0.00000000000E+00 -0.88689654903E+03  0.88689654903E+03  0.00000000000E+00 0. -1.
         25    2    1    2    0    0  0.11738669213E+02  0.39783058514E+02 -0.16705377418E+03  0.21272456345E+03  0.12499715329E+03 0.  0.
          5    1    3    3  501    0  0.38653770580E+02  0.60474252041E+02 -0.16353716426E+03  0.17859356997E+03  0.10000000000E+00 0.  1.
         -5    1    3    3    0  501 -0.26915101367E+02 -0.20691193528E+02 -0.35166099201E+01  0.34130993489E+02  0.10000000000E+00 0.  1.
         21    1    1    2  504  502 -0.11738669213E+02 -0.39783058514E+02 -0.69639028198E+03  0.69762447845E+03  0.00000000000E+00 0. -1.
<mgrwt>
<rscale>  1 0.13169957E+03</rscale>
<asrwt>0</asrwt>
<pdfrwt beam="1">  1       21 0.36080764E-02 0.13169957E+03</pdfrwt>
<pdfrwt beam="2">  1       21 0.13644560E+00 0.13169957E+03</pdfrwt>
<totfact> 0.18226134E+05</totfact>
</mgrwt>
</event>
<event>
 6    1  0.4180481E-002  0.1266925E+03  0.7546771E-02  0.1232448E+00
         21   -1    0    0  503  502  0.00000000000E+00  0.00000000000E+00  0.98683479808E+02  0.98683479808E+02  0.00000000000E+00 0.  1.
         21   -1    0    0  504  503 -0.00000000000E+00 -0.00000000000E+00 -0.11442176872E+03  0.11442176872E+03  0.00000000000E+00 0.  1.
         25    2    1    2    0    0  0.78336053818E+01 -0.19164656507E+02  0.55942871568E+02  0.13849400139E+03  0.12498933598E+03 0.  0.
          5    1    3    3  501    0  0.62962964636E+02  0.98959037117E+01  0.35215100942E+02  0.72817423467E+02  0.10000000000E+00 0.  1.
         -5    1    3    3    0  501 -0.55129359255E+02 -0.29060560218E+02  0.20727770626E+02  0.65676577919E+02  0.10000000000E+00 0.  1.
         21    1    1    2  504  502 -0.78336053818E+01  0.19164656507E+02 -0.71681160475E+02  0.74611247137E+02  0.00000000000E+00 0. -1.
<mgrwt>
<rscale>  1 0.12669248E+03</rscale>
<asrwt>0</asrwt>
<pdfrwt beam="1">  1       21 0.15182074E-01 0.12669248E+03</pdfrwt>
<pdfrwt beam="2">  1       21 0.17603349E-01 0.12669248E+03</pdfrwt>
<totfact> 0.11221294E+06</totfact>
</mgrwt>
</event>
<event>
 6    1  0.4180481E-002  0.1262625E+03  0.7546771E-02  0.1233109E+00
         21   -1    0    0  504  502  0.00000000000E+00  0.00000000000E+00  0.40273076912E+02  0.40273076912E+02  0.00000000000E+00 0. -1.
         21   -1    0    0  502  503 -0.00000000000E+00 -0.00000000000E+00 -0.16415864068E+03  0.16415864068E+03  0.00000000000E+00 0. -1.
         25    2    1    2    0    0  0.16280339468E+02 -0.72108226405E+01 -0.63216859229E+02  0.14120405650E+03  0.12500067546E+03 0.  0.
          5    1    3    3  501    0 -0.49500166959E+02  0.15835493588E+02 -0.86549087016E+01  0.52687254918E+02  0.10000000000E+00 0. -1.
         -5    1    3    3    0  501  0.65780506428E+02 -0.23046316228E+02 -0.54561950527E+02  0.88516801585E+02  0.10000000000E+00 0. -1.
         21    1    1    2  504  503 -0.16280339468E+02  0.72108226405E+01 -0.60668704540E+02  0.63227661090E+02  0.00000000000E+00 0. -1.
<mgrwt>
<rscale>  1 0.12626248E+03</rscale>
<asrwt>0</asrwt>
<pdfrwt beam="1">  1       21 0.61958580E-02 0.12626248E+03</pdfrwt>
<pdfrwt beam="2">  1       21 0.25255175E-01 0.12626248E+03</pdfrwt>
<totfact> 0.27460474E+06</totfact>
</mgrwt>
</event>
<event>
 6    1  0.4180481E-002  0.1318624E+03  0.7546771E-02  0.1224718E+00
         21   -1    0    0  504  502  0.00000000000E+00  0.00000000000E+00  0.53913867077E+03  0.53913867077E+03  0.00000000000E+00 0. -1.
         21   -1    0    0  502  503 -0.00000000000E+00 -0.00000000000E+00 -0.47340481142E+02  0.47340481142E+02  0.00000000000E+00 0. -1.
         25    2    1    2    0    0  0.38899742547E+02 -0.15803474583E+02  0.51963343042E+03  0.53610316152E+03  0.12499903200E+03 0.  0.
          5    1    3    3  501    0  0.40927491939E+02  0.47117277118E+02  0.17569152426E+03  0.18644736280E+03  0.10000000000E+00 0. -1.
         -5    1    3    3    0  501 -0.20277493918E+01 -0.62920751702E+02  0.34394190616E+03  0.34965579871E+03  0.10000000000E+00 0. -1.
         21    1    1    2  504  503 -0.38899742547E+02  0.15803474583E+02 -0.27835240785E+02  0.50375990399E+02  0.00000000000E+00 0. -1.
<mgrwt>
<rscale>  1 0.13186242E+03</rscale>
<asrwt>0</asrwt>
<pdfrwt beam="1">  1       21 0.82944406E-01 0.13186242E+03</pdfrwt>
<pdfrwt beam="2">  1       21 0.72831513E-02 0.13186242E+03</pdfrwt>
<totfact> 0.18244550E+05</totfact>
</mgrwt>
</event>
<event>
 6    1  0.4180481E-002  0.1310852E+03  0.7546771E-02  0.1225854E+00
         21   -1    0    0  503  502  0.00000000000E+00  0.00000000000E+00  0.19221152180E+03  0.19221152180E+03  0.00000000000E+00 0. -1.
         21   -1    0    0  504  503 -0.00000000000E+00 -0.00000000000E+00 -0.14945885133E+03  0.14945885133E+03  0.00000000000E+00 0.  1.
         25    2    1    2    0    0  0.96913423040E+01  0.38268522685E+02  0.16642491698E+03  0.21185039586E+03  0.12499974115E+03 0.  0.
          5    1    3    3  501    0  0.39401324632E+02 -0.11999184326E+02  0.66262381321E+01  0.41717644217E+02  0.10000000000E+00 0.  1.
         -5    1    3    3    0  501 -0.29709982328E+02  0.50267707011E+02  0.15979867885E+03  0.17013275164E+03  0.10000000000E+00 0.  1.
         21    1    1    2  504  502 -0.96913423040E+01 -0.38268522685E+02 -0.12367224651E+03  0.12981997728E+03  0.00000000000E+00 0.  1.
<mgrwt>
<rscale>  1 0.13108523E+03</rscale>
<asrwt>0</asrwt>
<pdfrwt beam="1">  1       21 0.29571003E-01 0.13108523E+03</pdfrwt>
<pdfrwt beam="2">  1       21 0.22993669E-01 0.13108523E+03</pdfrwt>
<totfact> 0.19793580E+05</totfact>
</mgrwt>
</event>
<event>
 6    1  0.4180481E-002  0.1267305E+03  0.7546771E-02  0.1232389E+00
         21   -1    0    0  504  502  0.00000000000E+00  0.00000000000E+00  0.24865733903E+04  0.24865733903E+04  0.00000000000E+00 0. -1.
         21   -1    0    0  502  503 -0.00000000000E+00 -0.00000000000E+00 -0.82545140124E+02  0.82545140124E+02  0.00000000000E+00 0. -1.
         25    2    1    2    0    0  0.45632076701E+01  0.20363855985E+02  0.24836124459E+04  0.24868436636E+04  0.12500046468E+03 0.  0.
          5    1    3    3  501    0  0.42008832803E+02  0.44206025121E+02  0.20618140758E+04  0.20627157361E+04  0.10000000000E+00 0.  1.
         -5    1    3    3    0  501 -0.37445625133E+02 -0.23842169136E+02  0.42179837012E+03  0.42412792753E+03  0.10000000000E+00 0.  1.
         21    1    1    2  504  503 -0.45632076701E+01 -0.20363855985E+02 -0.79584195755E+02  0.82274866811E+02  0.00000000000E+00 0. -1.
<mgrwt>
<rscale>  1 0.12673052E+03</rscale>
<asrwt>0</asrwt>
<pdfrwt beam="1">  1       21 0.38254970E+00 0.12673052E+03</pdfrwt>
<pdfrwt beam="2">  1       21 0.12699254E-01 0.12673052E+03</pdfrwt>
<totfact> 0.67129583E+02</totfact>
</mgrwt>
</event>
<event>
 6    1  0.4180481E-002  0.1351085E+03  0.7546771E-02  0.1220067E+00
         21   -1    0    0  504  502  0.00000000000E+00  0.00000000000E+00  0.13751942518E+04  0.13751942518E+04  0.00000000000E+00 0.  1.
         21   -1    0    0  502  503 -0.00000000000E+00 -0.00000000000E+00 -0.52707708675E+02  0.52707708675E+02  0.00000000000E+00 0.  1.
         25    2    1    2    0    0 -0.37086090755E+02 -0.35411634303E+02  0.13585251599E+04  0.13652270543E+04  0.12499975127E+03 0.  0.
          5    1    3    3  501    0  0.35398617182E+02 -0.37286323479E+02  0.31335977281E+03  0.31754950674E+03  0.10000000000E+00 0.  1.
         -5    1    3    3    0  501 -0.72484707937E+02  0.18746891761E+01  0.10451653871E+04  0.10476775476E+04  0.10000000000E+00 0.  1.
         21    1    1    2  504  503  0.37086090755E+02  0.35411634303E+02 -0.36038616724E+02  0.62674906198E+02  0.00000000000E+00 0.  1.
<mgrwt>
<rscale>  1 0.13510847E+03</rscale>
<asrwt>0</asrwt>
<pdfrwt beam="1">  1       21 0.21156832E+00 0.13510847E+03</pdfrwt>
<pdfrwt beam="2">  1       21 0.81088793E-02 0.13510847E+03</pdfrwt>
<totfact> 0.14023115E+04</totfact>
</mgrwt>
</event>
<event>
 6    1  0.4180481E-002  0.1332992E+03  0.7546771E-02  0.1222641E+00
         21   -1    0    0  503  502  0.00000000000E+00  0.00000000000E+00  0.54614774367E+02  0.54614774367E+02  0.00000000000E+00 0. -1.
         21   -1    0    0  504  503 -0.00000000000E+00 -0.00000000000E+00 -0.17800572008E+03  0.17800572008E+03  0.00000000000E+00 0. -1.
         25    2    1    2    0    0  0.13361378220E+02 -0.44326982206E+02 -0.43379523933E+02  0.14018005203E+03  0.12500102444E+03 0.  0.
          5    1    3    3  501    0 -0.20769949972E+02 -0.21108290012E+02 -0.79807726920E+02  0.85124814274E+02  0.10000000000E+00 0. -1.
         -5    1    3    3    0  501  0.34131328193E+02 -0.23218692194E+02  0.36428202987E+02  0.55055237755E+02  0.10000000000E+00 0. -1.
         21    1    1    2  504  502 -0.13361378220E+02  0.44326982206E+02 -0.80011421784E+02  0.92440442423E+02  0.00000000000E+00 0. -1.
<mgrwt>
<rscale>  1 0.13329915E+03</rscale>
<asrwt>0</asrwt>
<pdfrwt beam="1">  1       21 0.84022731E-02 0.13329915E+03</pdfrwt>
<pdfrwt beam="2">  1       21 0.27385495E-01 0.13329915E+03</pdfrwt>
<totfact> 0.13987679E+06</totfact>
</mgrwt>
</event>
<event>
 6    1  0.4180481E-002  0.1259236E+03  0.7546771E-02  0.1233633E+00
         21   -1    0    0  503  502  0.00000000000E+00  0.00000000000E+00  0.15896167363E+04  0.15896167363E+04  0.00000000000E+00 0.  1.
         21   -1    0    0  504  503 -0.00000000000E+00 -0.00000000000E+00 -0.36423158555E+01  0.36423158555E+01  0.00000000000E+00 0.  1.
         25    2    1    2    0    0 -0.52292706444E+01 -0.14361276540E+02  0.15318829464E+04  0.15370498083E+04  0.12499263999E+03 0.  0.
          5    1    3    3  501    0  0.34768115520E+02 -0.38179585223E+02  0.12708259646E+04  0.12718746577E+04  0.10000000000E+00 0. -1.
         -5    1    3    3    0  501 -0.39997386164E+02  0.23818308683E+02  0.26105698180E+03  0.26517515056E+03  0.10000000000E+00 0. -1.
         21    1    1    2  504  502  0.52292706444E+01  0.14361276540E+02  0.54091474008E+02  0.56209243863E+02  0.00000000000E+00 0.  1.
<mgrwt>
<rscale>  1 0.12592359E+03</rscale>
<asrwt>0</asrwt>
<pdfrwt beam="1">  1       21 0.24455587E+00 0.12592359E+03</pdfrwt>
<pdfrwt beam="2">  1       21 0.56035756E-03 0.12592359E+03</pdfrwt>
<totfact> 0.69138675E+05</totfact>
</mgrwt>
</event>
<event>
 6    1  0.4180481E-002  0.1278426E+03  0.7546771E-02  0.1230693E+00
         21   -1    0    0  504  502  0.00000000000E+00  0.00000000000E+00  0.11636557999E+02  0.11636557999E+02  0.00000000000E+00 0. -1.
         21   -1    0    0  502  503 -0.00000000000E+00 -0.00000000000E+00 -0.52764067101E+03  0.52764067101E+03  0.00000000000E+00 0. -1.
         25    2    1    2    0    0 -0.11919134415E+02  0.24041385310E+02 -0.38898342161E+03  0.40945307865E+03  0.12499466930E+03 0.  0.
          5    1    3    3  501    0 -0.67742568430E+02  0.21404645592E+02 -0.19313643183E+03  0.20578849757E+03  0.10000000000E+00 0. -1.
         -5    1    3    3    0  501  0.55823434016E+02  0.26367397179E+01 -0.19584698978E+03  0.20366458108E+03  0.10000000000E+00 0. -1.
         21    1    1    2  504  503  0.11919134415E+02 -0.24041385310E+02 -0.12702069140E+03  0.12982415035E+03  0.00000000000E+00 0.  1.
<mgrwt>
<rscale>  1 0.12784256E+03</rscale>
<asrwt>0</asrwt>
<pdfrwt beam="1">  1       21 0.17902398E-02 0.12784256E+03</pdfrwt>
<pdfrwt beam="2">  1       21 0.81175482E-01 0.12784256E+03</pdfrwt>
<totfact> 0.19567942E+06</totfact>
</mgrwt>
</event>
<event>
 6    1  0.4180481E-002  0.1299113E+03  0.7546771E-02  0.1227587E+00
         21   -1    0    0  503  502  0.00000000000E+00  0.00000000000E+00  0.81878985183E+01  0.81878985183E+01  0.00000000000E+00 0. -1.
         21   -1    0    0  504  503 -0.00000000000E+00 -0.00000000000E+00 -0.83723319304E+03  0.83723319304E+03  0.00000000000E+00 0. -1.
         25    2    1    2    0    0  0.34453153962E+02  0.80456845343E+01 -0.62982805601E+03  0.64308656416E+03  0.12500078403E+03 0.  0.
          5    1    3    3  501    0  0.31040688264E+02  0.18022984660E+02 -0.42353600945E+02  0.55517473078E+02  0.10000000000E+00 0.  1.
         -5    1    3    3    0  501  0.34124656974E+01 -0.99773001262E+01 -0.58747445507E+03  0.58756909108E+03  0.10000000000E+00 0.  1.
         21    1    1    2  504  502 -0.34453153962E+02 -0.80456845343E+01 -0.19921723851E+03  0.20233452740E+03  0.00000000000E+00 0. -1.
<mgrwt>
<rscale>  1 0.12991131E+03</rscale>
<asrwt>0</asrwt>
<pdfrwt beam="1">  1       21 0.12596775E-02 0.12991131E+03</pdfrwt>
<pdfrwt beam="2">  1       21 0.12880502E+00 0.12991131E+03</pdfrwt>
<totfact> 0.11568940E+06</totfact>
</mgrwt>
</event>
<event>
 6    1  0.4180481E-002  0.1351707E+03  0.7546771E-02  0.1219979E+00
         21   -1    0    0  503  502  0.00000000000E+00  0.00000000000E+00  0.18824858267E+03  0.18824858267E+03  0.00000000000E+00 0.  1.
         21   -1    0    0  504  503 -0.00000000000E+00 -0.00000000000E+00 -0.46845002692E+02  0.46845002692E+02  0.00000000000E+00 0.  1.
         25    2    1    2    0    0  0.50779497307E+02  0.81787026072E+01  0.90101372838E+02  0.16244811076E+03  0.12500273108E+03 0.  0.
          5    1    3    3  501    0  0.32915488239E+02  0.43107716059E+02 -0.98032175756E+01  0.55116400687E+02  0.10000000000E+00 0. -1.
         -5    1    3    3    0  501  0.17864009068E+02 -0.34929013452E+02  0.99904590414E+02  0.10733171007E+03  0.10000000000E+00 0. -1.
         21    1    1    2  504  502 -0.50779497307E+02 -0.81787026072E+01  0.51302207136E+02  0.72645474602E+02  0.00000000000E+00 0.  1.
<mgrwt>
<rscale>  1 0.13517075E+03</rscale>
<asrwt>0</asrwt>
<pdfrwt beam="1">  1       21 0.28961320E-01 0.13517075E+03</pdfrwt>
<pdfrwt beam="2">  1       21 0.72069236E-02 0.13517075E+03</pdfrwt>
<totfact> 0.16371290E+06</totfact>
</mgrwt>
</event>
<event>
 6    1  0.4180481E-002  0.1262653E+03  0.7546771E-02  0.1233105E+00
         21   -1    0    0  504  502  0.00000000000E+00  0.00000000000E+00  0.78647594635E+03  0.78647594635E+03  0.00000000000E+00 0.  1.
         21   -1    0    0  502  503 -0.00000000000E+00 -0.00000000000E+00 -0.14636342568E+03  0.14636342568E+03  0.00000000000E+00 0.  1.
         25    2    1    2    0    0 -0.70915626237E+01 -0.16376398146E+02  0.78084096574E+03  0.79098391064E+03  0.12499782570E+03 0.  0.
          5    1    3    3  501    0  0.46398565628E+02  0.30181217178E+02  0.34279505945E+03  0.34723507246E+03  0.10000000000E+00 0. -1.
         -5    1    3    3    0  501 -0.53490128252E+02 -0.46557615323E+02  0.43804590629E+03  0.44374883818E+03  0.10000000000E+00 0. -1.
         21    1    1    2  504  503  0.70915626237E+01  0.16376398146E+02 -0.14072844507E+03  0.14185546140E+03  0.00000000000E+00 0.  1.
<mgrwt>
<rscale>  1 0.12626533E+03</rscale>
<asrwt>0</asrwt>
<pdfrwt beam="1">  1       21 0.12099630E+00 0.12626533E+03</pdfrwt>
<pdfrwt beam="2">  1       21 0.22517451E-01 0.12626533E+03</pdfrwt>
<totfact> 0.10090209E+04</totfact>
</mgrwt>
</event>
<event>
 6    1  0.4180481E-002  0.1269376E+03  0.7546771E-02  0.1232072E+00
         21   -1    0    0  503  502  0.00000000000E+00  0.00000000000E+00  0.77906451904E+02  0.77906451904E+02  0.00000000000E+00 0.  1.
         21   -1    0    0  504  503 -0.00000000000E+00 -0.00000000000E+00 -0.11068310819E+03  0.11068310819E+03  0.00000000000E+00 0. -1.
         25    2    1    2    0    0  0.18363241747E+02  0.12009152985E+02  0.22682042699E+02  0.12894816762E+03  0.12502690298E+03 0.  0.
          5    1    3    3  501    0  0.29626488348E+02 -0.52443112476E+02  0.17721797408E+01  0.60259102873E+02  0.10000000000E+00 0. -1.
         -5    1    3    3    0  501 -0.11263246601E+02  0.64452265462E+02  0.20909862958E+02  0.68689064749E+02  0.10000000000E+00 0. -1.
         21    1    1    2  504  502 -0.18363241747E+02 -0.12009152985E+02 -0.55458698985E+02  0.59641392472E+02  0.00000000000E+00 0. -1.
<mgrwt>
<rscale>  1 0.12693760E+03</rscale>
<asrwt>0</asrwt>
<pdfrwt beam="1">  1       21 0.11985608E-01 0.12693760E+03</pdfrwt>
<pdfrwt beam="2">  1       21 0.17028170E-01 0.12693760E+03</pdfrwt>
<totfact> 0.18189974E+06</totfact>
</mgrwt>
</event>
<event>
 6    1  0.4180481E-002  0.1268391E+03  0.7546771E-02  0.1232223E+00
         21   -1    0    0  504  502  0.00000000000E+00  0.00000000000E+00  0.63319909843E+03  0.63319909843E+03  0.00000000000E+00 0.  1.
         21   -1    0    0  502  503 -0.00000000000E+00 -0.00000000000E+00 -0.87120438802E+01  0.87120438802E+01  0.00000000000E+00 0.  1.
         25    2    1    2    0    0  0.21489845360E+02 -0.10611677921E+01  0.54481118611E+03  0.55938124747E+03  0.12500084792E+03 0.  0.
          5    1    3    3  501    0  0.56796502768E+01 -0.62632876708E+02  0.29258155241E+03  0.29926428200E+03  0.10000000000E+00 0. -1.
         -5    1    3    3    0  501  0.15810195083E+02  0.61571708916E+02  0.25222963370E+03  0.26011696547E+03  0.10000000000E+00 0. -1.
         21    1    1    2  504  503 -0.21489845360E+02  0.10611677921E+01  0.79675868435E+02  0.82529894836E+02  0.00000000000E+00 0.  1.
<mgrwt>
<rscale>  1 0.12683908E+03</rscale>
<asrwt>0</asrwt>
<pdfrwt beam="1">  1       21 0.97415210E-01 0.12683908E+03</pdfrwt>
<pdfrwt beam="2">  1       21 0.13403149E-02 0.12683908E+03</pdfrwt>
<totfact> 0.20501281E+06</totfact>
</mgrwt>
</event>
<event>
 6    1  0.4180481E-002  0.1338632E+03  0.7546771E-02  0.1221833E+00
         21   -1    0    0  503  502  0.00000000000E+00  0.00000000000E+00  0.39106806429E+02  0.39106806429E+02  0.00000000000E+00 0. -1.
         21   -1    0    0  504  503 -0.00000000000E+00 -0.00000000000E+00 -0.22615342494E+03  0.22615342494E+03  0.00000000000E+00 0. -1.
         25    2    1    2    0    0 -0.46932773223E+02 -0.97076189790E+01 -0.16509533487E+03  0.21254607841E+03  0.12498977071E+03 0.  0.
          5    1    3    3  501    0 -0.64767260276E+02 -0.39327584395E+02 -0.46247222724E+02  0.88770898991E+02  0.10000000000E+00 0.  1.
         -5    1    3    3    0  501  0.17834487053E+02  0.29619965416E+02 -0.11884811214E+03  0.12377517942E+03  0.10000000000E+00 0.  1.
         21    1    1    2  504  502  0.46932773223E+02  0.97076189790E+01 -0.21951283642E+02  0.52714152959E+02  0.00000000000E+00 0. -1.
<mgrwt>
<rscale>  1 0.13386324E+03</rscale>
<asrwt>0</asrwt>
<pdfrwt beam="1">  1       21 0.60164318E-02 0.13386324E+03</pdfrwt>
<pdfrwt beam="2">  1       21 0.34792834E-01 0.13386324E+03</pdfrwt>
<totfact> 0.15593740E+06</totfact>
</mgrwt>
</event>
<event>
 6    1  0.4180481E-002  0.1278585E+03  0.7546771E-02  0.1230668E+00
         21   -1    0    0  504  502  0.00000000000E+00  0.00000000000E+00  0.81612865792E+01  0.81612865792E+01  0.00000000000E+00 0. -1.
         21   -1    0    0  502  503 -0.00000000000E+00 -0.00000000000E+00 -0.73462497185E+03  0.73462497185E+03  0.00000000000E+00 0. -1.
         25    2    1    2    0    0 -0.76894376394E+00  0.26898862729E+02 -0.60960934399E+03  0.62287346859E+03  0.12499466190E+03 0.  0.
          5    1    3    3  501    0  0.51334095217E+02  0.33526267748E+02 -0.46493109048E+03  0.46895642533E+03  0.10000000000E+00 0.  1.
         -5    1    3    3    0  501 -0.52103038981E+02 -0.66274050193E+01 -0.14467825350E+03  0.15391704326E+03  0.10000000000E+00 0.  1.
         21    1    1    2  504  503  0.76894376394E+00 -0.26898862729E+02 -0.11685434129E+03  0.11991278984E+03  0.00000000000E+00 0. -1.
<mgrwt>
<rscale>  1 0.12785854E+03</rscale>
<asrwt>0</asrwt>
<pdfrwt beam="1">  1       21 0.12555821E-02 0.12785854E+03</pdfrwt>
<pdfrwt beam="2">  1       21 0.11301926E+00 0.12785854E+03</pdfrwt>
<totfact> 0.16003164E+06</totfact>
</mgrwt>
</event>
<event>
 6    1  0.4180481E-002  0.1271125E+03  0.7546771E-02  0.1231804E+00
         21   -1    0    0  504  502  0.00000000000E+00  0.00000000000E+00  0.54841377358E+02  0.54841377358E+02  0.00000000000E+00 0. -1.
         21   -1    0    0  502  503 -0.00000000000E+00 -0.00000000000E+00 -0.11594559003E+03  0.11594559003E+03  0.00000000000E+00 0. -1.
         25    2    1    2    0    0 -0.13976459146E+02 -0.18387383441E+02 -0.27568921830E+02  0.13006777030E+03  0.12499656851E+03 0.  0.
          5    1    3    3  501    0 -0.61182404587E+02 -0.36079863324E+02  0.30342014945E+01  0.71093315770E+02  0.10000000000E+00 0. -1.
         -5    1    3    3    0  501  0.47205945441E+02  0.17692479883E+02 -0.30603123325E+02  0.58974454526E+02  0.10000000000E+00 0. -1.
         21    1    1    2  504  503  0.13976459146E+02  0.18387383441E+02 -0.33535290846E+02  0.40719197096E+02  0.00000000000E+00 0. -1.
<mgrwt>
<rscale>  1 0.12711247E+03</rscale>
<asrwt>0</asrwt>
<pdfrwt beam="1">  1       21 0.84371350E-02 0.12711247E+03</pdfrwt>
<pdfrwt beam="2">  1       21 0.17837783E-01 0.12711247E+03</pdfrwt>
<totfact> 0.30887372E+06</totfact>
</mgrwt>
</event>
<event>
 6    1  0.4180481E-002  0.1265251E+03  0.7546771E-02  0.1232705E+00
         21   -1    0    0  503  502  0.00000000000E+00  0.00000000000E+00  0.70677515570E+03  0.70677515570E+03  0.00000000000E+00 0.  1.
         21   -1    0    0  504  503 -0.00000000000E+00 -0.00000000000E+00 -0.80940170350E+01  0.80940170350E+01  0.00000000000E+00 0.  1.
         25    2    1    2    0    0 -0.11389776492E+00  0.19610611983E+02  0.65318450861E+03  0.66532593483E+03  0.12499603275E+03 0.  0.
          5    1    3    3  501    0 -0.59853103210E+02  0.25779305574E+02  0.38716524952E+03  0.39261164908E+03  0.10000000000E+00 0. -1.
         -5    1    3    3    0  501  0.59739205445E+02 -0.61686935906E+01  0.26601925908E+03  0.27271428575E+03  0.10000000000E+00 0. -1.
         21    1    1    2  504  502  0.11389776492E+00 -0.19610611983E+02  0.45496630064E+02  0.49543237907E+02  0.00000000000E+00 0.  1.
<mgrwt>
<rscale>  1 0.12652509E+03</rscale>
<asrwt>0</asrwt>
<pdfrwt beam="1">  1       21 0.10873459E+00 0.12652509E+03</pdfrwt>
<pdfrwt beam="2">  1       21 0.12452339E-02 0.12652509E+03</pdfrwt>
<totfact> 0.17782631E+06</totfact>
</mgrwt>
</event>
<event>
 6    1  0.4180481E-002  0.1266929E+03  0.7546771E-02  0.1232447E+00
         21   -1    0    0  503  502  0.00000000000E+00  0.00000000000E+00  0.84578773580E+03  0.84578773580E+03  0.00000000000E+00 0.  1.
         21   -1    0    0  504  503 -0.00000000000E+00 -0.00000000000E+00 -0.81317752943E+01  0.81317752943E+01  0.00000000000E+00 0.  1.
         25    2    1    2    0    0 -0.12491643639E+02 -0.16425117230E+02  0.80750422586E+03  0.81738250603E+03  0.12500104298E+03 0.  0.
          5    1    3    3  501    0 -0.35133272921E+02  0.45526669563E+02  0.28605898374E+03  0.29178207054E+03  0.10000000000E+00 0.  1.
         -5    1    3    3    0  501  0.22641629281E+02 -0.61951786793E+02  0.52144524212E+03  0.52560043549E+03  0.10000000000E+00 0.  1.
         21    1    1    2  504  502  0.12491643639E+02  0.16425117230E+02  0.30151734643E+02  0.36537005061E+02  0.00000000000E+00 0.  1.
<mgrwt>
<rscale>  1 0.12669288E+03</rscale>
<asrwt>0</asrwt>
<pdfrwt beam="1">  1       21 0.13012112E+00 0.12669288E+03</pdfrwt>
<pdfrwt beam="2">  1       21 0.12510430E-02 0.12669288E+03</pdfrwt>
<totfact> 0.11406390E+06</totfact>
</mgrwt>
</event>
<event>
 6    1  0.4180481E-002  0.1262570E+03  0.7546771E-02  0.1233118E+00
         21   -1    0    0  504  502  0.00000000000E+00  0.00000000000E+00  0.14661629168E+02  0.14661629168E+02  0.00000000000E+00 0.  1.
         21   -1    0    0  502  503 -0.00000000000E+00 -0.00000000000E+00 -0.38358499695E+03  0.38358499695E+03  0.00000000000E+00 0.  1.
         25    2    1    2    0    0 -0.44643370323E+01 -0.17210334366E+02 -0.27423479737E+03  0.30190322323E+03  0.12499882476E+03 0.  0.
          5    1    3    3  501    0 -0.47031164683E+02  0.24961702570E+02 -0.19746297581E+03  0.20451565677E+03  0.10000000000E+00 0.  1.
         -5    1    3    3    0  501  0.42566827651E+02 -0.42172036936E+02 -0.76771821561E+02  0.97387566462E+02  0.10000000000E+00 0.  1.
         21    1    1    2  504  503  0.44643370323E+01  0.17210334366E+02 -0.94688570410E+02  0.96343402890E+02  0.00000000000E+00 0. -1.
<mgrwt>
<rscale>  1 0.12625701E+03</rscale>
<asrwt>0</asrwt>
<pdfrwt beam="1">  1       21 0.22556357E-02 0.12625701E+03</pdfrwt>
<pdfrwt beam="2">  1       21 0.59013064E-01 0.12625701E+03</pdfrwt>
<totfact> 0.26967817E+06</totfact>
</mgrwt>
</event>
<event>
 6    1  0.4180481E-002  0.1334629E+03  0.7546771E-02  0.1222406E+00
         21   -1    0    0  503  502  0.00000000000E+00  0.00000000000E+00  0.27123079448E+02  0.27123079448E+02  0.00000000000E+00 0. -1.
         21   -1    0    0  504  503 -0.00000000000E+00 -0.00000000000E+00 -0.38220755411E+03  0.38220755411E+03  0.00000000000E+00 0. -1.
         25    2    1    2    0    0 -0.37146709181E+02  0.28423116715E+02 -0.15825170101E+03  0.20701678739E+03  0.12499839128E+03 0.  0.
          5    1    3    3  501    0 -0.82668246870E+02  0.26088926645E+02 -0.11642226050E+03  0.14515103814E+03  0.10000000000E+00 0.  1.
         -5    1    3    3    0  501  0.45521537689E+02  0.23341900690E+01 -0.41829440511E+02  0.61865749250E+02  0.10000000000E+00 0.  1.
         21    1    1    2  504  502  0.37146709181E+02 -0.28423116715E+02 -0.19683277365E+03  0.20231384617E+03  0.00000000000E+00 0. -1.
<mgrwt>
<rscale>  1 0.13346291E+03</rscale>
<asrwt>0</asrwt>
<pdfrwt beam="1">  1       21 0.41727816E-02 0.13346291E+03</pdfrwt>
<pdfrwt beam="2">  1       21 0.58801160E-01 0.13346291E+03</pdfrwt>
<totfact> 0.99047912E+05</totfact>
</mgrwt>
</event>
<event>
 6    1  0.4180481E-002  0.1368484E+03  0.7546771E-02  0.1217634E+00
         21   -1    0    0  504  502  0.00000000000E+00  0.00000000000E+00  0.13994152211E+02  0.13994152211E+02  0.00000000000E+00 0. -1.
         21   -1    0    0  502  503 -0.00000000000E+00 -0.00000000000E+00 -0.81652262695E+03  0.81652262695E+03  0.00000000000E+00 0. -1.
         25    2    1    2    0    0  0.38910587843E+02  0.39858449602E+02 -0.37149439715E+03  0.39589843406E+03  0.12499901252E+03 0.  0.
          5    1    3    3  501    0  0.65199353737E+02 -0.18765047265E+02 -0.13875636050E+03  0.15445523723E+03  0.10000000000E+00 0.  1.
         -5    1    3    3    0  501 -0.26288765894E+02  0.58623496867E+02 -0.23273803665E+03  0.24144319684E+03  0.10000000000E+00 0.  1.
         21    1    1    2  504  503 -0.38910587843E+02 -0.39858449602E+02 -0.43103407759E+03  0.43461834509E+03  0.00000000000E+00 0. -1.
<mgrwt>
<rscale>  1 0.13684839E+03</rscale>
<asrwt>0</asrwt>
<pdfrwt beam="1">  1       21 0.21529464E-02 0.13684839E+03</pdfrwt>
<pdfrwt beam="2">  1       21 0.12561887E+00 0.13684839E+03</pdfrwt>
<totfact> 0.52073394E+05</totfact>
</mgrwt>
</event>
<event>
 6    1  0.4180481E-002  0.1265607E+03  0.7546771E-02  0.1232650E+00
         21   -1    0    0  504  502  0.00000000000E+00  0.00000000000E+00  0.17961281524E+03  0.17961281524E+03  0.00000000000E+00 0.  1.
         21   -1    0    0  502  503 -0.00000000000E+00 -0.00000000000E+00 -0.30354266323E+02  0.30354266323E+02  0.00000000000E+00 0.  1.
         25    2    1    2    0    0  0.18427248609E+02  0.72490628339E+01  0.13775223742E+03  0.18706495049E+03  0.12500201753E+03 0.  0.
          5    1    3    3  501    0 -0.32985140790E+01  0.32944102636E+02 -0.10740455694E+02  0.34807491753E+02  0.10000000000E+00 0. -1.
         -5    1    3    3    0  501  0.21725762688E+02 -0.25695039802E+02  0.14849269311E+03  0.15225745874E+03  0.10000000000E+00 0. -1.
         21    1    1    2  504  503 -0.18427248609E+02 -0.72490628339E+01  0.11506311504E+02  0.22902131073E+02  0.00000000000E+00 0.  1.
<mgrwt>
<rscale>  1 0.12656072E+03</rscale>
<asrwt>0</asrwt>
<pdfrwt beam="1">  1       21 0.27632740E-01 0.12656072E+03</pdfrwt>
<pdfrwt beam="2">  1       21 0.46698872E-02 0.12656072E+03</pdfrwt>
<totfact> 0.37276061E+06</totfact>
</mgrwt>
</event>
<event>
 6    1  0.4180481E-002  0.1284382E+03  0.7546771E-02  0.1229792E+00
         21   -1    0    0  503  502  0.00000000000E+00  0.00000000000E+00  0.58436545221E+03  0.58436545221E+03  0.00000000000E+00 0. -1.
         21   -1    0    0  504  503 -0.00000000000E+00 -0.00000000000E+00 -0.13090856179E+02  0.13090856179E+02  0.00000000000E+00 0. -1.
         25    2    1    2    0    0 -0.24129325783E+02  0.16926907512E+02  0.53748529932E+03  0.55261814236E+03  0.12501047844E+03 0.  0.
          5    1    3    3  501    0 -0.32207664297E+02  0.19567887933E+02  0.39621850218E+02  0.54682144182E+02  0.10000000000E+00 0. -1.
         -5    1    3    3    0  501  0.80783385141E+01 -0.26409804208E+01  0.49786344910E+03  0.49793599817E+03  0.10000000000E+00 0. -1.
         21    1    1    2  504  502  0.24129325783E+02 -0.16926907512E+02  0.33789296717E+02  0.44838166034E+02  0.00000000000E+00 0. -1.
<mgrwt>
<rscale>  1 0.12843817E+03</rscale>
<asrwt>0</asrwt>
<pdfrwt beam="1">  1       21 0.89902357E-01 0.12843817E+03</pdfrwt>
<pdfrwt beam="2">  1       21 0.20139783E-02 0.12843817E+03</pdfrwt>
<totfact> 0.12849744E+06</totfact>
</mgrwt>
</event>
<event>
 6    1  0.4180481E-002  0.1604012E+03  0.7546771E-02  0.1188245E+00
         21   -1    0    0  504  502  0.00000000000E+00  0.00000000000E+00  0.24408902222E+03  0.24408902222E+03  0.00000000000E+00 0. -1.
         21   -1    0    0  502  503 -0.00000000000E+00 -0.00000000000E+00 -0.18661424390E+03  0.18661424390E+03  0.00000000000E+00 0. -1.
         25    2    1    2    0    0  0.72445096068E+02  0.69677720281E+02  0.19995214643E+03  0.25633848450E+03  0.12500112450E+03 0.  0.
          5    1    3    3  501    0  0.40294123831E+02  0.75240491391E+02  0.42136910218E+02  0.95185488194E+02  0.10000000000E+00 0.  1.
         -5    1    3    3    0  501  0.32150972237E+02 -0.55627711097E+01  0.15781523621E+03  0.16115299630E+03  0.10000000000E+00 0.  1.
         21    1    1    2  504  503 -0.72445096068E+02 -0.69677720281E+02 -0.14247736811E+03  0.17436478162E+03  0.00000000000E+00 0. -1.
<mgrwt>
<rscale>  1 0.16040124E+03</rscale>
<asrwt>0</asrwt>
<pdfrwt beam="1">  1       21 0.37552157E-01 0.16040124E+03</pdfrwt>
<pdfrwt beam="2">  1       21 0.28709884E-01 0.16040124E+03</pdfrwt>
<totfact> 0.80477688E+04</totfact>
</mgrwt>
</event>
<event>
 6    1  0.4180481E-002  0.1556206E+03  0.7546771E-02  0.1193732E+00
         21   -1    0    0  504  502  0.00000000000E+00  0.00000000000E+00  0.32636150033E+03  0.32636150033E+03  0.00000000000E+00 0.  1.
         21   -1    0    0  502  503 -0.00000000000E+00 -0.00000000000E+00 -0.61069728026E+02  0.61069728026E+02  0.00000000000E+00 0.  1.
         25    2    1    2    0    0  0.25578483991E+02 -0.89103824130E+02  0.24852056119E+03  0.29322388342E+03  0.12499610457E+03 0.  0.
          5    1    3    3  501    0 -0.27707089094E+02 -0.28783081268E+02  0.95696497554E+01  0.41082073338E+02  0.10000000000E+00 0.  1.
         -5    1    3    3    0  501  0.53285573085E+02 -0.60320742862E+02  0.23895091143E+03  0.25214181008E+03  0.10000000000E+00 0.  1.
         21    1    1    2  504  503 -0.25578483991E+02  0.89103824130E+02  0.16771211121E+02  0.94207344938E+02  0.00000000000E+00 0.  1.
<mgrwt>
<rscale>  1 0.15562062E+03</rscale>
<asrwt>0</asrwt>
<pdfrwt beam="1">  1       21 0.50209461E-01 0.15562062E+03</pdfrwt>
<pdfrwt beam="2">  1       21 0.93953430E-02 0.15562062E+03</pdfrwt>
<totfact> 0.34491772E+05</totfact>
</mgrwt>
</event>
<event>
 6    1  0.4180481E-002  0.1271973E+03  0.7546771E-02  0.1231675E+00
         21   -1    0    0  504  502  0.00000000000E+00  0.00000000000E+00  0.97798671617E+02  0.97798671617E+02  0.00000000000E+00 0. -1.
         21   -1    0    0  502  503 -0.00000000000E+00 -0.00000000000E+00 -0.58462738130E+02  0.58462738130E+02  0.00000000000E+00 0. -1.
         25    2    1    2    0    0  0.20399413871E+02  0.11786047924E+02  0.37599400228E+02  0.13263806198E+03  0.12499637425E+03 0.  0.
          5    1    3    3  501    0 -0.48307546415E+02  0.28934195338E+02  0.14431528073E+02  0.58129903691E+02  0.10000000000E+00 0. -1.
         -5    1    3    3    0  501  0.68706960287E+02 -0.17148147414E+02  0.23167872154E+02  0.74508158290E+02  0.10000000000E+00 0. -1.
         21    1    1    2  504  503 -0.20399413871E+02 -0.11786047924E+02  0.17365332589E+01  0.23623347767E+02  0.00000000000E+00 0. -1.
<mgrwt>
<rscale>  1 0.12719725E+03</rscale>
<asrwt>0</asrwt>
<pdfrwt beam="1">  1       21 0.15045949E-01 0.12719725E+03</pdfrwt>
<pdfrwt beam="2">  1       21 0.89942674E-02 0.12719725E+03</pdfrwt>
<totfact> 0.37657996E+06</totfact>
</mgrwt>
</event>
<event>
 6    1  0.4180481E-002  0.1261001E+03  0.7546771E-02  0.1233360E+00
         21   -1    0    0  504  502  0.00000000000E+00  0.00000000000E+00  0.14564372629E+03  0.14564372629E+03  0.00000000000E+00 0. -1.
         21   -1    0    0  502  503 -0.00000000000E+00 -0.00000000000E+00 -0.62104260432E+02  0.62104260432E+02  0.00000000000E+00 0.  1.
         25    2    1    2    0    0  0.38262078817E+01  0.16075585903E+02  0.11598970410E+03  0.17133257390E+03  0.12501269972E+03 0.  0.
          5    1    3    3  501    0  0.57354849138E+02 -0.10049024785E+01  0.95735019177E+02  0.11160552157E+03  0.10000000000E+00 0. -1.
         -5    1    3    3    0  501 -0.53528641256E+02  0.17080488382E+02  0.20254684920E+02  0.59727052324E+02  0.10000000000E+00 0. -1.
         21    1    1    2  504  503 -0.38262078817E+01 -0.16075585903E+02 -0.32450238244E+02  0.36415412822E+02  0.00000000000E+00 0.  1.
<mgrwt>
<rscale>  1 0.12610012E+03</rscale>
<asrwt>0</asrwt>
<pdfrwt beam="1">  1       21 0.22406727E-01 0.12610012E+03</pdfrwt>
<pdfrwt beam="2">  1       21 0.95545016E-02 0.12610012E+03</pdfrwt>
<totfact> 0.16326196E+06</totfact>
</mgrwt>
</event>
<event>
 6    1  0.4180481E-002  0.1277616E+03  0.7546771E-02  0.1230815E+00
         21   -1    0    0  504  502  0.00000000000E+00  0.00000000000E+00  0.12744084019E+04  0.12744084019E+04  0.00000000000E+00 0. -1.
         21   -1    0    0  502  503 -0.00000000000E+00 -0.00000000000E+00 -0.13836217114E+02  0.13836217114E+02  0.00000000000E+00 0. -1.
         25    2    1    2    0    0 -0.11663377340E+02 -0.23717379896E+02  0.12546769738E+04  0.12611650697E+04  0.12499790383E+03 0.  0.
          5    1    3    3  501    0 -0.28579629345E+02 -0.65977590151E+02  0.50324109519E+03  0.50835169667E+03  0.10000000000E+00 0. -1.
         -5    1    3    3    0  501  0.16916252005E+02  0.42260210255E+02  0.75143587860E+03  0.75281337302E+03  0.10000000000E+00 0. -1.
         21    1    1    2  504  503  0.11663377340E+02  0.23717379896E+02  0.58952110224E+01  0.27079549352E+02  0.00000000000E+00 0. -1.
<mgrwt>
<rscale>  1 0.12776159E+03</rscale>
<asrwt>0</asrwt>
<pdfrwt beam="1">  1       21 0.19606274E+00 0.12776159E+03</pdfrwt>
<pdfrwt beam="2">  1       21 0.21286498E-02 0.12776159E+03</pdfrwt>
<totfact> 0.16393241E+05</totfact>
</mgrwt>
</event>
<event>
 6    1  0.4180481E-002  0.1270631E+03  0.7546771E-02  0.1231880E+00
         21   -1    0    0  503  502  0.00000000000E+00  0.00000000000E+00  0.13439410065E+02  0.13439410065E+02  0.00000000000E+00 0. -1.
         21   -1    0    0  504  503 -0.00000000000E+00 -0.00000000000E+00 -0.47115732608E+03  0.47115732608E+03  0.00000000000E+00 0. -1.
         25    2    1    2    0    0 -0.75466739743E+01 -0.21511003484E+02 -0.30842051223E+03  0.33356895614E+03  0.12500144228E+03 0.  0.
          5    1    3    3  501    0 -0.43406928930E+02 -0.59012057538E+02 -0.20821764926E+03  0.22072875635E+03  0.10000000000E+00 0.  1.
         -5    1    3    3    0  501  0.35860254956E+02  0.37501054054E+02 -0.10020286297E+03  0.11284019979E+03  0.10000000000E+00 0.  1.
         21    1    1    2  504  502  0.75466739743E+01  0.21511003484E+02 -0.14929740378E+03  0.15102778001E+03  0.00000000000E+00 0. -1.
<mgrwt>
<rscale>  1 0.12706312E+03</rscale>
<asrwt>0</asrwt>
<pdfrwt beam="1">  1       21 0.20676014E-02 0.12706312E+03</pdfrwt>
<pdfrwt beam="2">  1       21 0.72485747E-01 0.12706312E+03</pdfrwt>
<totfact> 0.19939004E+06</totfact>
</mgrwt>
</event>
<event>
 6    1  0.4180481E-002  0.1288714E+03  0.7546771E-02  0.1229140E+00
         21   -1    0    0  503  502  0.00000000000E+00  0.00000000000E+00  0.52606162260E+02  0.52606162260E+02  0.00000000000E+00 0. -1.
         21   -1    0    0  504  503 -0.00000000000E+00 -0.00000000000E+00 -0.26905230680E+03  0.26905230680E+03  0.00000000000E+00 0.  1.
         25    2    1    2    0    0  0.12570345321E+02  0.28709106021E+02 -0.29632711583E+02  0.13223438114E+03  0.12500243042E+03 0.  0.
          5    1    3    3  501    0 -0.37130793528E+02 -0.32969490068E+02 -0.11933970133E+02  0.51069685201E+02  0.10000000000E+00 0. -1.
         -5    1    3    3    0  501  0.49701138849E+02  0.61678596090E+02 -0.17698741449E+02  0.81164695942E+02  0.10000000000E+00 0. -1.
         21    1    1    2  504  502 -0.12570345321E+02 -0.28709106021E+02 -0.18681343296E+03  0.18942408792E+03  0.00000000000E+00 0.  1.
<mgrwt>
<rscale>  1 0.12887139E+03</rscale>
<asrwt>0</asrwt>
<pdfrwt beam="1">  1       21 0.80932558E-02 0.12887139E+03</pdfrwt>
<pdfrwt beam="2">  1       21 0.41392662E-01 0.12887139E+03</pdfrwt>
<totfact> 0.66470524E+05</totfact>
</mgrwt>
</event>
<event>
 6    1  0.4180481E-002  0.1380972E+03  0.7546771E-02  0.1215913E+00
         21   -1    0    0  503  502  0.00000000000E+00  0.00000000000E+00  0.23450598175E+03  0.23450598175E+03  0.00000000000E+00 0.  1.
         21   -1    0    0  504  503 -0.00000000000E+00 -0.00000000000E+00 -0.48424570969E+02  0.48424570969E+02  0.00000000000E+00 0.  1.
         25    2    1    2    0    0 -0.26029707551E+02 -0.52606313516E+02  0.17545422064E+03  0.22328235855E+03  0.12500343276E+03 0.  0.
          5    1    3    3  501    0 -0.82531142158E+01 -0.97613951784E+01 -0.19261631507E+02  0.23117508049E+02  0.10000000000E+00 0. -1.
         -5    1    3    3    0  501 -0.17776593335E+02 -0.42844918338E+02  0.19471585215E+03  0.20016485050E+03  0.10000000000E+00 0. -1.
         21    1    1    2  504  502  0.26029707551E+02  0.52606313516E+02  0.10627190136E+02  0.59648194165E+02  0.00000000000E+00 0.  1.
<mgrwt>
<rscale>  1 0.13809717E+03</rscale>
<asrwt>0</asrwt>
<pdfrwt beam="1">  1       21 0.36077843E-01 0.13809717E+03</pdfrwt>
<pdfrwt beam="2">  1       21 0.74499341E-02 0.13809717E+03</pdfrwt>
<totfact> 0.10080288E+06</totfact>
</mgrwt>
</event>
<event>
 6    1  0.4180481E-002  0.1273076E+03  0.7546771E-02  0.1231506E+00
         21   -1    0    0  504  502  0.00000000000E+00  0.00000000000E+00  0.30305758186E+03  0.30305758186E+03  0.00000000000E+00 0.  1.
         21   -1    0    0  502  503 -0.00000000000E+00 -0.00000000000E+00 -0.51632790750E+02  0.51632790750E+02  0.00000000000E+00 0.  1.
         25    2    1    2    0    0  0.23053367200E+02  0.71505708546E+01  0.28569343704E+03  0.31277464170E+03  0.12499859248E+03 0.  0.
          5    1    3    3  501    0  0.58778960704E+02 -0.32181419199E+02  0.10614081337E+03  0.12552486696E+03  0.10000000000E+00 0.  1.
         -5    1    3    3    0  501 -0.35725593504E+02  0.39331990054E+02  0.17955262367E+03  0.18724977474E+03  0.10000000000E+00 0.  1.
         21    1    1    2  504  503 -0.23053367200E+02 -0.71505708546E+01 -0.34268645936E+02  0.41915730903E+02  0.00000000000E+00 0.  1.
<mgrwt>
<rscale>  1 0.12730765E+03</rscale>
<asrwt>0</asrwt>
<pdfrwt beam="1">  1       21 0.46624242E-01 0.12730765E+03</pdfrwt>
<pdfrwt beam="2">  1       21 0.79435064E-02 0.12730765E+03</pdfrwt>
<totfact> 0.53948187E+05</totfact>
</mgrwt>
</event>
<event>
 6    1  0.4180481E-002  0.1306115E+03  0.7546771E-02  0.1226551E+00
         21   -1    0    0  503  502  0.00000000000E+00  0.00000000000E+00  0.69299039969E+02  0.69299039969E+02  0.00000000000E+00 0. -1.
         21   -1    0    0  504  503 -0.00000000000E+00 -0.00000000000E+00 -0.29654872295E+03  0.29654872295E+03  0.00000000000E+00 0. -1.
         25    2    1    2    0    0 -0.37172452227E+02 -0.78200434523E+01  0.48095609033E+01  0.13070007112E+03  0.12496572503E+03 0.  0.
          5    1    3    3  501    0 -0.51524038417E+01 -0.47190888879E+02  0.45422461249E+02  0.65701881590E+02  0.10000000000E+00 0.  1.
         -5    1    3    3    0  501 -0.32020048386E+02  0.39370845427E+02 -0.40612900346E+02  0.64998189535E+02  0.10000000000E+00 0.  1.
         21    1    1    2  504  502  0.37172452227E+02  0.78200434523E+01 -0.23205924389E+03  0.23514769180E+03  0.00000000000E+00 0. -1.
<mgrwt>
<rscale>  1 0.13061155E+03</rscale>
<asrwt>0</asrwt>
<pdfrwt beam="1">  1       21 0.10661391E-01 0.13061155E+03</pdfrwt>
<pdfrwt beam="2">  1       21 0.45622881E-01 0.13061155E+03</pdfrwt>
<totfact> 0.33783163E+05</totfact>
</mgrwt>
</event>
<event>
 6    1  0.4180481E-002  0.1292588E+03  0.7546771E-02  0.1228560E+00
         21   -1    0    0  503  502  0.00000000000E+00  0.00000000000E+00  0.14078542763E+03  0.14078542763E+03  0.00000000000E+00 0.  1.
         21   -1    0    0  504  503 -0.00000000000E+00 -0.00000000000E+00 -0.10384275263E+03  0.10384275263E+03  0.00000000000E+00 0. -1.
         25    2    1    2    0    0  0.76822950991E+01  0.32002605668E+02  0.10662718787E+03  0.16756252150E+03  0.12499862795E+03 0.  0.
          5    1    3    3  501    0 -0.30065439365E+02  0.44899522568E+02  0.11476562870E+03  0.12685053135E+03  0.10000000000E+00 0.  1.
         -5    1    3    3    0  501  0.37747734465E+02 -0.12896916900E+02 -0.81384408324E+01  0.40711990149E+02  0.10000000000E+00 0.  1.
         21    1    1    2  504  502 -0.76822950991E+01 -0.32002605668E+02 -0.69684512868E+02  0.77065658767E+02  0.00000000000E+00 0. -1.
<mgrwt>
<rscale>  1 0.12925882E+03</rscale>
<asrwt>0</asrwt>
<pdfrwt beam="1">  1       21 0.21659297E-01 0.12925882E+03</pdfrwt>
<pdfrwt beam="2">  1       21 0.15975808E-01 0.12925882E+03</pdfrwt>
<totfact> 0.69825215E+05</totfact>
</mgrwt>
</event>
<event>
 6    1  0.4180481E-002  0.1899116E+03  0.7546771E-02  0.1158541E+00
         21   -1    0    0  504  502  0.00000000000E+00  0.00000000000E+00  0.26003737603E+03  0.26003737603E+03  0.00000000000E+00 0. -1.
         21   -1    0    0  502  503 -0.00000000000E+00 -0.00000000000E+00 -0.13052349770E+03  0.13052349770E+03  0.00000000000E+00 0. -1.
         25    2    1    2    0    0 -0.85058168125E+02  0.11492236662E+03  0.15524227582E+03  0.24528874030E+03  0.12499743839E+03 0.  0.
          5    1    3    3  501    0 -0.38465860603E+02 -0.10898067272E+02  0.84797224821E+02  0.93749504743E+02  0.10000000000E+00 0.  1.
         -5    1    3    3    0  501 -0.46592307522E+02  0.12582043389E+03  0.70445051001E+02  0.15153923556E+03  0.10000000000E+00 0.  1.
         21    1    1    2  504  503  0.85058168125E+02 -0.11492236662E+03 -0.25728397491E+02  0.14527213343E+03  0.00000000000E+00 0. -1.
<mgrwt>
<rscale>  1 0.18991156E+03</rscale>
<asrwt>0</asrwt>
<pdfrwt beam="1">  1       21 0.40005750E-01 0.18991156E+03</pdfrwt>
<pdfrwt beam="2">  1       21 0.20080538E-01 0.18991156E+03</pdfrwt>
<totfact> 0.13809100E+05</totfact>
</mgrwt>
</event>
<event>
 6    1  0.4180481E-002  0.1263370E+03  0.7546771E-02  0.1232994E+00
         21   -1    0    0  504  502  0.00000000000E+00  0.00000000000E+00  0.10760286247E+03  0.10760286247E+03  0.00000000000E+00 0.  1.
         21   -1    0    0  502  503 -0.00000000000E+00 -0.00000000000E+00 -0.17083971074E+03  0.17083971074E+03  0.00000000000E+00 0. -1.
         25    2    1    2    0    0  0.17032707705E+02 -0.66328872887E+01  0.69677360566E+02  0.14427739429E+03  0.12500769417E+03 0.  0.
          5    1    3    3  501    0 -0.39065783653E+02  0.25990287343E+02 -0.27847088525E+01  0.47004202919E+02  0.10000000000E+00 0. -1.
         -5    1    3    3    0  501  0.56098491358E+02 -0.32623174632E+02  0.72462069418E+02  0.97273191374E+02  0.10000000000E+00 0. -1.
         21    1    1    2  504  503 -0.17032707705E+02  0.66328872887E+01 -0.13291420883E+03  0.13416517892E+03  0.00000000000E+00 0. -1.
<mgrwt>
<rscale>  1 0.12633698E+03</rscale>
<asrwt>0</asrwt>
<pdfrwt beam="1">  1       21 0.16554287E-01 0.12633698E+03</pdfrwt>
<pdfrwt beam="2">  1       21 0.26283032E-01 0.12633698E+03</pdfrwt>
<totfact> 0.45500812E+05</totfact>
</mgrwt>
</event>
<event>
 6    1  0.4180481E-002  0.1361643E+03  0.7546771E-02  0.1218585E+00
         21   -1    0    0  503  502  0.00000000000E+00  0.00000000000E+00  0.16220865664E+03  0.16220865664E+03  0.00000000000E+00 0. -1.
         21   -1    0    0  504  503 -0.00000000000E+00 -0.00000000000E+00 -0.73299035766E+02  0.73299035766E+02  0.00000000000E+00 0. -1.
         25    2    1    2    0    0 -0.48673535245E+02 -0.23350492847E+02  0.11246822849E+03  0.17660636354E+03  0.12500538658E+03 0.  0.
          5    1    3    3  501    0 -0.26770468102E+02 -0.60705917925E+02  0.11549724163E+03  0.13319718187E+03  0.10000000000E+00 0. -1.
         -5    1    3    3    0  501 -0.21903067142E+02  0.37355425077E+02 -0.30290131377E+01  0.43409181673E+02  0.10000000000E+00 0. -1.
         21    1    1    2  504  502  0.48673535245E+02  0.23350492847E+02 -0.23558607616E+02  0.58901328866E+02  0.00000000000E+00 0. -1.
<mgrwt>
<rscale>  1 0.13616426E+03</rscale>
<asrwt>0</asrwt>
<pdfrwt beam="1">  1       21 0.24955178E-01 0.13616426E+03</pdfrwt>
<pdfrwt beam="2">  1       21 0.11276775E-01 0.13616426E+03</pdfrwt>
<totfact> 0.99804336E+05</totfact>
</mgrwt>
</event>
<event>
 6    1  0.4180481E-002  0.1553152E+03  0.7546771E-02  0.1194090E+00
         21   -1    0    0  503  502  0.00000000000E+00  0.00000000000E+00  0.95430713957E+02  0.95430713957E+02  0.00000000000E+00 0.  1.
         21   -1    0    0  504  503 -0.00000000000E+00 -0.00000000000E+00 -0.18457655780E+03  0.18457655780E+03  0.00000000000E+00 0.  1.
         25    2    1    2    0    0 -0.81764868113E+02 -0.42569670288E+02 -0.10360162711E+03  0.18669789304E+03  0.12500054255E+03 0.  0.
          5    1    3    3  501    0 -0.47541076237E+01 -0.55797022991E+02  0.11523637751E+01  0.56011135109E+02  0.10000000000E+00 0. -1.
         -5    1    3    3    0  501 -0.77010760489E+02  0.13227352703E+02 -0.10475399089E+03  0.13068675793E+03  0.10000000000E+00 0. -1.
         21    1    1    2  504  502  0.81764868113E+02  0.42569670288E+02  0.14455783275E+02  0.93309378714E+02  0.00000000000E+00 0.  1.
<mgrwt>
<rscale>  1 0.15531518E+03</rscale>
<asrwt>0</asrwt>
<pdfrwt beam="1">  1       21 0.14681648E-01 0.15531518E+03</pdfrwt>
<pdfrwt beam="2">  1       21 0.28396393E-01 0.15531518E+03</pdfrwt>
<totfact> 0.48652223E+05</totfact>
</mgrwt>
</event>
<event>
 6    1  0.4180481E-002  0.1270389E+03  0.7546771E-02  0.1231917E+00
         21   -1    0    0  503  502  0.00000000000E+00  0.00000000000E+00  0.10998914856E+04  0.10998914856E+04  0.00000000000E+00 0. -1.
         21   -1    0    0  504  503 -0.00000000000E+00 -0.00000000000E+00 -0.63406862284E+01  0.63406862284E+01  0.00000000000E+00 0. -1.
         25    2    1    2    0    0 -0.10317017556E+02  0.20193677902E+02  0.10444523463E+04  0.10521499791E+04  0.12499859719E+03 0.  0.
          5    1    3    3  501    0 -0.59821556429E+02  0.41755145950E+02  0.61963584337E+03  0.62391561866E+03  0.10000000000E+00 0.  1.
         -5    1    3    3    0  501  0.49504538874E+02 -0.21561468048E+02  0.42481650296E+03  0.42823436044E+03  0.10000000000E+00 0.  1.
         21    1    1    2  504  502  0.10317017556E+02 -0.20193677902E+02  0.49098453022E+02  0.54082192703E+02  0.00000000000E+00 0. -1.
<mgrwt>
<rscale>  1 0.12703887E+03</rscale>
<asrwt>0</asrwt>
<pdfrwt beam="1">  1       21 0.16921392E+00 0.12703887E+03</pdfrwt>
<pdfrwt beam="2">  1       21 0.97549106E-03 0.12703887E+03</pdfrwt>
<totfact> 0.85690362E+05</totfact>
</mgrwt>
</event>
<event>
 6    1  0.4180481E-002  0.1283954E+03  0.7546771E-02  0.1229856E+00
         21   -1    0    0  503  502  0.00000000000E+00  0.00000000000E+00  0.14969863380E+03  0.14969863380E+03  0.00000000000E+00 0.  1.
         21   -1    0    0  504  503 -0.00000000000E+00 -0.00000000000E+00 -0.90220525573E+02  0.90220525573E+02  0.00000000000E+00 0. -1.
         25    2    1    2    0    0 -0.17085180816E+02  0.23803861616E+02  0.11805669133E+03  0.17442123857E+03  0.12500743524E+03 0.  0.
          5    1    3    3  501    0 -0.30967329528E+02  0.71533986040E+02  0.81046212886E+02  0.11244814485E+03  0.10000000000E+00 0.  1.
         -5    1    3    3    0  501  0.13882148712E+02 -0.47730124424E+02  0.37010478441E+02  0.61973093717E+02  0.10000000000E+00 0.  1.
         21    1    1    2  504  502  0.17085180816E+02 -0.23803861616E+02 -0.58578583103E+02  0.65497920804E+02  0.00000000000E+00 0. -1.
<mgrwt>
<rscale>  1 0.12839543E+03</rscale>
<asrwt>0</asrwt>
<pdfrwt beam="1">  1       21 0.23030559E-01 0.12839543E+03</pdfrwt>
<pdfrwt beam="2">  1       21 0.13880081E-01 0.12839543E+03</pdfrwt>
<totfact> 0.80208870E+05</totfact>
</mgrwt>
</event>
<event>
 6    1  0.4180481E-002  0.1264325E+03  0.7546771E-02  0.1232847E+00
         21   -1    0    0  503  502  0.00000000000E+00  0.00000000000E+00  0.38243959543E+02  0.38243959543E+02  0.00000000000E+00 0.  1.
         21   -1    0    0  504  503 -0.00000000000E+00 -0.00000000000E+00 -0.14047385127E+03  0.14047385127E+03  0.00000000000E+00 0.  1.
         25    2    1    2    0    0 -0.15719702929E+02  0.10429033143E+02 -0.80241454097E+02  0.14974601104E+03  0.12501721112E+03 0.  0.
          5    1    3    3  501    0 -0.50698230300E+02  0.47134491090E+01 -0.97748910720E+02  0.11021518364E+03  0.10000000000E+00 0. -1.
         -5    1    3    3    0  501  0.34978527370E+02  0.57155840341E+01  0.17507456623E+02  0.39530827404E+02  0.10000000000E+00 0. -1.
         21    1    1    2  504  502  0.15719702929E+02 -0.10429033143E+02 -0.21988437632E+02  0.28971799771E+02  0.00000000000E+00 0.  1.
<mgrwt>
<rscale>  1 0.12643250E+03</rscale>
<asrwt>0</asrwt>
<pdfrwt beam="1">  1       21 0.58836860E-02 0.12643250E+03</pdfrwt>
<pdfrwt beam="2">  1       21 0.21611362E-01 0.12643250E+03</pdfrwt>
<totfact> 0.40154071E+06</totfact>
</mgrwt>
</event>
<event>
 6    1  0.4180481E-002  0.1266933E+03  0.7546771E-02  0.1232446E+00
         21   -1    0    0  503  502  0.00000000000E+00  0.00000000000E+00  0.28225482862E+02  0.28225482862E+02  0.00000000000E+00 0. -1.
         21   -1    0    0  504  503 -0.00000000000E+00 -0.00000000000E+00 -0.72148270514E+03  0.72148270514E+03  0.00000000000E+00 0.  1.
         25    2    1    2    0    0 -0.19559834302E+01  0.20551314882E+02 -0.11506198470E+03  0.17114452239E+03  0.12500001922E+03 0.  0.
          5    1    3    3  501    0  0.21300092583E+02  0.69397690166E+02 -0.66062179712E+02  0.98152712305E+02  0.10000000000E+00 0.  1.
         -5    1    3    3    0  501 -0.23256076014E+02 -0.48846375284E+02 -0.48999804989E+02  0.72991810081E+02  0.10000000000E+00 0.  1.
         21    1    1    2  504  502  0.19559834302E+01 -0.20551314882E+02 -0.57819523758E+03  0.57856366562E+03  0.00000000000E+00 0.  1.
<mgrwt>
<rscale>  1 0.12669328E+03</rscale>
<asrwt>0</asrwt>
<pdfrwt beam="1">  1       21 0.43423825E-02 0.12669328E+03</pdfrwt>
<pdfrwt beam="2">  1       21 0.11099733E+00 0.12669328E+03</pdfrwt>
<totfact> 0.22276007E+05</totfact>
</mgrwt>
</event>
<event>
 6    1  0.4180481E-002  0.1263449E+03  0.7546771E-02  0.1232982E+00
         21   -1    0    0  504  502  0.00000000000E+00  0.00000000000E+00  0.11626569932E+02  0.11626569932E+02  0.00000000000E+00 0. -1.
         21   -1    0    0  502  503 -0.00000000000E+00 -0.00000000000E+00 -0.45450467460E+03  0.45450467460E+03  0.00000000000E+00 0. -1.
         25    2    1    2    0    0 -0.17539365326E+02  0.47665659177E+01 -0.36823514207E+03  0.38930728113E+03  0.12503075542E+03 0.  0.
          5    1    3    3  501    0  0.36261897025E+02  0.67303411387E+01 -0.32118690538E+02  0.48906471448E+02  0.10000000000E+00 0.  1.
         -5    1    3    3    0  501 -0.53801262351E+02 -0.19637752211E+01 -0.33611645153E+03  0.34040080968E+03  0.10000000000E+00 0.  1.
         21    1    1    2  504  503  0.17539365326E+02 -0.47665659177E+01 -0.74642962601E+02  0.76823963400E+02  0.00000000000E+00 0. -1.
<mgrwt>
<rscale>  1 0.12634492E+03</rscale>
<asrwt>0</asrwt>
<pdfrwt beam="1">  1       21 0.17887031E-02 0.12634492E+03</pdfrwt>
<pdfrwt beam="2">  1       21 0.69923794E-01 0.12634492E+03</pdfrwt>
<totfact> 0.27236133E+06</totfact>
</mgrwt>
</event>
<event>
 6    1  0.4180481E-002  0.1286078E+03  0.7546771E-02  0.1229536E+00
         21   -1    0    0  504  502  0.00000000000E+00  0.00000000000E+00  0.11289036282E+03  0.11289036282E+03  0.00000000000E+00 0.  1.
         21   -1    0    0  502  503 -0.00000000000E+00 -0.00000000000E+00 -0.91795124251E+02  0.91795124251E+02  0.00000000000E+00 0.  1.
         25    2    1    2    0    0 -0.10970257766E+02 -0.28409013688E+02  0.70488913287E+02  0.14665830623E+03  0.12495020319E+03 0.  0.
          5    1    3    3  501    0  0.32178638901E+02  0.29295606513E+02 -0.31522002345E+01  0.43630765851E+02  0.10000000000E+00 0. -1.
         -5    1    3    3    0  501 -0.43148896666E+02 -0.57704620201E+02  0.73641113522E+02  0.10302754038E+03  0.10000000000E+00 0. -1.
         21    1    1    2  504  503  0.10970257766E+02  0.28409013688E+02 -0.49393674718E+02  0.58027180840E+02  0.00000000000E+00 0.  1.
<mgrwt>
<rscale>  1 0.12860782E+03</rscale>
<asrwt>0</asrwt>
<pdfrwt beam="1">  1       21 0.17367748E-01 0.12860782E+03</pdfrwt>
<pdfrwt beam="2">  1       21 0.14122327E-01 0.12860782E+03</pdfrwt>
<totfact> 0.13102470E+06</totfact>
</mgrwt>
</event>
<event>
 6    1  0.4180481E-002  0.1299186E+03  0.7546771E-02  0.1227576E+00
         21   -1    0    0  504  502  0.00000000000E+00  0.00000000000E+00  0.39419162388E+02  0.39419162388E+02  0.00000000000E+00 0.  1.
         21   -1    0    0  502  503 -0.00000000000E+00 -0.00000000000E+00 -0.74419838379E+03  0.74419838379E+03  0.00000000000E+00 0. -1.
         25    2    1    2    0    0  0.34848674085E+02 -0.62814505260E+01 -0.69477012123E+02  0.14732925946E+03  0.12499987509E+03 0.  0.
          5    1    3    3  501    0 -0.27721732945E+02 -0.46714203920E+02 -0.19936893558E+02  0.57863641867E+02  0.10000000000E+00 0. -1.
         -5    1    3    3    0  501  0.62570407030E+02  0.40432753394E+02 -0.49540118564E+02  0.89465617588E+02  0.10000000000E+00 0. -1.
         21    1    1    2  504  503 -0.34848674085E+02  0.62814505260E+01 -0.63530220928E+03  0.63628828673E+03  0.00000000000E+00 0. -1.
<mgrwt>
<rscale>  1 0.12991865E+03</rscale>
<asrwt>0</asrwt>
<pdfrwt beam="1">  1       21 0.60644873E-02 0.12991865E+03</pdfrwt>
<pdfrwt beam="2">  1       21 0.11449205E+00 0.12991865E+03</pdfrwt>
<totfact> 0.11778034E+05</totfact>
</mgrwt>
</event>
<event>
 6    1  0.4180481E-002  0.1265084E+03  0.7546771E-02  0.1232731E+00
         21   -1    0    0  504  502  0.00000000000E+00  0.00000000000E+00  0.38036960537E+03  0.38036960537E+03  0.00000000000E+00 0. -1.
         21   -1    0    0  502  503 -0.00000000000E+00 -0.00000000000E+00 -0.14076842573E+02  0.14076842573E+02  0.00000000000E+00 0. -1.
         25    2    1    2    0    0 -0.17630889650E+02  0.82305439253E+01  0.30705841405E+03  0.33209824673E+03  0.12500314284E+03 0.  0.
          5    1    3    3  501    0 -0.70380553045E+02 -0.86811069589E+00  0.20672077537E+03  0.21837505543E+03  0.10000000000E+00 0. -1.
         -5    1    3    3    0  501  0.52749663395E+02  0.90986546211E+01  0.10033763868E+03  0.11372319131E+03  0.10000000000E+00 0. -1.
         21    1    1    2  504  503  0.17630889650E+02 -0.82305439253E+01  0.59234348746E+02  0.62348201213E+02  0.00000000000E+00 0. -1.
<mgrwt>
<rscale>  1 0.12650840E+03</rscale>
<asrwt>0</asrwt>
<pdfrwt beam="1">  1       21 0.58518393E-01 0.12650840E+03</pdfrwt>
<pdfrwt beam="2">  1       21 0.21656684E-02 0.12650840E+03</pdfrwt>
<totfact> 0.29324215E+06</totfact>
</mgrwt>
</event>
<event>
 6    1  0.4180481E-002  0.1325930E+03  0.7546771E-02  0.1223658E+00
         21   -1    0    0  503  502  0.00000000000E+00  0.00000000000E+00  0.43973840691E+02  0.43973840691E+02  0.00000000000E+00 0.  1.
         21   -1    0    0  504  503 -0.00000000000E+00 -0.00000000000E+00 -0.22460490045E+03  0.22460490045E+03  0.00000000000E+00 0.  1.
         25    2    1    2    0    0 -0.40975914866E+02  0.16606059595E+02 -0.71082809060E+02  0.15044489313E+03  0.12500445316E+03 0.  0.
          5    1    3    3  501    0 -0.74603119717E+02 -0.11631942085E+02 -0.11417451345E+02  0.76362921260E+02  0.10000000000E+00 0. -1.
         -5    1    3    3    0  501  0.33627204851E+02  0.28238001680E+02 -0.59665357715E+02  0.74081971870E+02  0.10000000000E+00 0. -1.
         21    1    1    2  504  502  0.40975914866E+02 -0.16606059595E+02 -0.10954825070E+03  0.11813384801E+03  0.00000000000E+00 0.  1.
<mgrwt>
<rscale>  1 0.13259299E+03</rscale>
<asrwt>0</asrwt>
<pdfrwt beam="1">  1       21 0.67652062E-02 0.13259299E+03</pdfrwt>
<pdfrwt beam="2">  1       21 0.34554600E-01 0.13259299E+03</pdfrwt>
<totfact> 0.12941903E+06</totfact>
</mgrwt>
</event>
<event>
 6    1  0.4180481E-002  0.1309048E+03  0.7546771E-02  0.1226119E+00
         21   -1    0    0  503  502  0.00000000000E+00  0.00000000000E+00  0.14431013016E+04  0.14431013016E+04  0.00000000000E+00 0. -1.
         21   -1    0    0  504  503 -0.00000000000E+00 -0.00000000000E+00 -0.49931171034E+01  0.49931171034E+01  0.00000000000E+00 0. -1.
         25    2    1    2    0    0  0.34380825055E+01 -0.38709064924E+02  0.11041717639E+04  0.11119043756E+04  0.12500337612E+03 0.  0.
          5    1    3    3  501    0  0.27797474639E+02 -0.58776248304E+02  0.10190164431E+04  0.10210885702E+04  0.10000000000E+00 0. -1.
         -5    1    3    3    0  501 -0.24359392133E+02  0.20067183380E+02  0.85155320886E+02  0.90815805392E+02  0.10000000000E+00 0. -1.
         21    1    1    2  504  502 -0.34380825055E+01  0.38709064924E+02  0.33393642056E+03  0.33619004312E+03  0.00000000000E+00 0. -1.
<mgrwt>
<rscale>  1 0.13090476E+03</rscale>
<asrwt>0</asrwt>
<pdfrwt beam="1">  1       21 0.22201525E+00 0.13090476E+03</pdfrwt>
<pdfrwt beam="2">  1       21 0.76817301E-03 0.13090476E+03</pdfrwt>
<totfact> 0.57228719E+05</totfact>
</mgrwt>
</event>
<event>
 6    1  0.4180481E-002  0.1270901E+03  0.7546771E-02  0.1231838E+00
         21   -1    0    0  504  502  0.00000000000E+00  0.00000000000E+00  0.10550729225E+04  0.10550729225E+04  0.00000000000E+00 0.  1.
         21   -1    0    0  502  503 -0.00000000000E+00 -0.00000000000E+00 -0.27267927873E+02  0.27267927873E+02  0.00000000000E+00 0. -1.
         25    2    1    2    0    0 -0.96589029364E+01 -0.20811722171E+02  0.10456059197E+04  0.10533013064E+04  0.12500192234E+03 0.  0.
          5    1    3    3  501    0  0.19468118499E+02  0.31090402069E+02  0.11314527769E+03  0.11894319906E+03  0.10000000000E+00 0.  1.
         -5    1    3    3    0  501 -0.29127021435E+02 -0.51902124240E+02  0.93246064197E+03  0.93435810731E+03  0.10000000000E+00 0.  1.
         21    1    1    2  504  503  0.96589029364E+01  0.20811722171E+02 -0.17800925013E+02  0.29039544022E+02  0.00000000000E+00 0. -1.
<mgrwt>
<rscale>  1 0.12709014E+03</rscale>
<asrwt>0</asrwt>
<pdfrwt beam="1">  1       21 0.16231888E+00 0.12709014E+03</pdfrwt>
<pdfrwt beam="2">  1       21 0.41950666E-02 0.12709014E+03</pdfrwt>
<totfact> 0.90752474E+04</totfact>
</mgrwt>
</event>
<event>
 6    1  0.4180481E-002  0.1259437E+03  0.7546771E-02  0.1233602E+00
         21   -1    0    0  504  502  0.00000000000E+00  0.00000000000E+00  0.10297596787E+04  0.10297596787E+04  0.00000000000E+00 0.  1.
         21   -1    0    0  502  503 -0.00000000000E+00 -0.00000000000E+00 -0.49996997472E+01  0.49996997472E+01  0.00000000000E+00 0.  1.
         25    2    1    2    0    0  0.15236328674E+02  0.22390507738E+01  0.95817914796E+03  0.96642076479E+03  0.12499862394E+03 0.  0.
          5    1    3    3  501    0 -0.11130568573E+02  0.49941530018E+02  0.73124625079E+03  0.73303419789E+03  0.10000000000E+00 0. -1.
         -5    1    3    3    0  501  0.26366897248E+02 -0.47702479244E+02  0.22693289717E+03  0.23338656691E+03  0.10000000000E+00 0. -1.
         21    1    1    2  504  503 -0.15236328674E+02 -0.22390507738E+01  0.66580831003E+02  0.68338613659E+02  0.00000000000E+00 0.  1.
<mgrwt>
<rscale>  1 0.12594370E+03</rscale>
<asrwt>0</asrwt>
<pdfrwt beam="1">  1       21 0.15842440E+00 0.12594370E+03</pdfrwt>
<pdfrwt beam="2">  1       21 0.76918540E-03 0.12594370E+03</pdfrwt>
<totfact> 0.14830480E+06</totfact>
</mgrwt>
</event>
<event>
 6    1  0.4180481E-002  0.1296370E+03  0.7546771E-02  0.1227995E+00
         21   -1    0    0  503  502  0.00000000000E+00  0.00000000000E+00  0.83590948517E+02  0.83590948517E+02  0.00000000000E+00 0. -1.
         21   -1    0    0  504  503 -0.00000000000E+00 -0.00000000000E+00 -0.15323002177E+03  0.15323002177E+03  0.00000000000E+00 0.  1.
         25    2    1    2    0    0  0.34368442087E+02 -0.23371627138E+01  0.28568039860E+02  0.13274749044E+03  0.12497644249E+03 0.  0.
          5    1    3    3  501    0  0.71931744236E+01 -0.49029298045E+02  0.53780076664E+02  0.73129477442E+02  0.10000000000E+00 0. -1.
         -5    1    3    3    0  501  0.27175267663E+02  0.46692135331E+02 -0.25212036804E+02  0.59618013001E+02  0.10000000000E+00 0. -1.
         21    1    1    2  504  502 -0.34368442087E+02  0.23371627138E+01 -0.98207113117E+02  0.10407347985E+03  0.00000000000E+00 0.  1.
<mgrwt>
<rscale>  1 0.12963704E+03</rscale>
<asrwt>0</asrwt>
<pdfrwt beam="1">  1       21 0.12860146E-01 0.12963704E+03</pdfrwt>
<pdfrwt beam="2">  1       21 0.23573849E-01 0.12963704E+03</pdfrwt>
<totfact> 0.87995847E+05</totfact>
</mgrwt>
</event>
<event>
 6    1  0.4180481E-002  0.1272814E+03  0.7546771E-02  0.1231546E+00
         21   -1    0    0  504  502  0.00000000000E+00  0.00000000000E+00  0.16414109267E+03  0.16414109267E+03  0.00000000000E+00 0. -1.
         21   -1    0    0  502  503 -0.00000000000E+00 -0.00000000000E+00 -0.35130675128E+02  0.35130675128E+02  0.00000000000E+00 0. -1.
         25    2    1    2    0    0 -0.23884499207E+02 -0.34585986855E+01  0.10250514804E+03  0.16342542184E+03  0.12497252467E+03 0.  0.
          5    1    3    3  501    0 -0.44359336986E+02 -0.41443144923E+02  0.10234736015E+02  0.61563340229E+02  0.10000000000E+00 0.  1.
         -5    1    3    3    0  501  0.20474837779E+02  0.37984546237E+02  0.92270412026E+02  0.10186208161E+03  0.10000000000E+00 0.  1.
         21    1    1    2  504  503  0.23884499207E+02  0.34585986855E+01  0.26505269504E+02  0.35846345961E+02  0.00000000000E+00 0. -1.
<mgrwt>
<rscale>  1 0.12728143E+03</rscale>
<asrwt>0</asrwt>
<pdfrwt beam="1">  1       21 0.25252475E-01 0.12728143E+03</pdfrwt>
<pdfrwt beam="2">  1       21 0.54047194E-02 0.12728143E+03</pdfrwt>
<totfact> 0.34616720E+06</totfact>
</mgrwt>
</event>
<event>
 6    1  0.4180481E-002  0.1301855E+03  0.7546771E-02  0.1227181E+00
         21   -1    0    0  503  502  0.00000000000E+00  0.00000000000E+00  0.12093529243E+03  0.12093529243E+03  0.00000000000E+00 0.  1.
         21   -1    0    0  504  503 -0.00000000000E+00 -0.00000000000E+00 -0.57533713241E+02  0.57533713241E+02  0.00000000000E+00 0.  1.
         25    2    1    2    0    0  0.14470246622E+02  0.33310981426E+02  0.54097538033E+02  0.14097801071E+03  0.12501698430E+03 0.  0.
          5    1    3    3  501    0  0.15955707744E+02 -0.28548872910E+02 -0.24558925237E+02  0.40899554555E+02  0.10000000000E+00 0. -1.
         -5    1    3    3    0  501 -0.14854611216E+01  0.61859854336E+02  0.78656463269E+02  0.10007845616E+03  0.10000000000E+00 0. -1.
         21    1    1    2  504  502 -0.14470246622E+02 -0.33310981426E+02  0.93040411551E+01  0.37490994955E+02  0.00000000000E+00 0.  1.
<mgrwt>
<rscale>  1 0.13018547E+03</rscale>
<asrwt>0</asrwt>
<pdfrwt beam="1">  1       21 0.18605430E-01 0.13018547E+03</pdfrwt>
<pdfrwt beam="2">  1       21 0.88513405E-02 0.13018547E+03</pdfrwt>
<totfact> 0.26338716E+06</totfact>
</mgrwt>
</event>
<event>
 6    1  0.4180481E-002  0.1261227E+03  0.7546771E-02  0.1233325E+00
         21   -1    0    0  503  502  0.00000000000E+00  0.00000000000E+00  0.14103986213E+03  0.14103986213E+03  0.00000000000E+00 0. -1.
         21   -1    0    0  504  503 -0.00000000000E+00 -0.00000000000E+00 -0.36870529506E+02  0.36870529506E+02  0.00000000000E+00 0. -1.
         25    2    1    2    0    0  0.72728546247E+01 -0.15158614318E+02  0.98949388509E+02  0.16030568150E+03  0.12499700809E+03 0.  0.
          5    1    3    3  501    0  0.21260845294E+02 -0.67470099835E+02  0.44838486235E+02  0.83754031319E+02  0.10000000000E+00 0.  1.
         -5    1    3    3    0  501 -0.13987990669E+02  0.52311485517E+02  0.54110902273E+02  0.76551650177E+02  0.10000000000E+00 0.  1.
         21    1    1    2  504  502 -0.72728546247E+01  0.15158614318E+02  0.52199441106E+01  0.17604710136E+02  0.00000000000E+00 0. -1.
<mgrwt>
<rscale>  1 0.12612268E+03</rscale>
<asrwt>0</asrwt>
<pdfrwt beam="1">  1       21 0.21698440E-01 0.12612268E+03</pdfrwt>
<pdfrwt beam="2">  1       21 0.56723892E-02 0.12612268E+03</pdfrwt>
<totfact> 0.42392519E+06</totfact>
</mgrwt>
</event>
<event>
 6    1  0.4180481E-002  0.1261839E+03  0.7546771E-02  0.1233231E+00
         21   -1    0    0  504  502  0.00000000000E+00  0.00000000000E+00  0.10304363281E+03  0.10304363281E+03  0.00000000000E+00 0. -1.
         21   -1    0    0  502  503 -0.00000000000E+00 -0.00000000000E+00 -0.30270603681E+03  0.30270603681E+03  0.00000000000E+00 0. -1.
         25    2    1    2    0    0 -0.13004276972E+02 -0.11389992553E+02  0.64024050222E+02  0.14149715914E+03  0.12499409541E+03 0.  0.
          5    1    3    3  501    0  0.44920906745E+01 -0.39268005204E+02  0.90824726123E+02  0.99051986284E+02  0.10000000000E+00 0.  1.
         -5    1    3    3    0  501 -0.17496367646E+02  0.27878012651E+02 -0.26800675902E+02  0.42445172858E+02  0.10000000000E+00 0.  1.
         21    1    1    2  504  503  0.13004276972E+02  0.11389992553E+02 -0.26368645423E+03  0.26425251048E+03  0.00000000000E+00 0. -1.
<mgrwt>
<rscale>  1 0.12618386E+03</rscale>
<asrwt>0</asrwt>
<pdfrwt beam="1">  1       21 0.15852867E-01 0.12618386E+03</pdfrwt>
<pdfrwt beam="2">  1       21 0.46570158E-01 0.12618386E+03</pdfrwt>
<totfact> 0.15988418E+05</totfact>
</mgrwt>
</event>
<event>
 6    1  0.4180481E-002  0.1352657E+03  0.7546771E-02  0.1219845E+00
         21   -1    0    0  504  502  0.00000000000E+00  0.00000000000E+00  0.15074986705E+03  0.15074986705E+03  0.00000000000E+00 0. -1.
         21   -1    0    0  502  503 -0.00000000000E+00 -0.00000000000E+00 -0.25789763378E+03  0.25789763378E+03  0.00000000000E+00 0. -1.
         25    2    1    2    0    0 -0.39480595270E+02  0.33380542693E+02  0.11685796500E+03  0.17875285999E+03  0.12499529166E+03 0.  0.
          5    1    3    3  501    0 -0.41628567808E+02  0.69142656539E+02  0.11793885078E+03  0.14290985667E+03  0.10000000000E+00 0. -1.
         -5    1    3    3    0  501  0.21479725375E+01 -0.35762113845E+02 -0.10808857759E+01  0.35843003317E+02  0.10000000000E+00 0. -1.
         21    1    1    2  504  503  0.39480595270E+02 -0.33380542693E+02 -0.22400573174E+03  0.22989464084E+03  0.00000000000E+00 0. -1.
<mgrwt>
<rscale>  1 0.13526567E+03</rscale>
<asrwt>0</asrwt>
<pdfrwt beam="1">  1       21 0.23192287E-01 0.13526567E+03</pdfrwt>
<pdfrwt beam="2">  1       21 0.39676559E-01 0.13526567E+03</pdfrwt>
<totfact> 0.10927351E+05</totfact>
</mgrwt>
</event>
<event>
 6    1  0.4180481E-002  0.1270098E+03  0.7546771E-02  0.1231961E+00
         21   -1    0    0  504  502  0.00000000000E+00  0.00000000000E+00  0.16893702492E+03  0.16893702492E+03  0.00000000000E+00 0. -1.
         21   -1    0    0  502  503 -0.00000000000E+00 -0.00000000000E+00 -0.63678250039E+02  0.63678250039E+02  0.00000000000E+00 0. -1.
         25    2    1    2    0    0 -0.22192880901E+02  0.34979913843E+01  0.14139566408E+03  0.19006372190E+03  0.12500689844E+03 0.  0.
          5    1    3    3  501    0 -0.29824343595E+02  0.23340922150E+02  0.15838454399E+03  0.16284951302E+03  0.10000000000E+00 0. -1.
         -5    1    3    3    0  501  0.76314626941E+01 -0.19842930766E+02 -0.16988879912E+02  0.27214208879E+02  0.10000000000E+00 0. -1.
         21    1    1    2  504  503  0.22192880901E+02 -0.34979913843E+01 -0.36136889197E+02  0.42551553053E+02  0.00000000000E+00 0. -1.
<mgrwt>
<rscale>  1 0.12700978E+03</rscale>
<asrwt>0</asrwt>
<pdfrwt beam="1">  1       21 0.25990311E-01 0.12700978E+03</pdfrwt>
<pdfrwt beam="2">  1       21 0.97966539E-02 0.12700978E+03</pdfrwt>
<totfact> 0.11822603E+06</totfact>
</mgrwt>
</event>
<event>
 6    1  0.4180481E-002  0.1259100E+03  0.7546771E-02  0.1233654E+00
         21   -1    0    0  504  502  0.00000000000E+00  0.00000000000E+00  0.56162190305E+01  0.56162190305E+01  0.00000000000E+00 0.  1.
         21   -1    0    0  502  503 -0.00000000000E+00 -0.00000000000E+00 -0.11106061603E+04  0.11106061603E+04  0.00000000000E+00 0.  1.
         25    2    1    2    0    0 -0.14407211898E+02 -0.47612055510E+01 -0.71949286032E+03  0.73042679064E+03  0.12499233416E+03 0.  0.
          5    1    3    3  501    0  0.52407377295E+02  0.11501154106E+02 -0.40254428209E+03  0.40610432007E+03  0.10000000000E+00 0.  1.
         -5    1    3    3    0  501 -0.66814589193E+02 -0.16262359657E+02 -0.31694857823E+03  0.32432247057E+03  0.10000000000E+00 0.  1.
         21    1    1    2  504  503  0.14407211898E+02  0.47612055510E+01 -0.38549708094E+03  0.38579558868E+03  0.00000000000E+00 0.  1.
<mgrwt>
<rscale>  1 0.12590997E+03</rscale>
<asrwt>0</asrwt>
<pdfrwt beam="1">  1       21 0.86403344E-03 0.12590997E+03</pdfrwt>
<pdfrwt beam="2">  1       21 0.17086254E+00 0.12590997E+03</pdfrwt>
<totfact> 0.10102776E+06</totfact>
</mgrwt>
</event>
<event>
 6    1  0.4180481E-002  0.1306966E+03  0.7546771E-02  0.1226426E+00
         21   -1    0    0  504  502  0.00000000000E+00  0.00000000000E+00  0.22141404391E+03  0.22141404391E+03  0.00000000000E+00 0.  1.
         21   -1    0    0  502  503 -0.00000000000E+00 -0.00000000000E+00 -0.64926393905E+02  0.64926393905E+02  0.00000000000E+00 0.  1.
         25    2    1    2    0    0 -0.75381090759E+01 -0.37408638525E+02  0.19328705189E+03  0.23332699325E+03  0.12500148810E+03 0.  0.
          5    1    3    3  501    0  0.13147234790E+02 -0.73881844854E+02  0.16889921571E+03  0.18481972798E+03  0.10000000000E+00 0.  1.
         -5    1    3    3    0  501 -0.20685343866E+02  0.36473206329E+02  0.24387836180E+02  0.48507265274E+02  0.10000000000E+00 0.  1.
         21    1    1    2  504  503  0.75381090759E+01  0.37408638525E+02 -0.36799401890E+02  0.53013444561E+02  0.00000000000E+00 0.  1.
<mgrwt>
<rscale>  1 0.13069660E+03</rscale>
<asrwt>0</asrwt>
<pdfrwt beam="1">  1       21 0.34063699E-01 0.13069660E+03</pdfrwt>
<pdfrwt beam="2">  1       21 0.99886761E-02 0.13069660E+03</pdfrwt>
<totfact> 0.67865870E+05</totfact>
</mgrwt>
</event>
<event>
 6    1  0.4180481E-002  0.1274640E+03  0.7546771E-02  0.1231268E+00
         21   -1    0    0  503  502  0.00000000000E+00  0.00000000000E+00  0.88543689478E+03  0.88543689478E+03  0.00000000000E+00 0. -1.
         21   -1    0    0  504  503 -0.00000000000E+00 -0.00000000000E+00 -0.21925211669E+02  0.21925211669E+02  0.00000000000E+00 0. -1.
         25    2    1    2    0    0  0.12293967575E+02  0.21697530186E+02  0.87181042092E+03  0.88107915562E+03  0.12500057593E+03 0.  0.
          5    1    3    3  501    0  0.95389260105E+01 -0.52352370985E+02  0.38552303164E+03  0.38917833930E+03  0.10000000000E+00 0. -1.
         -5    1    3    3    0  501  0.27550415644E+01  0.74049901171E+02  0.48628738929E+03  0.49190081632E+03  0.10000000000E+00 0. -1.
         21    1    1    2  504  502 -0.12293967575E+02 -0.21697530186E+02 -0.82987378140E+01  0.26282950828E+02  0.00000000000E+00 0. -1.
<mgrwt>
<rscale>  1 0.12746399E+03</rscale>
<asrwt>0</asrwt>
<pdfrwt beam="1">  1       21 0.13622103E+00 0.12746399E+03</pdfrwt>
<pdfrwt beam="2">  1       21 0.33731102E-02 0.12746399E+03</pdfrwt>
<totfact> 0.20488123E+05</totfact>
</mgrwt>
</event>
<event>
 6    1  0.4180481E-002  0.1272436E+03  0.7546771E-02  0.1231604E+00
         21   -1    0    0  503  502  0.00000000000E+00  0.00000000000E+00  0.20276912768E+02  0.20276912768E+02  0.00000000000E+00 0. -1.
         21   -1    0    0  504  503 -0.00000000000E+00 -0.00000000000E+00 -0.28763686861E+03  0.28763686861E+03  0.00000000000E+00 0. -1.
         25    2    1    2    0    0  0.69081452834E+01 -0.22607329161E+02 -0.20566533043E+03  0.24184532743E+03  0.12502847857E+03 0.  0.
          5    1    3    3  501    0 -0.31055108177E+01 -0.67287978288E+02 -0.17285079062E+03  0.18551205362E+03  0.10000000000E+00 0. -1.
         -5    1    3    3    0  501  0.10013656101E+02  0.44680649127E+02 -0.32814539814E+02  0.56333273810E+02  0.10000000000E+00 0. -1.
         21    1    1    2  504  502 -0.69081452834E+01  0.22607329161E+02 -0.61694625411E+02  0.66068453953E+02  0.00000000000E+00 0. -1.
<mgrwt>
<rscale>  1 0.12724360E+03</rscale>
<asrwt>0</asrwt>
<pdfrwt beam="1">  1       21 0.31195252E-02 0.12724360E+03</pdfrwt>
<pdfrwt beam="2">  1       21 0.44251823E-01 0.12724360E+03</pdfrwt>
<totfact> 0.28841282E+06</totfact>
</mgrwt>
</event>
<event>
 6    1  0.4180481E-002  0.1262195E+03  0.7546771E-02  0.1233176E+00
         21   -1    0    0  504  502  0.00000000000E+00  0.00000000000E+00  0.12092442196E+03  0.12092442196E+03  0.00000000000E+00 0.  1.
         21   -1    0    0  502  503 -0.00000000000E+00 -0.00000000000E+00 -0.12315218065E+03  0.12315218065E+03  0.00000000000E+00 0. -1.
         25    2    1    2    0    0  0.28924998242E+01  0.17246863747E+02  0.86905076659E+02  0.15324443209E+03  0.12500217099E+03 0.  0.
          5    1    3    3  501    0  0.76098481820E+01 -0.63028270489E+01  0.11548820114E+03  0.11591018083E+03  0.10000000000E+00 0. -1.
         -5    1    3    3    0  501 -0.47173483578E+01  0.23549690796E+02 -0.28583124477E+02  0.37334251258E+02  0.10000000000E+00 0. -1.
         21    1    1    2  504  503 -0.28924998242E+01 -0.17246863747E+02 -0.89132835350E+02  0.90832170523E+02  0.00000000000E+00 0. -1.
<mgrwt>
<rscale>  1 0.12621951E+03</rscale>
<asrwt>0</asrwt>
<pdfrwt beam="1">  1       21 0.18603757E-01 0.12621951E+03</pdfrwt>
<pdfrwt beam="2">  1       21 0.18946489E-01 0.12621951E+03</pdfrwt>
<totfact> 0.67761860E+05</totfact>
</mgrwt>
</event>
<event>
 6    1  0.4180481E-002  0.1262195E+03  0.7546771E-02  0.1233176E+00
         21   -1    0    0  503  502  0.00000000000E+00  0.00000000000E+00  0.63545371973E+03  0.63545371973E+03  0.00000000000E+00 0. -1.
         21   -1    0    0  504  503 -0.00000000000E+00 -0.00000000000E+00 -0.12118067475E+02  0.12118067475E+02  0.00000000000E+00 0. -1.
         25    2    1    2    0    0 -0.63714716103E+01 -0.16287318339E+02  0.61567228245E+03  0.62847729517E+03  0.12500191509E+03 0.  0.
          5    1    3    3  501    0 -0.10724653874E+02 -0.49821964738E+02  0.10528401620E+03  0.11696999802E+03  0.10000000000E+00 0.  1.
         -5    1    3    3    0  501  0.43531822637E+01  0.33534646398E+02  0.51038826626E+03  0.51150729715E+03  0.10000000000E+00 0.  1.
         21    1    1    2  504  502  0.63714716103E+01  0.16287318339E+02  0.76633697971E+01  0.19094492028E+02  0.00000000000E+00 0. -1.
<mgrwt>
<rscale>  1 0.12621946E+03</rscale>
<asrwt>0</asrwt>
<pdfrwt beam="1">  1       21 0.97762085E-01 0.12621946E+03</pdfrwt>
<pdfrwt beam="2">  1       21 0.18643186E-02 0.12621946E+03</pdfrwt>
<totfact> 0.11994577E+06</totfact>
</mgrwt>
</event>
<event>
 6    1  0.4180481E-002  0.1594287E+03  0.7546771E-02  0.1189343E+00
         21   -1    0    0  503  502  0.00000000000E+00  0.00000000000E+00  0.12289672187E+02  0.12289672187E+02  0.00000000000E+00 0. -1.
         21   -1    0    0  504  503 -0.00000000000E+00 -0.00000000000E+00 -0.13584296971E+04  0.13584296971E+04  0.00000000000E+00 0. -1.
         25    2    1    2    0    0  0.98576418570E+02 -0.90028438034E+01 -0.83128102939E+03  0.84643114058E+03  0.12497665549E+03 0.  0.
          5    1    3    3  501    0  0.72277620597E+02 -0.62078874175E+02 -0.60830296245E+03  0.61571937210E+03  0.10000000000E+00 0. -1.
         -5    1    3    3    0  501  0.26298797973E+02  0.53076030372E+02 -0.22297806695E+03  0.23071176848E+03  0.10000000000E+00 0. -1.
         21    1    1    2  504  502 -0.98576418570E+02  0.90028438034E+01 -0.51485899550E+03  0.52428822869E+03  0.00000000000E+00 0. -1.
<mgrwt>
<rscale>  1 0.15942875E+03</rscale>
<asrwt>0</asrwt>
<pdfrwt beam="1">  1       21 0.18907194E-02 0.15942875E+03</pdfrwt>
<pdfrwt beam="2">  1       21 0.20898912E+00 0.15942875E+03</pdfrwt>
<totfact> 0.16179194E+05</totfact>
</mgrwt>
</event>
<event>
 6    1  0.4180481E-002  0.1260024E+03  0.7546771E-02  0.1233511E+00
         21   -1    0    0  504  502  0.00000000000E+00  0.00000000000E+00  0.50110638247E+03  0.50110638247E+03  0.00000000000E+00 0. -1.
         21   -1    0    0  502  503 -0.00000000000E+00 -0.00000000000E+00 -0.10203179984E+02  0.10203179984E+02  0.00000000000E+00 0. -1.
         25    2    1    2    0    0 -0.96978266173E+01  0.13451777157E+02  0.44535273223E+03  0.46283437818E+03  0.12490639444E+03 0.  0.
          5    1    3    3  501    0  0.49949425000E+02  0.84734069199E+01  0.31928029273E+03  0.32327489697E+03  0.10000000000E+00 0. -1.
         -5    1    3    3    0  501 -0.59647251617E+02  0.49783702369E+01  0.12607243950E+03  0.13955948122E+03  0.10000000000E+00 0. -1.
         21    1    1    2  504  503  0.96978266173E+01 -0.13451777157E+02  0.45550470254E+02  0.48475184271E+02  0.00000000000E+00 0. -1.
<mgrwt>
<rscale>  1 0.12600240E+03</rscale>
<asrwt>0</asrwt>
<pdfrwt beam="1">  1       21 0.77093271E-01 0.12600240E+03</pdfrwt>
<pdfrwt beam="2">  1       21 0.15697204E-02 0.12600240E+03</pdfrwt>
<totfact> 0.27091414E+06</totfact>
</mgrwt>
</event>
<event>
 6    1  0.4180481E-002  0.1563099E+03  0.7546771E-02  0.1192927E+00
         21   -1    0    0  503  502  0.00000000000E+00  0.00000000000E+00  0.28141099176E+02  0.28141099176E+02  0.00000000000E+00 0. -1.
         21   -1    0    0  504  503 -0.00000000000E+00 -0.00000000000E+00 -0.90296597953E+03  0.90296597953E+03  0.00000000000E+00 0.  1.
         25    2    1    2    0    0  0.41717415027E+02 -0.84072022243E+02 -0.22164057082E+03  0.27121451938E+03  0.12499730095E+03 0.  0.
          5    1    3    3  501    0  0.11499123232E+02  0.15609152199E+02  0.64773403096E+01  0.20441169364E+02  0.10000000000E+00 0. -1.
         -5    1    3    3    0  501  0.30218291795E+02 -0.99681174442E+02 -0.22811791113E+03  0.25077335001E+03  0.10000000000E+00 0. -1.
         21    1    1    2  504  502 -0.41717415027E+02  0.84072022243E+02 -0.65318430953E+03  0.65989255933E+03  0.00000000000E+00 0.  1.
<mgrwt>
<rscale>  1 0.15630986E+03</rscale>
<asrwt>0</asrwt>
<pdfrwt beam="1">  1       21 0.43293999E-02 0.15630986E+03</pdfrwt>
<pdfrwt beam="2">  1       21 0.13891784E+00 0.15630986E+03</pdfrwt>
<totfact> 0.12728550E+05</totfact>
</mgrwt>
</event>
<event>
 6    1  0.4180481E-002  0.1273140E+03  0.7546771E-02  0.1231497E+00
         21   -1    0    0  504  502  0.00000000000E+00  0.00000000000E+00  0.35936024437E+02  0.35936024437E+02  0.00000000000E+00 0.  1.
         21   -1    0    0  502  503 -0.00000000000E+00 -0.00000000000E+00 -0.17324600521E+03  0.17324600521E+03  0.00000000000E+00 0.  1.
         25    2    1    2    0    0  0.36833335263E+00 -0.24102731655E+02 -0.89456130377E+02  0.15559967863E+03  0.12501113305E+03 0.  0.
          5    1    3    3  501    0  0.59263818839E+02  0.81229981717E+01 -0.48005004706E+02  0.76698590597E+02  0.10000000000E+00 0.  1.
         -5    1    3    3    0  501 -0.58895485487E+02 -0.32225729827E+02 -0.41451125671E+02  0.78901088034E+02  0.10000000000E+00 0.  1.
         21    1    1    2  504  503 -0.36833335263E+00  0.24102731655E+02 -0.47853850391E+02  0.53582351011E+02  0.00000000000E+00 0.  1.
<mgrwt>
<rscale>  1 0.12731402E+03</rscale>
<asrwt>0</asrwt>
<pdfrwt beam="1">  1       21 0.55286191E-02 0.12731402E+03</pdfrwt>
<pdfrwt beam="2">  1       21 0.26653232E-01 0.12731402E+03</pdfrwt>
<totfact> 0.30076451E+06</totfact>
</mgrwt>
</event>
<event>
 6    1  0.4180481E-002  0.1321350E+03  0.7546771E-02  0.1224322E+00
         21   -1    0    0  504  502  0.00000000000E+00  0.00000000000E+00  0.74199746769E+02  0.74199746769E+02  0.00000000000E+00 0.  1.
         21   -1    0    0  502  503 -0.00000000000E+00 -0.00000000000E+00 -0.13641822856E+03  0.13641822856E+03  0.00000000000E+00 0.  1.
         25    2    1    2    0    0  0.37559096902E+02  0.20602766715E+02 -0.89715335736E+02  0.15971378362E+03  0.12499796580E+03 0.  0.
          5    1    3    3  501    0  0.51734009879E+01 -0.25646997917E+02  0.22232181407E+02  0.34333838557E+02  0.10000000000E+00 0. -1.
         -5    1    3    3    0  501  0.32385695914E+02  0.46249764632E+02 -0.11194751714E+03  0.12537994506E+03  0.10000000000E+00 0. -1.
         21    1    1    2  504  503 -0.37559096902E+02 -0.20602766715E+02  0.27496853949E+02  0.50904191709E+02  0.00000000000E+00 0.  1.
<mgrwt>
<rscale>  1 0.13213497E+03</rscale>
<asrwt>0</asrwt>
<pdfrwt beam="1">  1       21 0.11415346E-01 0.13213497E+03</pdfrwt>
<pdfrwt beam="2">  1       21 0.20987420E-01 0.13213497E+03</pdfrwt>
<totfact> 0.13510187E+06</totfact>
</mgrwt>
</event>
<event>
 6    1  0.4180481E-002  0.1304343E+03  0.7546771E-02  0.1226813E+00
         21   -1    0    0  503  502  0.00000000000E+00  0.00000000000E+00  0.11644599595E+03  0.11644599595E+03  0.00000000000E+00 0. -1.
         21   -1    0    0  504  503 -0.00000000000E+00 -0.00000000000E+00 -0.21706399033E+03  0.21706399033E+03  0.00000000000E+00 0. -1.
         25    2    1    2    0    0 -0.33468375518E+02 -0.16355417446E+02  0.77377189115E+02  0.15165862613E+03  0.12500191056E+03 0.  0.
          5    1    3    3  501    0  0.27686686266E+02 -0.50117372527E+02  0.18121264742E+02  0.60055756271E+02  0.10000000000E+00 0.  1.
         -5    1    3    3    0  501 -0.61155061784E+02  0.33761955082E+02  0.59255924372E+02  0.91602869857E+02  0.10000000000E+00 0.  1.
         21    1    1    2  504  502  0.33468375518E+02  0.16355417446E+02 -0.17799518350E+03  0.18185136015E+03  0.00000000000E+00 0. -1.
<mgrwt>
<rscale>  1 0.13043431E+03</rscale>
<asrwt>0</asrwt>
<pdfrwt beam="1">  1       21 0.17914769E-01 0.13043431E+03</pdfrwt>
<pdfrwt beam="2">  1       21 0.33394460E-01 0.13043431E+03</pdfrwt>
<totfact> 0.24826575E+05</totfact>
</mgrwt>
</event>
<event>
 6    1  0.4180481E-002  0.1266981E+03  0.7546771E-02  0.1232439E+00
         21   -1    0    0  504  502  0.00000000000E+00  0.00000000000E+00  0.90262663485E+02  0.90262663485E+02  0.00000000000E+00 0. -1.
         21   -1    0    0  502  503 -0.00000000000E+00 -0.00000000000E+00 -0.61982683554E+02  0.61982683554E+02  0.00000000000E+00 0. -1.
         25    2    1    2    0    0  0.75701775336E+01  0.19246600237E+02  0.33221855979E+02  0.13098126118E+03  0.12499863942E+03 0.  0.
          5    1    3    3  501    0 -0.26770958153E+02  0.60771191389E+02  0.38630267604E+02  0.76825317952E+02  0.10000000000E+00 0.  1.
         -5    1    3    3    0  501  0.34341135686E+02 -0.41524591152E+02 -0.54084116245E+01  0.54155943227E+02  0.10000000000E+00 0.  1.
         21    1    1    2  504  503 -0.75701775336E+01 -0.19246600237E+02 -0.49418760488E+01  0.21264085860E+02  0.00000000000E+00 0. -1.
<mgrwt>
<rscale>  1 0.12669806E+03</rscale>
<asrwt>0</asrwt>
<pdfrwt beam="1">  1       21 0.13886564E-01 0.12669806E+03</pdfrwt>
<pdfrwt beam="2">  1       21 0.95357975E-02 0.12669806E+03</pdfrwt>
<totfact> 0.39279985E+06</totfact>
</mgrwt>
</event>
<event>
 6    1  0.4180481E-002  0.1267425E+03  0.7546771E-02  0.1232371E+00
         21   -1    0    0  503  502  0.00000000000E+00  0.00000000000E+00  0.42239057986E+03  0.42239057986E+03  0.00000000000E+00 0. -1.
         21   -1    0    0  504  503 -0.00000000000E+00 -0.00000000000E+00 -0.13721113860E+02  0.13721113860E+02  0.00000000000E+00 0. -1.
         25    2    1    2    0    0  0.15206962170E+01  0.20921095783E+02  0.30402523692E+03  0.32938578569E+03  0.12499458533E+03 0.  0.
          5    1    3    3  501    0 -0.25808418216E+02 -0.46558350267E+02  0.14581841125E+03  0.15523135473E+03  0.10000000000E+00 0.  1.
         -5    1    3    3    0  501  0.27329114433E+02  0.67479446050E+02  0.15820682567E+03  0.17415443096E+03  0.10000000000E+00 0.  1.
         21    1    1    2  504  502 -0.15206962170E+01 -0.20921095783E+02  0.10464422908E+03  0.10672590803E+03  0.00000000000E+00 0. -1.
<mgrwt>
<rscale>  1 0.12674246E+03</rscale>
<asrwt>0</asrwt>
<pdfrwt beam="1">  1       21 0.64983156E-01 0.12674246E+03</pdfrwt>
<pdfrwt beam="2">  1       21 0.21109409E-02 0.12674246E+03</pdfrwt>
<totfact> 0.24444383E+06</totfact>
</mgrwt>
</event>
<event>
 6    1  0.4180481E-002  0.1260287E+03  0.7546771E-02  0.1233470E+00
         21   -1    0    0  503  502  0.00000000000E+00  0.00000000000E+00  0.12907067664E+02  0.12907067664E+02  0.00000000000E+00 0.  1.
         21   -1    0    0  504  503 -0.00000000000E+00 -0.00000000000E+00 -0.56531082863E+03  0.56531082863E+03  0.00000000000E+00 0.  1.
         25    2    1    2    0    0  0.14272401502E+02  0.73180178739E+01 -0.30121454316E+03  0.32651712559E+03  0.12500390979E+03 0.  0.
          5    1    3    3  501    0  0.12377485149E+02 -0.42017647688E+02 -0.25551099512E+03  0.25923842979E+03  0.10000000000E+00 0. -1.
         -5    1    3    3    0  501  0.18949163529E+01  0.49335665562E+02 -0.45703548039E+02  0.67278695794E+02  0.10000000000E+00 0. -1.
         21    1    1    2  504  502 -0.14272401502E+02 -0.73180178739E+01 -0.25118921781E+03  0.25170077070E+03  0.00000000000E+00 0.  1.
<mgrwt>
<rscale>  1 0.12602870E+03</rscale>
<asrwt>0</asrwt>
<pdfrwt beam="1">  1       21 0.19857023E-02 0.12602870E+03</pdfrwt>
<pdfrwt beam="2">  1       21 0.86970913E-01 0.12602870E+03</pdfrwt>
<totfact> 0.14175099E+06</totfact>
</mgrwt>
</event>
<event>
 6    1  0.4180481E-002  0.1325896E+03  0.7546771E-02  0.1223663E+00
         21   -1    0    0  503  502  0.00000000000E+00  0.00000000000E+00  0.91557891166E+01  0.91557891166E+01  0.00000000000E+00 0. -1.
         21   -1    0    0  504  503 -0.00000000000E+00 -0.00000000000E+00 -0.97456581851E+03  0.97456581851E+03  0.00000000000E+00 0.  1.
         25    2    1    2    0    0 -0.32361604010E+02  0.30109839486E+02 -0.54077981686E+03  0.55679691492E+03  0.12500447309E+03 0.  0.
          5    1    3    3  501    0 -0.49322776985E+01  0.68116504891E+02 -0.17219567283E+03  0.18524455550E+03  0.10000000000E+00 0. -1.
         -5    1    3    3    0  501 -0.27429326311E+02 -0.38006665405E+02 -0.36858414403E+03  0.37155235942E+03  0.10000000000E+00 0. -1.
         21    1    1    2  504  502  0.32361604010E+02 -0.30109839486E+02 -0.42463021253E+03  0.42692469270E+03  0.00000000000E+00 0.  1.
<mgrwt>
<rscale>  1 0.13258957E+03</rscale>
<asrwt>0</asrwt>
<pdfrwt beam="1">  1       21 0.14085825E-02 0.13258957E+03</pdfrwt>
<pdfrwt beam="2">  1       21 0.14993325E+00 0.13258957E+03</pdfrwt>
<totfact> 0.65860361E+05</totfact>
</mgrwt>
</event>
<event>
 6    1  0.4180481E-002  0.1259400E+03  0.7546771E-02  0.1233607E+00
         21   -1    0    0  504  502  0.00000000000E+00  0.00000000000E+00  0.23530785006E+02  0.23530785006E+02  0.00000000000E+00 0. -1.
         21   -1    0    0  502  503 -0.00000000000E+00 -0.00000000000E+00 -0.67719201816E+03  0.67719201816E+03  0.00000000000E+00 0. -1.
         25    2    1    2    0    0 -0.14992830207E+02  0.34125084758E+01 -0.14593544080E+03  0.19276423164E+03  0.12499786376E+03 0.  0.
          5    1    3    3  501    0 -0.31648680765E+02 -0.55825926237E+02 -0.68653555072E+02  0.93976027041E+02  0.10000000000E+00 0. -1.
         -5    1    3    3    0  501  0.16655850558E+02  0.59238434713E+02 -0.77281885732E+02  0.98788204596E+02  0.10000000000E+00 0. -1.
         21    1    1    2  504  503  0.14992830207E+02 -0.34125084758E+01 -0.50772579235E+03  0.50795857153E+03  0.00000000000E+00 0. -1.
<mgrwt>
<rscale>  1 0.12594005E+03</rscale>
<asrwt>0</asrwt>
<pdfrwt beam="1">  1       21 0.36201211E-02 0.12594005E+03</pdfrwt>
<pdfrwt beam="2">  1       21 0.10418338E+00 0.12594005E+03</pdfrwt>
<totfact> 0.35032311E+05</totfact>
</mgrwt>
</event>
<event>
 6    1  0.4180481E-002  0.1261208E+03  0.7546771E-02  0.1233328E+00
         21   -1    0    0  504  502  0.00000000000E+00  0.00000000000E+00  0.47604555324E+02  0.47604555324E+02  0.00000000000E+00 0. -1.
         21   -1    0    0  502  503 -0.00000000000E+00 -0.00000000000E+00 -0.11014385124E+03  0.11014385124E+03  0.00000000000E+00 0. -1.
         25    2    1    2    0    0 -0.20749784728E+00 -0.16798461021E+02 -0.46208782752E+02  0.13431942861E+03  0.12499690376E+03 0.  0.
          5    1    3    3  501    0  0.21805500718E+02 -0.67451240516E+02 -0.25509662224E+02  0.75338586233E+02  0.10000000000E+00 0. -1.
         -5    1    3    3    0  501 -0.22012998566E+02  0.50652779495E+02 -0.20699120527E+02  0.58980842373E+02  0.10000000000E+00 0. -1.
         21    1    1    2  504  503  0.20749784728E+00  0.16798461021E+02 -0.16330513169E+02  0.23428977963E+02  0.00000000000E+00 0.  1.
<mgrwt>
<rscale>  1 0.12612080E+03</rscale>
<asrwt>0</asrwt>
<pdfrwt beam="1">  1       21 0.73237778E-02 0.12612080E+03</pdfrwt>
<pdfrwt beam="2">  1       21 0.16945208E-01 0.12612080E+03</pdfrwt>
<totfact> 0.43260934E+06</totfact>
</mgrwt>
</event>
<event>
 6    1  0.4180481E-002  0.1310372E+03  0.7546771E-02  0.1225925E+00
         21   -1    0    0  504  502  0.00000000000E+00  0.00000000000E+00  0.18806879295E+03  0.18806879295E+03  0.00000000000E+00 0. -1.
         21   -1    0    0  502  503 -0.00000000000E+00 -0.00000000000E+00 -0.23393886410E+03  0.23393886410E+03  0.00000000000E+00 0.  1.
         25    2    1    2    0    0  0.17410280455E+02  0.35259206820E+02  0.16318594099E+03  0.20928543033E+03  0.12499764189E+03 0.  0.
          5    1    3    3  501    0  0.15223022729E+02 -0.14706251315E+02  0.15753860136E+03  0.15895419204E+03  0.10000000000E+00 0. -1.
         -5    1    3    3    0  501  0.21872577265E+01  0.49965458135E+02  0.56473396376E+01  0.50331238292E+02  0.10000000000E+00 0. -1.
         21    1    1    2  504  503 -0.17410280455E+02 -0.35259206820E+02 -0.20905601214E+03  0.21272222673E+03  0.00000000000E+00 0.  1.
<mgrwt>
<rscale>  1 0.13103717E+03</rscale>
<asrwt>0</asrwt>
<pdfrwt beam="1">  1       21 0.28933660E-01 0.13103717E+03</pdfrwt>
<pdfrwt beam="2">  1       21 0.35990595E-01 0.13103717E+03</pdfrwt>
<totfact> 0.87277702E+04</totfact>
</mgrwt>
</event>
<event>
 6    1  0.4180481E-002  0.1695519E+03  0.7546771E-02  0.1178316E+00
         21   -1    0    0  503  502  0.00000000000E+00  0.00000000000E+00  0.85368294590E+02  0.85368294590E+02  0.00000000000E+00 0. -1.
         21   -1    0    0  504  503 -0.00000000000E+00 -0.00000000000E+00 -0.41692616964E+03  0.41692616964E+03  0.00000000000E+00 0. -1.
         25    2    1    2    0    0 -0.10331917608E+03  0.49477009182E+02 -0.20467619376E+02  0.17078281472E+03  0.12500007911E+03 0.  0.
          5    1    3    3  501    0  0.29134128971E+02  0.14296603276E+02 -0.22415344810E+01  0.32530367550E+02  0.10000000000E+00 0.  1.
         -5    1    3    3    0  501 -0.13245330505E+03  0.35180405906E+02 -0.18226084895E+02  0.13825244717E+03  0.10000000000E+00 0.  1.
         21    1    1    2  504  502  0.10331917608E+03 -0.49477009182E+02 -0.31109025567E+03  0.33151164951E+03  0.00000000000E+00 0. -1.
<mgrwt>
<rscale>  1 0.16955190E+03</rscale>
<asrwt>0</asrwt>
<pdfrwt beam="1">  1       21 0.13133584E-01 0.16955190E+03</pdfrwt>
<pdfrwt beam="2">  1       21 0.64142487E-01 0.16955190E+03</pdfrwt>
<totfact> 0.11293016E+05</totfact>
</mgrwt>
</event>
<event>
 6    1  0.4180481E-002  0.1299259E+03  0.7546771E-02  0.1227566E+00
         21   -1    0    0  503  502  0.00000000000E+00  0.00000000000E+00  0.14238395721E+02  0.14238395721E+02  0.00000000000E+00 0. -1.
         21   -1    0    0  504  503 -0.00000000000E+00 -0.00000000000E+00 -0.92391137625E+03  0.92391137625E+03  0.00000000000E+00 0. -1.
         25    2    1    2    0    0 -0.35141517717E+02  0.45871124200E+01 -0.29366056673E+03  0.32111876641E+03  0.12499906328E+03 0.  0.
          5    1    3    3  501    0  0.10406151385E+02  0.12973535080E+02  0.61648872445E+01  0.17737430306E+02  0.10000000000E+00 0.  1.
         -5    1    3    3    0  501 -0.45547669102E+02 -0.83864226604E+01 -0.29982545397E+03  0.30338133610E+03  0.10000000000E+00 0.  1.
         21    1    1    2  504  502  0.35141517717E+02 -0.45871124200E+01 -0.61601241380E+03  0.61703100556E+03  0.00000000000E+00 0. -1.
<mgrwt>
<rscale>  1 0.12992588E+03</rscale>
<asrwt>0</asrwt>
<pdfrwt beam="1">  1       21 0.21905215E-02 0.12992588E+03</pdfrwt>
<pdfrwt beam="2">  1       21 0.14214027E+00 0.12992588E+03</pdfrwt>
<totfact> 0.37192766E+05</totfact>
</mgrwt>
</event>
<event>
 6    1  0.4180481E-002  0.1278681E+03  0.7546771E-02  0.1230654E+00
         21   -1    0    0  504  502  0.00000000000E+00  0.00000000000E+00  0.58632726954E+03  0.58632726954E+03  0.00000000000E+00 0. -1.
         21   -1    0    0  502  503 -0.00000000000E+00 -0.00000000000E+00 -0.11647677161E+03  0.11647677161E+03  0.00000000000E+00 0.  1.
         25    2    1    2    0    0  0.85123750605E+01  0.25536562637E+02  0.57768157404E+03  0.59166396047E+03  0.12500265825E+03 0.  0.
          5    1    3    3  501    0 -0.15987145687E+02 -0.47838622382E+02  0.23772982054E+03  0.24302181011E+03  0.10000000000E+00 0. -1.
         -5    1    3    3    0  501  0.24499520747E+02  0.73375185019E+02  0.33995175350E+03  0.34864215035E+03  0.10000000000E+00 0. -1.
         21    1    1    2  504  503 -0.85123750605E+01 -0.25536562637E+02 -0.10783107610E+03  0.11114008068E+03  0.00000000000E+00 0.  1.
<mgrwt>
<rscale>  1 0.12786806E+03</rscale>
<asrwt>0</asrwt>
<pdfrwt beam="1">  1       21 0.90204193E-01 0.12786806E+03</pdfrwt>
<pdfrwt beam="2">  1       21 0.17919504E-01 0.12786806E+03</pdfrwt>
<totfact> 0.30761070E+04</totfact>
</mgrwt>
</event>
<event>
 6    1  0.4180481E-002  0.1427614E+03  0.7546771E-02  0.1209661E+00
         21   -1    0    0  503  502  0.00000000000E+00  0.00000000000E+00  0.17784824974E+04  0.17784824974E+04  0.00000000000E+00 0. -1.
         21   -1    0    0  504  503 -0.00000000000E+00 -0.00000000000E+00 -0.75278720235E+01  0.75278720235E+01  0.00000000000E+00 0. -1.
         25    2    1    2    0    0 -0.86792587461E+01 -0.68404170088E+02  0.14855760301E+04  0.14924198337E+04  0.12500543522E+03 0.  0.
          5    1    3    3  501    0  0.95553297024E+01  0.61769375900E+01  0.10543981652E+04  0.10544595581E+04  0.10000000000E+00 0. -1.
         -5    1    3    3    0  501 -0.18234588448E+02 -0.74581107678E+02  0.43117786489E+03  0.43796027561E+03  0.10000000000E+00 0. -1.
         21    1    1    2  504  502  0.86792587461E+01  0.68404170088E+02  0.28537859534E+03  0.29359053578E+03  0.00000000000E+00 0. -1.
<mgrwt>
<rscale>  1 0.14276141E+03</rscale>
<asrwt>0</asrwt>
<pdfrwt beam="1">  1       21 0.27361236E+00 0.14276141E+03</pdfrwt>
<pdfrwt beam="2">  1       21 0.11581356E-02 0.14276141E+03</pdfrwt>
<totfact> 0.14948466E+05</totfact>
</mgrwt>
</event>
<event>
 6    1  0.4180481E-002  0.1275327E+03  0.7546771E-02  0.1231163E+00
         21   -1    0    0  503  502  0.00000000000E+00  0.00000000000E+00  0.59072309053E+02  0.59072309053E+02  0.00000000000E+00 0.  1.
         21   -1    0    0  504  503 -0.00000000000E+00 -0.00000000000E+00 -0.99000539408E+02  0.99000539408E+02  0.00000000000E+00 0.  1.
         25    2    1    2    0    0 -0.62888189237E+01 -0.24540708336E+02 -0.31389064438E+02  0.13133873236E+03  0.12499117426E+03 0.  0.
          5    1    3    3  501    0 -0.18971184137E+02  0.37459471133E+02  0.23015629811E+02  0.47883682197E+02  0.10000000000E+00 0.  1.
         -5    1    3    3    0  501  0.12682365214E+02 -0.62000179469E+02 -0.54404694249E+02  0.83455050165E+02  0.10000000000E+00 0.  1.
         21    1    1    2  504  502  0.62888189237E+01  0.24540708336E+02 -0.85391659165E+01  0.26734116099E+02  0.00000000000E+00 0.  1.
<mgrwt>
<rscale>  1 0.12753270E+03</rscale>
<asrwt>0</asrwt>
<pdfrwt beam="1">  1       21 0.90880476E-02 0.12753270E+03</pdfrwt>
<pdfrwt beam="2">  1       21 0.15230852E-01 0.12753270E+03</pdfrwt>
<totfact> 0.36183894E+06</totfact>
</mgrwt>
</event>
<event>
 6    1  0.4180481E-002  0.1270410E+03  0.7546771E-02  0.1231914E+00
         21   -1    0    0  503  502  0.00000000000E+00  0.00000000000E+00  0.35252531886E+02  0.35252531886E+02  0.00000000000E+00 0. -1.
         21   -1    0    0  504  503 -0.00000000000E+00 -0.00000000000E+00 -0.16573129432E+03  0.16573129432E+03  0.00000000000E+00 0. -1.
         25    2    1    2    0    0 -0.14843389869E+02  0.17139370944E+02 -0.94012761458E+02  0.15804371109E+03  0.12500132414E+03 0.  0.
          5    1    3    3  501    0 -0.66821544159E+02  0.19273695911E+02 -0.75936416139E+02  0.10297059490E+03  0.10000000000E+00 0.  1.
         -5    1    3    3    0  501  0.51978154290E+02 -0.21343249668E+01 -0.18076345319E+02  0.55073116187E+02  0.10000000000E+00 0.  1.
         21    1    1    2  504  502  0.14843389869E+02 -0.17139370944E+02 -0.36466000973E+02  0.42940115116E+02  0.00000000000E+00 0. -1.
<mgrwt>
<rscale>  1 0.12704100E+03</rscale>
<asrwt>0</asrwt>
<pdfrwt beam="1">  1       21 0.54234664E-02 0.12704100E+03</pdfrwt>
<pdfrwt beam="2">  1       21 0.25497122E-01 0.12704100E+03</pdfrwt>
<totfact> 0.33790550E+06</totfact>
</mgrwt>
</event>
<event>
 6    1  0.4180481E-002  0.1281106E+03  0.7546771E-02  0.1230287E+00
         21   -1    0    0  503  502  0.00000000000E+00  0.00000000000E+00  0.15459272154E+02  0.15459272154E+02  0.00000000000E+00 0. -1.
         21   -1    0    0  504  503 -0.00000000000E+00 -0.00000000000E+00 -0.49276981432E+03  0.49276981432E+03  0.00000000000E+00 0. -1.
         25    2    1    2    0    0 -0.27850312992E+02 -0.10963941734E+01 -0.26771951227E+03  0.29679294522E+03  0.12504188527E+03 0.  0.
          5    1    3    3  501    0  0.25573991684E+02  0.21923614745E+02 -0.21704620341E+03  0.21964457277E+03  0.10000000000E+00 0.  1.
         -5    1    3    3    0  501 -0.53424304677E+02 -0.23020008919E+02 -0.50673308857E+02  0.77148372448E+02  0.10000000000E+00 0.  1.
         21    1    1    2  504  502  0.27850312992E+02  0.10963941734E+01 -0.20959102989E+03  0.21143614125E+03  0.00000000000E+00 0.  1.
<mgrwt>
<rscale>  1 0.12811056E+03</rscale>
<asrwt>0</asrwt>
<pdfrwt beam="1">  1       21 0.23783492E-02 0.12811056E+03</pdfrwt>
<pdfrwt beam="2">  1       21 0.75810752E-01 0.12811056E+03</pdfrwt>
<totfact> 0.14400473E+06</totfact>
</mgrwt>
</event>
<event>
 6    1  0.4180481E-002  0.1263250E+03  0.7546771E-02  0.1233013E+00
         21   -1    0    0  503  502  0.00000000000E+00  0.00000000000E+00  0.20874737094E+03  0.20874737094E+03  0.00000000000E+00 0. -1.
         21   -1    0    0  504  503 -0.00000000000E+00 -0.00000000000E+00 -0.40140386311E+02  0.40140386311E+02  0.00000000000E+00 0. -1.
         25    2    1    2    0    0 -0.93288200282E+01 -0.15683808648E+02  0.18522832010E+03  0.22420420950E+03  0.12499995301E+03 0.  0.
          5    1    3    3  501    0 -0.79585228525E+01  0.43022340585E+02  0.14880340325E+03  0.15510229751E+03  0.10000000000E+00 0. -1.
         -5    1    3    3    0  501 -0.13702971757E+01 -0.58706149233E+02  0.36424916848E+02  0.69101911981E+02  0.10000000000E+00 0. -1.
         21    1    1    2  504  502  0.93288200282E+01  0.15683808648E+02 -0.16621335472E+02  0.24683547754E+02  0.00000000000E+00 0. -1.
<mgrwt>
<rscale>  1 0.12632497E+03</rscale>
<asrwt>0</asrwt>
<pdfrwt beam="1">  1       21 0.32114980E-01 0.12632497E+03</pdfrwt>
<pdfrwt beam="2">  1       21 0.61754441E-02 0.12632497E+03</pdfrwt>
<totfact> 0.17424216E+06</totfact>
</mgrwt>
</event>
<event>
 6    1  0.4180481E-002  0.1285735E+03  0.7546771E-02  0.1229588E+00
         21   -1    0    0  503  502  0.00000000000E+00  0.00000000000E+00  0.69678914884E+01  0.69678914884E+01  0.00000000000E+00 0.  1.
         21   -1    0    0  504  503 -0.00000000000E+00 -0.00000000000E+00 -0.93327060455E+03  0.93327060455E+03  0.00000000000E+00 0.  1.
         25    2    1    2    0    0  0.28653503476E+02 -0.91902384352E+01 -0.80816585211E+03  0.81832950679E+03  0.12500261367E+03 0.  0.
          5    1    3    3  501    0  0.29154856611E+02  0.35730977190E+02 -0.11782466240E+03  0.12652813705E+03  0.10000000000E+00 0. -1.
         -5    1    3    3    0  501 -0.50135313590E+00 -0.44921215626E+02 -0.69034118971E+03  0.69180136974E+03  0.10000000000E+00 0. -1.
         21    1    1    2  504  502 -0.28653503476E+02  0.91902384352E+01 -0.11813686095E+03  0.12190898925E+03  0.00000000000E+00 0.  1.
<mgrwt>
<rscale>  1 0.12857347E+03</rscale>
<asrwt>0</asrwt>
<pdfrwt beam="1">  1       21 0.10719838E-02 0.12857347E+03</pdfrwt>
<pdfrwt beam="2">  1       21 0.14358003E+00 0.12857347E+03</pdfrwt>
<totfact> 0.11363039E+06</totfact>
</mgrwt>
</event>
<event>
 6    1  0.4180481E-002  0.1289104E+03  0.7546771E-02  0.1229082E+00
         21   -1    0    0  504  502  0.00000000000E+00  0.00000000000E+00  0.25305084277E+03  0.25305084277E+03  0.00000000000E+00 0. -1.
         21   -1    0    0  502  503 -0.00000000000E+00 -0.00000000000E+00 -0.13881958877E+03  0.13881958877E+03  0.00000000000E+00 0.  1.
         25    2    1    2    0    0  0.10392602534E+02  0.29764871112E+02  0.23446807593E+03  0.26756899515E+03  0.12499573912E+03 0.  0.
          5    1    3    3  501    0 -0.43237005962E+02  0.42263867097E+02  0.62329195218E+02  0.86836695718E+02  0.10000000000E+00 0. -1.
         -5    1    3    3    0  501  0.53629608496E+02 -0.12498995985E+02  0.17213888071E+03  0.18073229944E+03  0.10000000000E+00 0. -1.
         21    1    1    2  504  503 -0.10392602534E+02 -0.29764871112E+02 -0.12023682193E+03  0.12430143638E+03  0.00000000000E+00 0.  1.
<mgrwt>
<rscale>  1 0.12891039E+03</rscale>
<asrwt>0</asrwt>
<pdfrwt beam="1">  1       21 0.38930899E-01 0.12891039E+03</pdfrwt>
<pdfrwt beam="2">  1       21 0.21356860E-01 0.12891039E+03</pdfrwt>
<totfact> 0.13270160E+05</totfact>
</mgrwt>
</event>
<event>
 6    1  0.4180481E-002  0.1273394E+03  0.7546771E-02  0.1231458E+00
         21   -1    0    0  503  502  0.00000000000E+00  0.00000000000E+00  0.26990018957E+03  0.26990018957E+03  0.00000000000E+00 0. -1.
         21   -1    0    0  504  503 -0.00000000000E+00 -0.00000000000E+00 -0.39446890831E+02  0.39446890831E+02  0.00000000000E+00 0.  1.
         25    2    1    2    0    0 -0.20294576043E+02 -0.13295358360E+02  0.24842101247E+03  0.27915643439E+03  0.12500671603E+03 0.  0.
          5    1    3    3  501    0  0.15624501675E+02 -0.51231078549E+02  0.20294332073E+03  0.20989223399E+03  0.10000000000E+00 0. -1.
         -5    1    3    3    0  501 -0.35919077718E+02  0.37935720189E+02  0.45477691737E+02  0.69264200393E+02  0.10000000000E+00 0. -1.
         21    1    1    2  504  502  0.20294576043E+02  0.13295358360E+02 -0.17967713722E+02  0.30190646019E+02  0.00000000000E+00 0.  1.
<mgrwt>
<rscale>  1 0.12733937E+03</rscale>
<asrwt>0</asrwt>
<pdfrwt beam="1">  1       21 0.41523105E-01 0.12733937E+03</pdfrwt>
<pdfrwt beam="2">  1       21 0.60687526E-02 0.12733937E+03</pdfrwt>
<totfact> 0.10807574E+06</totfact>
</mgrwt>
</event>
<event>
 6    1  0.4180481E-002  0.1270798E+03  0.7546771E-02  0.1231854E+00
         21   -1    0    0  504  502  0.00000000000E+00  0.00000000000E+00  0.49869894780E+02  0.49869894780E+02  0.00000000000E+00 0. -1.
         21   -1    0    0  502  503 -0.00000000000E+00 -0.00000000000E+00 -0.11452036208E+03  0.11452036208E+03  0.00000000000E+00 0. -1.
         25    2    1    2    0    0  0.12942283682E+01 -0.22896554164E+02 -0.47159133385E+02  0.13554803119E+03  0.12499343054E+03 0.  0.
          5    1    3    3  501    0  0.39491032445E+00 -0.68131948625E+02  0.27434059307E+01  0.68188376236E+02  0.10000000000E+00 0. -1.
         -5    1    3    3    0  501  0.89931804379E+00  0.45235394461E+02 -0.49902539316E+02  0.67359654951E+02  0.10000000000E+00 0. -1.
         21    1    1    2  504  503 -0.12942283682E+01  0.22896554164E+02 -0.17491333914E+02  0.28842225673E+02  0.00000000000E+00 0. -1.
<mgrwt>
<rscale>  1 0.12707984E+03</rscale>
<asrwt>0</asrwt>
<pdfrwt beam="1">  1       21 0.76722916E-02 0.12707984E+03</pdfrwt>
<pdfrwt beam="2">  1       21 0.17618517E-01 0.12707984E+03</pdfrwt>
<totfact> 0.37216969E+06</totfact>
</mgrwt>
</event>
<event>
 6    1  0.4180481E-002  0.1262290E+03  0.7546771E-02  0.1233161E+00
         21   -1    0    0  504  502  0.00000000000E+00  0.00000000000E+00  0.50788439894E+02  0.50788439894E+02  0.00000000000E+00 0.  1.
         21   -1    0    0  502  503 -0.00000000000E+00 -0.00000000000E+00 -0.10189055206E+03  0.10189055206E+03  0.00000000000E+00 0.  1.
         25    2    1    2    0    0 -0.17512504121E+02  0.19693973964E+01 -0.45695241139E+02  0.13424531134E+03  0.12499272869E+03 0.  0.
          5    1    3    3  501    0 -0.36289021312E+02 -0.16959618266E+01  0.35519542018E+02  0.50807649222E+02  0.10000000000E+00 0.  1.
         -5    1    3    3    0  501  0.18776517191E+02  0.36653592230E+01 -0.81214783157E+02  0.83437662115E+02  0.10000000000E+00 0.  1.
         21    1    1    2  504  503  0.17512504121E+02 -0.19693973964E+01 -0.54068710229E+01  0.18433680613E+02  0.00000000000E+00 0.  1.
<mgrwt>
<rscale>  1 0.12622895E+03</rscale>
<asrwt>0</asrwt>
<pdfrwt beam="1">  1       21 0.78136062E-02 0.12622895E+03</pdfrwt>
<pdfrwt beam="2">  1       21 0.15675469E-01 0.12622895E+03</pdfrwt>
<totfact> 0.44584669E+06</totfact>
</mgrwt>
</event>
<event>
 6    1  0.4180481E-002  0.1264360E+03  0.7546771E-02  0.1232842E+00
         21   -1    0    0  504  502  0.00000000000E+00  0.00000000000E+00  0.69204540049E+01  0.69204540049E+01  0.00000000000E+00 0.  1.
         21   -1    0    0  502  503 -0.00000000000E+00 -0.00000000000E+00 -0.82574646237E+03  0.82574646237E+03  0.00000000000E+00 0.  1.
         25    2    1    2    0    0  0.17366678987E+02  0.76624623085E+01 -0.60913863422E+03  0.62212212365E+03  0.12500298464E+03 0.  0.
          5    1    3    3  501    0 -0.46900538016E+02  0.38835685471E+01 -0.12224517701E+03  0.13099097630E+03  0.10000000000E+00 0.  1.
         -5    1    3    3    0  501  0.64267217003E+02  0.37788937615E+01 -0.48689345721E+03  0.49113114735E+03  0.10000000000E+00 0.  1.
         21    1    1    2  504  503 -0.17366678987E+02 -0.76624623085E+01 -0.20968737415E+03  0.21054479273E+03  0.00000000000E+00 0.  1.
<mgrwt>
<rscale>  1 0.12643600E+03</rscale>
<asrwt>0</asrwt>
<pdfrwt beam="1">  1       21 0.10646846E-02 0.12643600E+03</pdfrwt>
<pdfrwt beam="2">  1       21 0.12703799E+00 0.12643600E+03</pdfrwt>
<totfact> 0.15624706E+06</totfact>
</mgrwt>
</event>
<event>
 6    1  0.4180481E-002  0.1281390E+03  0.7546771E-02  0.1230243E+00
         21   -1    0    0  504  502  0.00000000000E+00  0.00000000000E+00  0.54771066529E+02  0.54771066529E+02  0.00000000000E+00 0.  1.
         21   -1    0    0  502  503 -0.00000000000E+00 -0.00000000000E+00 -0.11347321743E+03  0.11347321743E+03  0.00000000000E+00 0.  1.
         25    2    1    2    0    0 -0.11346715427E+02  0.25788721912E+02 -0.56317954518E+02  0.13996902055E+03  0.12500323429E+03 0.  0.
          5    1    3    3  501    0  0.42749255412E+02 -0.41795434769E+01  0.15069375114E+02  0.45519924080E+02  0.10000000000E+00 0. -1.
         -5    1    3    3    0  501 -0.54095970839E+02  0.29968265389E+02 -0.71387329632E+02  0.94449096467E+02  0.10000000000E+00 0. -1.
         21    1    1    2  504  503  0.11346715427E+02 -0.25788721912E+02 -0.23841963877E+01  0.28275263416E+02  0.00000000000E+00 0.  1.
<mgrwt>
<rscale>  1 0.12813904E+03</rscale>
<asrwt>0</asrwt>
<pdfrwt beam="1">  1       21 0.84263181E-02 0.12813904E+03</pdfrwt>
<pdfrwt beam="2">  1       21 0.17457418E-01 0.12813904E+03</pdfrwt>
<totfact> 0.32209582E+06</totfact>
</mgrwt>
</event>
<event>
 6    1  0.4180481E-002  0.1359127E+03  0.7546771E-02  0.1218937E+00
         21   -1    0    0  503  502  0.00000000000E+00  0.00000000000E+00  0.75423302151E+02  0.75423302151E+02  0.00000000000E+00 0.  1.
         21   -1    0    0  504  503 -0.00000000000E+00 -0.00000000000E+00 -0.40057866021E+03  0.40057866021E+03  0.00000000000E+00 0.  1.
         25    2    1    2    0    0 -0.25926193379E+02 -0.46652934050E+02  0.10323304387E+02  0.13630416031E+03  0.12499435886E+03 0.  0.
          5    1    3    3  501    0 -0.62600053542E+02  0.80784574260E+01  0.26513149789E+02  0.68461560671E+02  0.10000000000E+00 0. -1.
         -5    1    3    3    0  501  0.36673860163E+02 -0.54731391476E+02 -0.16189845402E+02  0.67842599643E+02  0.10000000000E+00 0. -1.
         21    1    1    2  504  502  0.25926193379E+02  0.46652934050E+02 -0.33547866245E+03  0.33969780205E+03  0.00000000000E+00 0.  1.
<mgrwt>
<rscale>  1 0.13591267E+03</rscale>
<asrwt>0</asrwt>
<pdfrwt beam="1">  1       21 0.11603585E-01 0.13591267E+03</pdfrwt>
<pdfrwt beam="2">  1       21 0.61627486E-01 0.13591267E+03</pdfrwt>
<totfact> 0.15526540E+05</totfact>
</mgrwt>
</event>
<event>
 6    1  0.4180481E-002  0.1266532E+03  0.7546771E-02  0.1232508E+00
         21   -1    0    0  504  502  0.00000000000E+00  0.00000000000E+00  0.28275924832E+04  0.28275924832E+04  0.00000000000E+00 0.  1.
         21   -1    0    0  502  503 -0.00000000000E+00 -0.00000000000E+00 -0.50660120187E+02  0.50660120187E+02  0.00000000000E+00 0. -1.
         25    2    1    2    0    0  0.64515529601E+01 -0.19383139109E+02  0.28240543453E+04  0.28268929906E+04  0.12499482588E+03 0.  0.
          5    1    3    3  501    0 -0.27376115398E+02 -0.37216542852E+02  0.25225723517E+04  0.25229954027E+04  0.10000000000E+00 0.  1.
         -5    1    3    3    0  501  0.33827668358E+02  0.17833403743E+02  0.30148199359E+03  0.30389758784E+03  0.10000000000E+00 0.  1.
         21    1    1    2  504  503 -0.64515529601E+01  0.19383139109E+02 -0.47121982253E+02  0.51359612817E+02  0.00000000000E+00 0. -1.
<mgrwt>
<rscale>  1 0.12665321E+03</rscale>
<asrwt>0</asrwt>
<pdfrwt beam="1">  1       21 0.43501411E+00 0.12665321E+03</pdfrwt>
<pdfrwt beam="2">  1       21 0.77938668E-02 0.12665321E+03</pdfrwt>
<totfact> 0.74731147E+02</totfact>
</mgrwt>
</event>
<event>
 6    1  0.4180481E-002  0.1375563E+03  0.7546771E-02  0.1216655E+00
         21   -1    0    0  504  502  0.00000000000E+00  0.00000000000E+00  0.77418280370E+02  0.77418280370E+02  0.00000000000E+00 0. -1.
         21   -1    0    0  502  503 -0.00000000000E+00 -0.00000000000E+00 -0.12557612903E+03  0.12557612903E+03  0.00000000000E+00 0. -1.
         25    2    1    2    0    0 -0.56087386685E+02  0.12308318524E+02 -0.47632696972E+02  0.14556997701E+03  0.12499781893E+03 0.  0.
          5    1    3    3  501    0  0.37477876647E+02  0.19317704087E+02 -0.25120118180E+02  0.49079479078E+02  0.10000000000E+00 0.  1.
         -5    1    3    3    0  501 -0.93565263332E+02 -0.70093855628E+01 -0.22512578792E+02  0.96490497937E+02  0.10000000000E+00 0.  1.
         21    1    1    2  504  503  0.56087386685E+02 -0.12308318524E+02 -0.52515168359E+00  0.57424432381E+02  0.00000000000E+00 0. -1.
<mgrwt>
<rscale>  1 0.13755633E+03</rscale>
<asrwt>0</asrwt>
<pdfrwt beam="1">  1       21 0.11910505E-01 0.13755633E+03</pdfrwt>
<pdfrwt beam="2">  1       21 0.19319404E-01 0.13755633E+03</pdfrwt>
<totfact> 0.14618320E+06</totfact>
</mgrwt>
</event>
<event>
 6    1  0.4180481E-002  0.1347607E+03  0.7546771E-02  0.1220558E+00
         21   -1    0    0  504  502  0.00000000000E+00  0.00000000000E+00  0.60371868653E+02  0.60371868653E+02  0.00000000000E+00 0.  1.
         21   -1    0    0  502  503 -0.00000000000E+00 -0.00000000000E+00 -0.14790687277E+03  0.14790687277E+03  0.00000000000E+00 0.  1.
         25    2    1    2    0    0  0.81005351208E+01  0.49673083736E+02 -0.44084212757E+02  0.14178810158E+03  0.12500965570E+03 0.  0.
          5    1    3    3  501    0 -0.54573825146E+02  0.45730635643E+02 -0.30918836748E+02  0.77624595930E+02  0.10000000000E+00 0. -1.
         -5    1    3    3    0  501  0.62674360267E+02  0.39424480929E+01 -0.13165376009E+02  0.64163505650E+02  0.10000000000E+00 0. -1.
         21    1    1    2  504  503 -0.81005351208E+01 -0.49673083736E+02 -0.43450791363E+02  0.66490639846E+02  0.00000000000E+00 0.  1.
<mgrwt>
<rscale>  1 0.13476071E+03</rscale>
<asrwt>0</asrwt>
<pdfrwt beam="1">  1       21 0.92879798E-02 0.13476071E+03</pdfrwt>
<pdfrwt beam="2">  1       21 0.22754904E-01 0.13476071E+03</pdfrwt>
<totfact> 0.16688029E+06</totfact>
</mgrwt>
</event>
<event>
 6    1  0.4180481E-002  0.1267717E+03  0.7546771E-02  0.1232326E+00
         21   -1    0    0  504  502  0.00000000000E+00  0.00000000000E+00  0.49770824993E+03  0.49770824993E+03  0.00000000000E+00 0. -1.
         21   -1    0    0  502  503 -0.00000000000E+00 -0.00000000000E+00 -0.47369165602E+02  0.47369165602E+02  0.00000000000E+00 0. -1.
         25    2    1    2    0    0 -0.12954067139E+02 -0.16660458791E+02  0.48675266048E+03  0.50299027652E+03  0.12500274815E+03 0.  0.
          5    1    3    3  501    0 -0.36249299568E+02  0.19515720873E+02  0.42900115687E+03  0.43097201496E+03  0.10000000000E+00 0. -1.
         -5    1    3    3    0  501  0.23295232429E+02 -0.36176179665E+02  0.57751503605E+02  0.72018261557E+02  0.10000000000E+00 0. -1.
         21    1    1    2  504  503  0.12954067139E+02  0.16660458791E+02 -0.36413576149E+02  0.42087139016E+02  0.00000000000E+00 0. -1.
<mgrwt>
<rscale>  1 0.12677171E+03</rscale>
<asrwt>0</asrwt>
<pdfrwt beam="1">  1       21 0.76570497E-01 0.12677171E+03</pdfrwt>
<pdfrwt beam="2">  1       21 0.72875643E-02 0.12677171E+03</pdfrwt>
<totfact> 0.21820215E+05</totfact>
</mgrwt>
</event>
<event>
 6    1  0.4180481E-002  0.1329051E+03  0.7546771E-02  0.1223208E+00
         21   -1    0    0  503  502  0.00000000000E+00  0.00000000000E+00  0.11685596262E+02  0.11685596262E+02  0.00000000000E+00 0.  1.
         21   -1    0    0  504  503 -0.00000000000E+00 -0.00000000000E+00 -0.68617168188E+03  0.68617168188E+03  0.00000000000E+00 0.  1.
         25    2    1    2    0    0 -0.22343863692E+01  0.45110510231E+02 -0.46911557070E+03  0.48757889358E+03  0.12499523262E+03 0.  0.
          5    1    3    3  501    0  0.40277924473E+02  0.71997584237E+02 -0.28191559837E+03  0.29373862181E+03  0.10000000000E+00 0.  1.
         -5    1    3    3    0  501 -0.42512310843E+02 -0.26887074006E+02 -0.18719997233E+03  0.19384027177E+03  0.10000000000E+00 0.  1.
         21    1    1    2  504  502  0.22343863692E+01 -0.45110510231E+02 -0.20537051492E+03  0.21027838456E+03  0.00000000000E+00 0.  1.
<mgrwt>
<rscale>  1 0.13290507E+03</rscale>
<asrwt>0</asrwt>
<pdfrwt beam="1">  1       21 0.17977835E-02 0.13290507E+03</pdfrwt>
<pdfrwt beam="2">  1       21 0.10556491E+00 0.13290507E+03</pdfrwt>
<totfact> 0.10614669E+06</totfact>
</mgrwt>
</event>
<event>
 6    1  0.4180481E-002  0.1550833E+03  0.7546771E-02  0.1194362E+00
         21   -1    0    0  504  502  0.00000000000E+00  0.00000000000E+00  0.16043218660E+02  0.16043218660E+02  0.00000000000E+00 0. -1.
         21   -1    0    0  502  503 -0.00000000000E+00 -0.00000000000E+00 -0.95031702913E+03  0.95031702913E+03  0.00000000000E+00 0. -1.
         25    2    1    2    0    0  0.34221087312E+02 -0.85173619662E+02 -0.59841288635E+03  0.61818186153E+03  0.12500081231E+03 0.  0.
          5    1    3    3  501    0  0.19319036003E+02 -0.82156021731E+02 -0.59697267817E+03  0.60290896953E+03  0.10000000000E+00 0.  1.
         -5    1    3    3    0  501  0.14902051308E+02 -0.30175979315E+01 -0.14402081746E+01  0.15272892000E+02  0.10000000000E+00 0.  1.
         21    1    1    2  504  503 -0.34221087312E+02  0.85173619662E+02 -0.33586092412E+03  0.34817838625E+03  0.00000000000E+00 0. -1.
<mgrwt>
<rscale>  1 0.15508330E+03</rscale>
<asrwt>0</asrwt>
<pdfrwt beam="1">  1       21 0.24681876E-02 0.15508330E+03</pdfrwt>
<pdfrwt beam="2">  1       21 0.14620261E+00 0.15508330E+03</pdfrwt>
<totfact> 0.28273362E+05</totfact>
</mgrwt>
</event>
<event>
 6    1  0.4180481E-002  0.1270632E+03  0.7546771E-02  0.1231880E+00
         21   -1    0    0  503  502  0.00000000000E+00  0.00000000000E+00  0.83968800831E+02  0.83968800831E+02  0.00000000000E+00 0.  1.
         21   -1    0    0  504  503 -0.00000000000E+00 -0.00000000000E+00 -0.12783059608E+03  0.12783059608E+03  0.00000000000E+00 0.  1.
         25    2    1    2    0    0  0.21266322256E+02 -0.84247078699E+01  0.33270457599E+02  0.13134682334E+03  0.12498732931E+03 0.  0.
          5    1    3    3  501    0 -0.34400500859E+00 -0.61439630082E+01 -0.47401487263E+02  0.47799347439E+02  0.10000000000E+00 0.  1.
         -5    1    3    3    0  501  0.21610327265E+02 -0.22807448617E+01  0.80671944862E+02  0.83547475900E+02  0.10000000000E+00 0.  1.
         21    1    1    2  504  502 -0.21266322256E+02  0.84247078699E+01 -0.77132252849E+02  0.80452573574E+02  0.00000000000E+00 0.  1.
<mgrwt>
<rscale>  1 0.12706323E+03</rscale>
<asrwt>0</asrwt>
<pdfrwt beam="1">  1       21 0.12918277E-01 0.12706323E+03</pdfrwt>
<pdfrwt beam="2">  1       21 0.19666246E-01 0.12706323E+03</pdfrwt>
<totfact> 0.12229695E+06</totfact>
</mgrwt>
</event>
<event>
 6    1  0.4180481E-002  0.1818124E+03  0.7546771E-02  0.1166060E+00
         21   -1    0    0  504  502  0.00000000000E+00  0.00000000000E+00  0.62258519733E+02  0.62258519733E+02  0.00000000000E+00 0.  1.
         21   -1    0    0  502  503 -0.00000000000E+00 -0.00000000000E+00 -0.15393518645E+04  0.15393518645E+04  0.00000000000E+00 0.  1.
         25    2    1    2    0    0  0.11439014160E+02  0.13152671112E+03 -0.80577696649E+02  0.19886804074E+03  0.12500242257E+03 0.  0.
          5    1    3    3  501    0 -0.27387423601E+02  0.11443755168E+03 -0.12065663501E+02  0.11828615490E+03  0.10000000000E+00 0. -1.
         -5    1    3    3    0  501  0.38826437761E+02  0.17089159437E+02 -0.68512033148E+02  0.80581885840E+02  0.10000000000E+00 0. -1.
         21    1    1    2  504  503 -0.11439014160E+02 -0.13152671112E+03 -0.13965156481E+04  0.14027423435E+04  0.00000000000E+00 0.  1.
<mgrwt>
<rscale>  1 0.18181236E+03</rscale>
<asrwt>0</asrwt>
<pdfrwt beam="1">  1       21 0.95782343E-02 0.18181236E+03</pdfrwt>
<pdfrwt beam="2">  1       21 0.23682335E+00 0.18181236E+03</pdfrwt>
<totfact> 0.70426889E+03</totfact>
</mgrwt>
</event>
<event>
 6    1  0.4180481E-002  0.1259209E+03  0.7546771E-02  0.1233637E+00
         21   -1    0    0  504  502  0.00000000000E+00  0.00000000000E+00  0.13220506460E+04  0.13220506460E+04  0.00000000000E+00 0.  1.
         21   -1    0    0  502  503 -0.00000000000E+00 -0.00000000000E+00 -0.72946173363E+01  0.72946173363E+01  0.00000000000E+00 0.  1.
         25    2    1    2    0    0 -0.10061729903E+02 -0.11287031617E+02  0.13056213797E+04  0.13116795535E+04  0.12500971373E+03 0.  0.
          5    1    3    3  501    0 -0.55980868368E+01 -0.19867832346E+02  0.32369516570E+02  0.38390948690E+02  0.10000000000E+00 0.  1.
         -5    1    3    3    0  501 -0.44636430666E+01  0.85808007295E+01  0.12732518631E+04  0.12732886048E+04  0.10000000000E+00 0.  1.
         21    1    1    2  504  503  0.10061729903E+02  0.11287031617E+02  0.91346489693E+01  0.17665709812E+02  0.00000000000E+00 0.  1.
<mgrwt>
<rscale>  1 0.12592086E+03</rscale>
<asrwt>0</asrwt>
<pdfrwt beam="1">  1       21 0.20339222E+00 0.12592086E+03</pdfrwt>
<pdfrwt beam="2">  1       21 0.11222499E-02 0.12592086E+03</pdfrwt>
<totfact> 0.41053934E+05</totfact>
</mgrwt>
</event>
<event>
 6    1  0.4180481E-002  0.1261892E+03  0.7546771E-02  0.1233222E+00
         21   -1    0    0  504  502  0.00000000000E+00  0.00000000000E+00  0.23194755475E+03  0.23194755475E+03  0.00000000000E+00 0.  1.
         21   -1    0    0  502  503 -0.00000000000E+00 -0.00000000000E+00 -0.26374890436E+02  0.26374890436E+02  0.00000000000E+00 0.  1.
         25    2    1    2    0    0  0.93839523693E+01 -0.14510901960E+02  0.20536994988E+03  0.24104049128E+03  0.12500030913E+03 0.  0.
          5    1    3    3  501    0 -0.34906515264E+02  0.34939950264E+02  0.13750278920E+03  0.14610370279E+03  0.10000000000E+00 0.  1.
         -5    1    3    3    0  501  0.44290467633E+02 -0.49450852224E+02  0.67867160686E+02  0.94936788488E+02  0.10000000000E+00 0.  1.
         21    1    1    2  504  503 -0.93839523693E+01  0.14510901960E+02  0.20271443379E+00  0.17281953909E+02  0.00000000000E+00 0.  1.
<mgrwt>
<rscale>  1 0.12618915E+03</rscale>
<asrwt>0</asrwt>
<pdfrwt beam="1">  1       21 0.35684238E-01 0.12618915E+03</pdfrwt>
<pdfrwt beam="2">  1       21 0.40576756E-02 0.12618915E+03</pdfrwt>
<totfact> 0.28699312E+06</totfact>
</mgrwt>
</event>
<event>
 6    1  0.4180481E-002  0.1260891E+03  0.7546771E-02  0.1233377E+00
         21   -1    0    0  503  502  0.00000000000E+00  0.00000000000E+00  0.15259036347E+04  0.15259036347E+04  0.00000000000E+00 0. -1.
         21   -1    0    0  504  503 -0.00000000000E+00 -0.00000000000E+00 -0.86241230533E+01  0.86241230533E+01  0.00000000000E+00 0. -1.
         25    2    1    2    0    0  0.24432586841E+01  0.16396542392E+02  0.15118278730E+04  0.15170767841E+04  0.12499454047E+03 0.  0.
          5    1    3    3  501    0  0.49663365899E+02 -0.22462849181E+02  0.10209944663E+04  0.10224484044E+04  0.10000000000E+00 0. -1.
         -5    1    3    3    0  501 -0.47220107214E+02  0.38859391574E+02  0.49083340675E+03  0.49462837972E+03  0.10000000000E+00 0. -1.
         21    1    1    2  504  502 -0.24432586841E+01 -0.16396542392E+02  0.54516385537E+01  0.17450973564E+02  0.00000000000E+00 0. -1.
<mgrwt>
<rscale>  1 0.12608906E+03</rscale>
<asrwt>0</asrwt>
<pdfrwt beam="1">  1       21 0.23475419E+00 0.12608906E+03</pdfrwt>
<pdfrwt beam="2">  1       21 0.13267894E-02 0.12608906E+03</pdfrwt>
<totfact> 0.20393681E+05</totfact>
</mgrwt>
</event>
<event>
 6    1  0.4180481E-002  0.1309099E+03  0.7546771E-02  0.1226112E+00
         21   -1    0    0  503  502  0.00000000000E+00  0.00000000000E+00  0.29369453098E+02  0.29369453098E+02  0.00000000000E+00 0. -1.
         21   -1    0    0  504  503 -0.00000000000E+00 -0.00000000000E+00 -0.60381734359E+03  0.60381734359E+03  0.00000000000E+00 0. -1.
         25    2    1    2    0    0  0.18611080034E+02  0.34200244296E+02 -0.12161476989E+03  0.17868282077E+03  0.12498547585E+03 0.  0.
          5    1    3    3  501    0  0.10958710749E+02 -0.18473370735E+02 -0.12356736891E+03  0.12542034694E+03  0.10000000000E+00 0.  1.
         -5    1    3    3    0  501  0.76523692858E+01  0.52673615031E+02  0.19525990150E+01  0.53262473835E+02  0.10000000000E+00 0.  1.
         21    1    1    2  504  502 -0.18611080034E+02 -0.34200244296E+02 -0.45283312060E+03  0.45450397591E+03  0.00000000000E+00 0. -1.
<mgrwt>
<rscale>  1 0.13090989E+03</rscale>
<asrwt>0</asrwt>
<pdfrwt beam="1">  1       21 0.45183775E-02 0.13090989E+03</pdfrwt>
<pdfrwt beam="2">  1       21 0.92894974E-01 0.13090989E+03</pdfrwt>
<totfact> 0.31637673E+05</totfact>
</mgrwt>
</event>
<event>
 6    1  0.4180481E-002  0.1266001E+03  0.7546771E-02  0.1232590E+00
         21   -1    0    0  504  502  0.00000000000E+00  0.00000000000E+00  0.59680418508E+02  0.59680418508E+02  0.00000000000E+00 0.  1.
         21   -1    0    0  502  503 -0.00000000000E+00 -0.00000000000E+00 -0.21082181136E+03  0.21082181136E+03  0.00000000000E+00 0.  1.
         25    2    1    2    0    0  0.12337729682E+02 -0.15806827417E+02 -0.89631977004E+01  0.12691701286E+03  0.12500205548E+03 0.  0.
          5    1    3    3  501    0  0.59333381292E+01  0.47042297731E+02 -0.34643024450E+02  0.58722495010E+02  0.10000000000E+00 0. -1.
         -5    1    3    3    0  501  0.64043915533E+01 -0.62849125148E+02  0.25679826749E+02  0.68194517851E+02  0.10000000000E+00 0. -1.
         21    1    1    2  504  503 -0.12337729682E+02  0.15806827417E+02 -0.14217819515E+03  0.14358521700E+03  0.00000000000E+00 0.  1.
<mgrwt>
<rscale>  1 0.12660012E+03</rscale>
<asrwt>0</asrwt>
<pdfrwt beam="1">  1       21 0.91816029E-02 0.12660012E+03</pdfrwt>
<pdfrwt beam="2">  1       21 0.32434125E-01 0.12660012E+03</pdfrwt>
<totfact> 0.86496288E+05</totfact>
</mgrwt>
</event>
<event>
 6    1  0.4180481E-002  0.1306196E+03  0.7546771E-02  0.1226539E+00
         21   -1    0    0  504  502  0.00000000000E+00  0.00000000000E+00  0.10128183658E+03  0.10128183658E+03  0.00000000000E+00 0. -1.
         21   -1    0    0  502  503 -0.00000000000E+00 -0.00000000000E+00 -0.10347664351E+03  0.10347664351E+03  0.00000000000E+00 0. -1.
         25    2    1    2    0    0 -0.18780725770E+01 -0.37866018974E+02  0.50329630629E+02  0.13998055877E+03  0.12499649021E+03 0.  0.
          5    1    3    3  501    0 -0.53007208556E+02 -0.50112796668E+02  0.48062919000E+02  0.87356228923E+02  0.10000000000E+00 0.  1.
         -5    1    3    3    0  501  0.51129135979E+02  0.12246777694E+02  0.22667116289E+01  0.52624329843E+02  0.10000000000E+00 0.  1.
         21    1    1    2  504  503  0.18780725770E+01  0.37866018974E+02 -0.52524437566E+02  0.64777921325E+02  0.00000000000E+00 0. -1.
<mgrwt>
<rscale>  1 0.13061962E+03</rscale>
<asrwt>0</asrwt>
<pdfrwt beam="1">  1       21 0.15581821E-01 0.13061962E+03</pdfrwt>
<pdfrwt beam="2">  1       21 0.15919484E-01 0.13061962E+03</pdfrwt>
<totfact> 0.12861316E+06</totfact>
</mgrwt>
</event>
<event>
 6    1  0.4180481E-002  0.1272665E+03  0.7546771E-02  0.1231569E+00
         21   -1    0    0  503  502  0.00000000000E+00  0.00000000000E+00  0.19939543098E+02  0.19939543098E+02  0.00000000000E+00 0. -1.
         21   -1    0    0  504  503 -0.00000000000E+00 -0.00000000000E+00 -0.48284375007E+03  0.48284375007E+03  0.00000000000E+00 0. -1.
         25    2    1    2    0    0 -0.19823970276E+02 -0.13348961391E+02 -0.18909771163E+03  0.22793573276E+03  0.12500227662E+03 0.  0.
          5    1    3    3  501    0  0.26297923811E+02 -0.21300805740E+02 -0.74015595815E+00  0.33850597525E+02  0.10000000000E+00 0.  1.
         -5    1    3    3    0  501 -0.46121894087E+02  0.79518443491E+01 -0.18835755567E+03  0.19408513524E+03  0.10000000000E+00 0.  1.
         21    1    1    2  504  502  0.19823970276E+02  0.13348961391E+02 -0.27380649534E+03  0.27484756040E+03  0.00000000000E+00 0. -1.
<mgrwt>
<rscale>  1 0.12726647E+03</rscale>
<asrwt>0</asrwt>
<pdfrwt beam="1">  1       21 0.30676222E-02 0.12726647E+03</pdfrwt>
<pdfrwt beam="2">  1       21 0.74283650E-01 0.12726647E+03</pdfrwt>
<totfact> 0.99412563E+05</totfact>
</mgrwt>
</event>
<event>
 6    1  0.4180481E-002  0.1259108E+03  0.7546771E-02  0.1233653E+00
         21   -1    0    0  503  502  0.00000000000E+00  0.00000000000E+00  0.50724255944E+02  0.50724255944E+02  0.00000000000E+00 0. -1.
         21   -1    0    0  504  503 -0.00000000000E+00 -0.00000000000E+00 -0.16304031547E+03  0.16304031547E+03  0.00000000000E+00 0. -1.
         25    2    1    2    0    0 -0.71843569323E+01  0.13277198258E+02 -0.29152040626E+02  0.12924147979E+03  0.12500247856E+03 0.  0.
          5    1    3    3  501    0 -0.50132291822E+02 -0.39664681896E+01  0.26513237799E+02  0.56850165627E+02  0.10000000000E+00 0. -1.
         -5    1    3    3    0  501  0.42947934890E+02  0.17243666448E+02 -0.55665278426E+02  0.72391314162E+02  0.10000000000E+00 0. -1.
         21    1    1    2  504  502  0.71843569323E+01 -0.13277198258E+02 -0.83164018899E+02  0.84523091623E+02  0.00000000000E+00 0. -1.
<mgrwt>
<rscale>  1 0.12591076E+03</rscale>
<asrwt>0</asrwt>
<pdfrwt beam="1">  1       21 0.78037317E-02 0.12591076E+03</pdfrwt>
<pdfrwt beam="2">  1       21 0.25083125E-01 0.12591076E+03</pdfrwt>
<totfact> 0.18751040E+06</totfact>
</mgrwt>
</event>
<event>
 6    1  0.4180481E-002  0.1311454E+03  0.7546771E-02  0.1225766E+00
         21   -1    0    0  504  502  0.00000000000E+00  0.00000000000E+00  0.82375278894E+02  0.82375278894E+02  0.00000000000E+00 0.  1.
         21   -1    0    0  502  503 -0.00000000000E+00 -0.00000000000E+00 -0.95074839061E+02  0.95074839061E+02  0.00000000000E+00 0.  1.
         25    2    1    2    0    0 -0.17154914465E+02  0.35841255403E+02  0.10281636303E+02  0.13154780788E+03  0.12498090667E+03 0.  0.
          5    1    3    3  501    0 -0.62537540274E+02 -0.13586059880E+02  0.67835149797E+01  0.64354883591E+02  0.10000000000E+00 0. -1.
         -5    1    3    3    0  501  0.45382625809E+02  0.49427315283E+02  0.34981213237E+01  0.67192924287E+02  0.10000000000E+00 0. -1.
         21    1    1    2  504  503  0.17154914465E+02 -0.35841255403E+02 -0.22981196470E+02  0.45902310077E+02  0.00000000000E+00 0.  1.
<mgrwt>
<rscale>  1 0.13114539E+03</rscale>
<asrwt>0</asrwt>
<pdfrwt beam="1">  1       21 0.12673120E-01 0.13114539E+03</pdfrwt>
<pdfrwt beam="2">  1       21 0.14626898E-01 0.13114539E+03</pdfrwt>
<totfact> 0.21714394E+06</totfact>
</mgrwt>
</event>
<event>
 6    1  0.4180481E-002  0.2155093E+03  0.7546771E-02  0.1137276E+00
         21   -1    0    0  504  502  0.00000000000E+00  0.00000000000E+00  0.14522445079E+03  0.14522445079E+03  0.00000000000E+00 0. -1.
         21   -1    0    0  502  503 -0.00000000000E+00 -0.00000000000E+00 -0.40968785119E+03  0.40968785119E+03  0.00000000000E+00 0. -1.
         25    2    1    2    0    0  0.88209272177E+02 -0.15179146763E+03  0.24397013185E+02  0.21688587715E+03  0.12499097612E+03 0.  0.
          5    1    3    3  501    0  0.45385487308E+02 -0.13534467043E+03  0.63849852948E+02  0.15638042075E+03  0.10000000000E+00 0.  1.
         -5    1    3    3    0  501  0.42823784869E+02 -0.16446797198E+02 -0.39452839763E+02  0.60505456398E+02  0.10000000000E+00 0.  1.
         21    1    1    2  504  503 -0.88209272177E+02  0.15179146763E+03 -0.28886041359E+03  0.33802642483E+03  0.00000000000E+00 0. -1.
<mgrwt>
<rscale>  1 0.21550933E+03</rscale>
<asrwt>0</asrwt>
<pdfrwt beam="1">  1       21 0.22342223E-01 0.21550933E+03</pdfrwt>
<pdfrwt beam="2">  1       21 0.63028900E-01 0.21550933E+03</pdfrwt>
<totfact> 0.43192741E+04</totfact>
</mgrwt>
</event>
<event>
 6    1  0.4180481E-002  0.1260253E+03  0.7546771E-02  0.1233476E+00
         21   -1    0    0  503  502  0.00000000000E+00  0.00000000000E+00  0.71027838737E+03  0.71027838737E+03  0.00000000000E+00 0.  1.
         21   -1    0    0  504  503 -0.00000000000E+00 -0.00000000000E+00 -0.10348299607E+03  0.10348299607E+03  0.00000000000E+00 0. -1.
         25    2    1    2    0    0  0.12683280255E+02 -0.97964624127E+01  0.70402707917E+03  0.71521780222E+03  0.12500216049E+03 0.  0.
          5    1    3    3  501    0  0.17964625955E+01 -0.54106815406E+02  0.15282489258E+03  0.16213029496E+03  0.10000000000E+00 0.  1.
         -5    1    3    3    0  501  0.10886817659E+02  0.44310352993E+02  0.55120218659E+03  0.55308750726E+03  0.10000000000E+00 0.  1.
         21    1    1    2  504  502 -0.12683280255E+02  0.97964624127E+01 -0.97231687868E+02  0.98543581219E+02  0.00000000000E+00 0. -1.
<mgrwt>
<rscale>  1 0.12602530E+03</rscale>
<asrwt>0</asrwt>
<pdfrwt beam="1">  1       21 0.10927359E+00 0.12602530E+03</pdfrwt>
<pdfrwt beam="2">  1       21 0.15920461E-01 0.12602530E+03</pdfrwt>
<totfact> 0.24402517E+04</totfact>
</mgrwt>
</event>
<event>
 6    1  0.4180481E-002  0.1259814E+03  0.7546771E-02  0.1233543E+00
         21   -1    0    0  504  502  0.00000000000E+00  0.00000000000E+00  0.31038557083E+03  0.31038557083E+03  0.00000000000E+00 0.  1.
         21   -1    0    0  502  503 -0.00000000000E+00 -0.00000000000E+00 -0.19700090325E+02  0.19700090325E+02  0.00000000000E+00 0.  1.
         25    2    1    2    0    0 -0.79929478407E+01  0.13424584534E+02  0.28784312880E+03  0.31420530699E+03  0.12500880554E+03 0.  0.
          5    1    3    3  501    0 -0.87999040003E+01 -0.51363198135E+02  0.18873336481E+03  0.19579558071E+03  0.10000000000E+00 0.  1.
         -5    1    3    3    0  501  0.80695615963E+00  0.64787782668E+02  0.99109763983E+02  0.11840972628E+03  0.10000000000E+00 0.  1.
         21    1    1    2  504  503  0.79929478407E+01 -0.13424584534E+02  0.28423517103E+01  0.15880354163E+02  0.00000000000E+00 0.  1.
<mgrwt>
<rscale>  1 0.12598138E+03</rscale>
<asrwt>0</asrwt>
<pdfrwt beam="1">  1       21 0.47751623E-01 0.12598138E+03</pdfrwt>
<pdfrwt beam="2">  1       21 0.30307834E-02 0.12598138E+03</pdfrwt>
<totfact> 0.25888438E+06</totfact>
</mgrwt>
</event>
<event>
 6    1  0.4180481E-002  0.1263351E+03  0.7546771E-02  0.1232997E+00
         21   -1    0    0  504  502  0.00000000000E+00  0.00000000000E+00  0.12046510881E+02  0.12046510881E+02  0.00000000000E+00 0. -1.
         21   -1    0    0  502  503 -0.00000000000E+00 -0.00000000000E+00 -0.43823868446E+03  0.43823868446E+03  0.00000000000E+00 0. -1.
         25    2    1    2    0    0  0.16852520491E+01 -0.18247256561E+02 -0.35646475946E+03  0.37819001710E+03  0.12499904738E+03 0.  0.
          5    1    3    3  501    0 -0.28814219278E+02  0.28745230283E+02 -0.40935197771E+02  0.57725626140E+02  0.10000000000E+00 0.  1.
         -5    1    3    3    0  501  0.30499471327E+02 -0.46992486844E+02 -0.31552956169E+03  0.32046439096E+03  0.10000000000E+00 0.  1.
         21    1    1    2  504  503 -0.16852520491E+01  0.18247256561E+02 -0.69727414112E+02  0.72095178239E+02  0.00000000000E+00 0. -1.
<mgrwt>
<rscale>  1 0.12633513E+03</rscale>
<asrwt>0</asrwt>
<pdfrwt beam="1">  1       21 0.18533097E-02 0.12633513E+03</pdfrwt>
<pdfrwt beam="2">  1       21 0.67421324E-01 0.12633513E+03</pdfrwt>
<totfact> 0.27845287E+06</totfact>
</mgrwt>
</event>
<event>
 6    1  0.4180481E-002  0.1294525E+03  0.7546771E-02  0.1228270E+00
         21   -1    0    0  504  502  0.00000000000E+00  0.00000000000E+00  0.14889735300E+02  0.14889735300E+02  0.00000000000E+00 0.  1.
         21   -1    0    0  502  503 -0.00000000000E+00 -0.00000000000E+00 -0.44902160725E+03  0.44902160725E+03  0.00000000000E+00 0.  1.
         25    2    1    2    0    0  0.33657743213E+02 -0.10920390538E+01 -0.33064593723E+03  0.35508407156E+03  0.12499570327E+03 0.  0.
          5    1    3    3  501    0  0.37737266332E+02  0.36538478360E+02 -0.30469868698E+03  0.30919324300E+03  0.10000000000E+00 0. -1.
         -5    1    3    3    0  501 -0.40795231186E+01 -0.37630517414E+02 -0.25947250253E+02  0.45890828554E+02  0.10000000000E+00 0. -1.
         21    1    1    2  504  503 -0.33657743213E+02  0.10920390538E+01 -0.10348593471E+03  0.10882727099E+03  0.00000000000E+00 0.  1.
<mgrwt>
<rscale>  1 0.12945255E+03</rscale>
<asrwt>0</asrwt>
<pdfrwt beam="1">  1       21 0.22907283E-02 0.12945255E+03</pdfrwt>
<pdfrwt beam="2">  1       21 0.69080253E-01 0.12945255E+03</pdfrwt>
<totfact> 0.18769888E+06</totfact>
</mgrwt>
</event>
<event>
 6    1  0.4180481E-002  0.1472792E+03  0.7546771E-02  0.1203857E+00
         21   -1    0    0  503  502  0.00000000000E+00  0.00000000000E+00  0.84138811558E+02  0.84138811558E+02  0.00000000000E+00 0.  1.
         21   -1    0    0  504  503 -0.00000000000E+00 -0.00000000000E+00 -0.83789475504E+03  0.83789475504E+03  0.00000000000E+00 0.  1.
         25    2    1    2    0    0 -0.18328038402E+02  0.75699745942E+02  0.16182550713E+02  0.14816558472E+03  0.12499918808E+03 0.  0.
          5    1    3    3  501    0 -0.43379642254E+01  0.61863923398E+02  0.68421194974E+02  0.92344100372E+02  0.10000000000E+00 0.  1.
         -5    1    3    3    0  501 -0.13990074177E+02  0.13835822544E+02 -0.52238644261E+02  0.55821484351E+02  0.10000000000E+00 0.  1.
         21    1    1    2  504  502  0.18328038402E+02 -0.75699745942E+02 -0.76993849419E+03  0.77386798187E+03  0.00000000000E+00 0.  1.
<mgrwt>
<rscale>  1 0.14727921E+03</rscale>
<asrwt>0</asrwt>
<pdfrwt beam="1">  1       21 0.12944433E-01 0.14727921E+03</pdfrwt>
<pdfrwt beam="2">  1       21 0.12890688E+00 0.14727921E+03</pdfrwt>
<totfact> 0.23309743E+04</totfact>
</mgrwt>
</event>
<event>
 6    1  0.4180481E-002  0.1260537E+03  0.7546771E-02  0.1233432E+00
         21   -1    0    0  503  502  0.00000000000E+00  0.00000000000E+00  0.20398624410E+02  0.20398624410E+02  0.00000000000E+00 0. -1.
         21   -1    0    0  504  503 -0.00000000000E+00 -0.00000000000E+00 -0.53611794150E+03  0.53611794150E+03  0.00000000000E+00 0. -1.
         25    2    1    2    0    0 -0.75233538120E+01  0.14392208222E+02 -0.17640509309E+03  0.21681393253E+03  0.12500315182E+03 0.  0.
          5    1    3    3  501    0  0.45688811836E+02 -0.21615888451E+02 -0.34950313956E+02  0.61451188810E+02  0.10000000000E+00 0.  1.
         -5    1    3    3    0  501 -0.53212165648E+02  0.36008096673E+02 -0.14145477913E+03  0.15536274372E+03  0.10000000000E+00 0.  1.
         21    1    1    2  504  502  0.75233538120E+01 -0.14392208222E+02 -0.33931422400E+03  0.33970263337E+03  0.00000000000E+00 0. -1.
<mgrwt>
<rscale>  1 0.12605366E+03</rscale>
<asrwt>0</asrwt>
<pdfrwt beam="1">  1       21 0.31382501E-02 0.12605366E+03</pdfrwt>
<pdfrwt beam="2">  1       21 0.82479677E-01 0.12605366E+03</pdfrwt>
<totfact> 0.75880482E+05</totfact>
</mgrwt>
</event>
<event>
 6    1  0.4180481E-002  0.1306195E+03  0.7546771E-02  0.1226539E+00
         21   -1    0    0  503  502  0.00000000000E+00  0.00000000000E+00  0.54920354201E+02  0.54920354201E+02  0.00000000000E+00 0.  1.
         21   -1    0    0  504  503 -0.00000000000E+00 -0.00000000000E+00 -0.15685186242E+03  0.15685186242E+03  0.00000000000E+00 0.  1.
         25    2    1    2    0    0 -0.23624557359E+02  0.29651449493E+02 -0.35621990825E+02  0.13538975617E+03  0.12499652666E+03 0.  0.
          5    1    3    3  501    0 -0.32125676154E+02  0.15578923279E+02  0.42528361962E+02  0.55528672684E+02  0.10000000000E+00 0. -1.
         -5    1    3    3    0  501  0.85011187947E+01  0.14072526214E+02 -0.78150352787E+02  0.79861083486E+02  0.10000000000E+00 0. -1.
         21    1    1    2  504  502  0.23624557359E+02 -0.29651449493E+02 -0.66309517393E+02  0.76382460450E+02  0.00000000000E+00 0.  1.
<mgrwt>
<rscale>  1 0.13061952E+03</rscale>
<asrwt>0</asrwt>
<pdfrwt beam="1">  1       21 0.84492854E-02 0.13061952E+03</pdfrwt>
<pdfrwt beam="2">  1       21 0.24131055E-01 0.13061952E+03</pdfrwt>
<totfact> 0.17602603E+06</totfact>
</mgrwt>
</event>
<event>
 6    1  0.4180481E-002  0.1264503E+03  0.7546771E-02  0.1232820E+00
         21   -1    0    0  504  502  0.00000000000E+00  0.00000000000E+00  0.67524406134E+02  0.67524406134E+02  0.00000000000E+00 0. -1.
         21   -1    0    0  502  503 -0.00000000000E+00 -0.00000000000E+00 -0.68276503793E+03  0.68276503793E+03  0.00000000000E+00 0. -1.
         25    2    1    2    0    0 -0.64169076145E+01  0.17976684838E+02  0.80502738672E+01  0.12670633735E+03  0.12500140445E+03 0.  0.
          5    1    3    3  501    0 -0.63460922652E+02  0.26495098946E+02  0.38831385976E+01  0.68879370913E+02  0.10000000000E+00 0. -1.
         -5    1    3    3    0  501  0.57044015038E+02 -0.85184141080E+01  0.41671352696E+01  0.57826966433E+02  0.10000000000E+00 0. -1.
         21    1    1    2  504  503  0.64169076145E+01 -0.17976684838E+02 -0.62329090566E+03  0.62358310672E+03  0.00000000000E+00 0. -1.
<mgrwt>
<rscale>  1 0.12645034E+03</rscale>
<asrwt>0</asrwt>
<pdfrwt beam="1">  1       21 0.10388370E-01 0.12645034E+03</pdfrwt>
<pdfrwt beam="2">  1       21 0.10504078E+00 0.12645034E+03</pdfrwt>
<totfact> 0.57306483E+04</totfact>
</mgrwt>
</event>
<event>
 6    1  0.4180481E-002  0.1259194E+03  0.7546771E-02  0.1233639E+00
         21   -1    0    0  503  502  0.00000000000E+00  0.00000000000E+00  0.30415496047E+03  0.30415496047E+03  0.00000000000E+00 0.  1.
         21   -1    0    0  504  503 -0.00000000000E+00 -0.00000000000E+00 -0.16970617655E+02  0.16970617655E+02  0.00000000000E+00 0.  1.
         25    2    1    2    0    0  0.14795217504E+02 -0.31942869796E+01  0.27176088006E+03  0.29951573931E+03  0.12500640076E+03 0.  0.
          5    1    3    3  501    0  0.16649192218E+02 -0.59981938782E+02  0.19010416510E+03  0.20003657708E+03  0.10000000000E+00 0.  1.
         -5    1    3    3    0  501 -0.18539747139E+01  0.56787651802E+02  0.81656714956E+02  0.99479162225E+02  0.10000000000E+00 0.  1.
         21    1    1    2  504  502 -0.14795217504E+02  0.31942869796E+01  0.15423462751E+02  0.21609838813E+02  0.00000000000E+00 0.  1.
<mgrwt>
<rscale>  1 0.12591943E+03</rscale>
<asrwt>0</asrwt>
<pdfrwt beam="1">  1       21 0.46793067E-01 0.12591943E+03</pdfrwt>
<pdfrwt beam="2">  1       21 0.26108645E-02 0.12591943E+03</pdfrwt>
<totfact> 0.34433032E+06</totfact>
</mgrwt>
</event>
<event>
 6    1  0.4180481E-002  0.1353324E+03  0.7546771E-02  0.1219751E+00
         21   -1    0    0  504  502  0.00000000000E+00  0.00000000000E+00  0.17413170792E+03  0.17413170792E+03  0.00000000000E+00 0.  1.
         21   -1    0    0  502  503 -0.00000000000E+00 -0.00000000000E+00 -0.54045389360E+02  0.54045389360E+02  0.00000000000E+00 0.  1.
         25    2    1    2    0    0  0.22694414729E+02  0.46641603276E+02  0.11202867345E+03  0.17568518113E+03  0.12499753429E+03 0.  0.
          5    1    3    3  501    0 -0.18288235000E+02  0.51468273597E+01 -0.22267904543E+02  0.29271469797E+02  0.10000000000E+00 0.  1.
         -5    1    3    3    0  501  0.40982649730E+02  0.41494775917E+02  0.13429657799E+03  0.14641371134E+03  0.10000000000E+00 0.  1.
         21    1    1    2  504  503 -0.22694414729E+02 -0.46641603276E+02  0.80576451122E+01  0.52491916148E+02  0.00000000000E+00 0.  1.
<mgrwt>
<rscale>  1 0.13533240E+03</rscale>
<asrwt>0</asrwt>
<pdfrwt beam="1">  1       21 0.26789493E-01 0.13533240E+03</pdfrwt>
<pdfrwt beam="2">  1       21 0.83146753E-02 0.13533240E+03</pdfrwt>
<totfact> 0.14857666E+06</totfact>
</mgrwt>
</event>
<event>
 6    1  0.4180481E-002  0.1264620E+03  0.7546771E-02  0.1232802E+00
         21   -1    0    0  504  502  0.00000000000E+00  0.00000000000E+00  0.25262542322E+02  0.25262542322E+02  0.00000000000E+00 0. -1.
         21   -1    0    0  502  503 -0.00000000000E+00 -0.00000000000E+00 -0.23528001776E+03  0.23528001776E+03  0.00000000000E+00 0. -1.
         25    2    1    2    0    0 -0.18393050286E+02 -0.54051074828E+01 -0.14328288196E+03  0.19110895545E+03  0.12500051642E+03 0.  0.
          5    1    3    3  501    0  0.42603841909E+02 -0.28666733179E+02 -0.27651883474E+02  0.58322427901E+02  0.10000000000E+00 0. -1.
         -5    1    3    3    0  501 -0.60996892195E+02  0.23261625696E+02 -0.11563099849E+03  0.13278652755E+03  0.10000000000E+00 0. -1.
         21    1    1    2  504  503  0.18393050286E+02  0.54051074828E+01 -0.66734593479E+02  0.69433604635E+02  0.00000000000E+00 0. -1.
<mgrwt>
<rscale>  1 0.12646204E+03</rscale>
<asrwt>0</asrwt>
<pdfrwt beam="1">  1       21 0.38865450E-02 0.12646204E+03</pdfrwt>
<pdfrwt beam="2">  1       21 0.36196925E-01 0.12646204E+03</pdfrwt>
<totfact> 0.29975050E+06</totfact>
</mgrwt>
</event>
<event>
 6    1  0.4180481E-002  0.1262884E+03  0.7546771E-02  0.1233069E+00
         21   -1    0    0  503  502  0.00000000000E+00  0.00000000000E+00  0.40812643471E+02  0.40812643471E+02  0.00000000000E+00 0. -1.
         21   -1    0    0  504  503 -0.00000000000E+00 -0.00000000000E+00 -0.14757469794E+03  0.14757469794E+03  0.00000000000E+00 0. -1.
         25    2    1    2    0    0  0.17740254609E+02 -0.28683283115E+01 -0.63106823225E+02  0.14117798687E+03  0.12500323555E+03 0.  0.
          5    1    3    3  501    0  0.54882423876E+02  0.72789318274E+01 -0.81484971365E+02  0.98513318173E+02  0.10000000000E+00 0.  1.
         -5    1    3    3    0  501 -0.37142169267E+02 -0.10147260139E+02  0.18378148140E+02  0.42664668700E+02  0.10000000000E+00 0.  1.
         21    1    1    2  504  502 -0.17740254609E+02  0.28683283115E+01 -0.43655231240E+02  0.47209354534E+02  0.00000000000E+00 0. -1.
<mgrwt>
<rscale>  1 0.12628837E+03</rscale>
<asrwt>0</asrwt>
<pdfrwt beam="1">  1       21 0.62788683E-02 0.12628837E+03</pdfrwt>
<pdfrwt beam="2">  1       21 0.22703800E-01 0.12628837E+03</pdfrwt>
<totfact> 0.32799323E+06</totfact>
</mgrwt>
</event>
<event>
 6    1  0.4180481E-002  0.1296779E+03  0.7546771E-02  0.1227934E+00
         21   -1    0    0  504  502  0.00000000000E+00  0.00000000000E+00  0.12484253197E+03  0.12484253197E+03  0.00000000000E+00 0.  1.
         21   -1    0    0  502  503 -0.00000000000E+00 -0.00000000000E+00 -0.60575576831E+02  0.60575576831E+02  0.00000000000E+00 0.  1.
         25    2    1    2    0    0 -0.22614072415E+02  0.26081363765E+02  0.74318520703E+02  0.14946441945E+03  0.12499894542E+03 0.  0.
          5    1    3    3  501    0 -0.42977332268E+02 -0.19887786168E+02  0.85700997591E+02  0.97914483687E+02  0.10000000000E+00 0. -1.
         -5    1    3    3    0  501  0.20363259853E+02  0.45969149934E+02 -0.11382476888E+02  0.51549935767E+02  0.10000000000E+00 0. -1.
         21    1    1    2  504  503  0.22614072415E+02 -0.26081363765E+02 -0.10051565568E+02  0.35953689343E+02  0.00000000000E+00 0.  1.
<mgrwt>
<rscale>  1 0.12967795E+03</rscale>
<asrwt>0</asrwt>
<pdfrwt beam="1">  1       21 0.19206543E-01 0.12967795E+03</pdfrwt>
<pdfrwt beam="2">  1       21 0.93193195E-02 0.12967795E+03</pdfrwt>
<totfact> 0.22710714E+06</totfact>
</mgrwt>
</event>
<event>
 6    1  0.4180481E-002  0.1259753E+03  0.7546771E-02  0.1233553E+00
         21   -1    0    0  504  502  0.00000000000E+00  0.00000000000E+00  0.33453157285E+02  0.33453157285E+02  0.00000000000E+00 0.  1.
         21   -1    0    0  502  503 -0.00000000000E+00 -0.00000000000E+00 -0.18185930891E+03  0.18185930891E+03  0.00000000000E+00 0.  1.
         25    2    1    2    0    0 -0.14078182110E+02  0.67892214154E+01 -0.89923624862E+02  0.15477739640E+03  0.12500198154E+03 0.  0.
          5    1    3    3  501    0  0.40233092620E+02  0.33122473624E+02 -0.75507821044E+01  0.52657613990E+02  0.10000000000E+00 0. -1.
         -5    1    3    3    0  501 -0.54311274730E+02 -0.26333252209E+02 -0.82372842758E+02  0.10211978241E+03  0.10000000000E+00 0. -1.
         21    1    1    2  504  503  0.14078182110E+02 -0.67892214154E+01 -0.58482526767E+02  0.60535069802E+02  0.00000000000E+00 0.  1.
<mgrwt>
<rscale>  1 0.12597533E+03</rscale>
<asrwt>0</asrwt>
<pdfrwt beam="1">  1       21 0.51466397E-02 0.12597533E+03</pdfrwt>
<pdfrwt beam="2">  1       21 0.27978355E-01 0.12597533E+03</pdfrwt>
<totfact> 0.30919288E+06</totfact>
</mgrwt>
</event>
<event>
 6    1  0.4180481E-002  0.1288085E+03  0.7546771E-02  0.1229234E+00
         21   -1    0    0  503  502  0.00000000000E+00  0.00000000000E+00  0.15765496869E+04  0.15765496869E+04  0.00000000000E+00 0. -1.
         21   -1    0    0  504  503 -0.00000000000E+00 -0.00000000000E+00 -0.15561674574E+02  0.15561674574E+02  0.00000000000E+00 0.  1.
         25    2    1    2    0    0  0.30242176862E+02 -0.72255976067E+01  0.15551492125E+04  0.15604745142E+04  0.12499935102E+03 0.  0.
          5    1    3    3  501    0 -0.37898150053E+02 -0.17813921657E+02  0.10255639962E+04  0.10264185919E+04  0.10000000000E+00 0. -1.
         -5    1    3    3    0  501  0.68140326916E+02  0.10588324051E+02  0.52958521629E+03  0.53405592223E+03  0.10000000000E+00 0. -1.
         21    1    1    2  504  502 -0.30242176862E+02  0.72255976067E+01  0.58387998093E+01  0.31636847273E+02  0.00000000000E+00 0.  1.
<mgrwt>
<rscale>  1 0.12880853E+03</rscale>
<asrwt>0</asrwt>
<pdfrwt beam="1">  1       21 0.24254598E+00 0.12880853E+03</pdfrwt>
<pdfrwt beam="2">  1       21 0.23941050E-02 0.12880853E+03</pdfrwt>
<totfact> 0.71020742E+04</totfact>
</mgrwt>
</event>
<event>
 6    1  0.4180481E-002  0.1264877E+03  0.7546771E-02  0.1232762E+00
         21   -1    0    0  504  502  0.00000000000E+00  0.00000000000E+00  0.25311799861E+02  0.25311799861E+02  0.00000000000E+00 0.  1.
         21   -1    0    0  502  503 -0.00000000000E+00 -0.00000000000E+00 -0.34691567565E+03  0.34691567565E+03  0.00000000000E+00 0.  1.
         25    2    1    2    0    0 -0.19075864996E+02  0.31523556205E+01 -0.13641782816E+03  0.18603483815E+03  0.12500124477E+03 0.  0.
          5    1    3    3  501    0  0.50676236548E+02 -0.11105552369E+02 -0.36859724638E+02  0.63640109557E+02  0.10000000000E+00 0.  1.
         -5    1    3    3    0  501 -0.69752101544E+02  0.14257907990E+02 -0.99558103520E+02  0.12239472859E+03  0.10000000000E+00 0.  1.
         21    1    1    2  504  503  0.19075864996E+02 -0.31523556205E+01 -0.18518604763E+03  0.18619263736E+03  0.00000000000E+00 0.  1.
<mgrwt>
<rscale>  1 0.12648770E+03</rscale>
<asrwt>0</asrwt>
<pdfrwt beam="1">  1       21 0.38941233E-02 0.12648770E+03</pdfrwt>
<pdfrwt beam="2">  1       21 0.53371639E-01 0.12648770E+03</pdfrwt>
<totfact> 0.13610465E+06</totfact>
</mgrwt>
</event>
<event>
 6    1  0.4180481E-002  0.1396089E+03  0.7546771E-02  0.1213856E+00
         21   -1    0    0  504  502  0.00000000000E+00  0.00000000000E+00  0.79659161691E+02  0.79659161691E+02  0.00000000000E+00 0.  1.
         21   -1    0    0  502  503 -0.00000000000E+00 -0.00000000000E+00 -0.13721420151E+03  0.13721420151E+03  0.00000000000E+00 0.  1.
         25    2    1    2    0    0 -0.55529342797E+02  0.27882951246E+02 -0.12593366630E+02  0.14017578216E+03  0.12501875915E+03 0.  0.
          5    1    3    3  501    0 -0.54178703073E+02  0.10961883166E+02 -0.64861382943E+02  0.85220324726E+02  0.10000000000E+00 0. -1.
         -5    1    3    3    0  501 -0.13506397246E+01  0.16921068080E+02  0.52268016313E+02  0.54955457435E+02  0.10000000000E+00 0. -1.
         21    1    1    2  504  503  0.55529342797E+02 -0.27882951246E+02 -0.44961673192E+02  0.76697581044E+02  0.00000000000E+00 0.  1.
<mgrwt>
<rscale>  1 0.13960894E+03</rscale>
<asrwt>0</asrwt>
<pdfrwt beam="1">  1       21 0.12255256E-01 0.13960894E+03</pdfrwt>
<pdfrwt beam="2">  1       21 0.21109877E-01 0.13960894E+03</pdfrwt>
<totfact> 0.11792408E+06</totfact>
</mgrwt>
</event>
<event>
 6    1  0.4180481E-002  0.1272236E+03  0.7546771E-02  0.1231635E+00
         21   -1    0    0  503  502  0.00000000000E+00  0.00000000000E+00  0.17460301197E+03  0.17460301197E+03  0.00000000000E+00 0.  1.
         21   -1    0    0  504  503 -0.00000000000E+00 -0.00000000000E+00 -0.40568931521E+02  0.40568931521E+02  0.00000000000E+00 0.  1.
         25    2    1    2    0    0  0.19375518673E+02  0.13636262302E+02  0.14154423633E+03  0.19031714889E+03  0.12499795178E+03 0.  0.
          5    1    3    3  501    0  0.71758974658E+02 -0.90268392218E+00  0.92710345786E+02  0.11724070751E+03  0.10000000000E+00 0. -1.
         -5    1    3    3    0  501 -0.52383455986E+02  0.14538946224E+02  0.48833890547E+02  0.73076441376E+02  0.10000000000E+00 0. -1.
         21    1    1    2  504  502 -0.19375518673E+02 -0.13636262302E+02 -0.75101558826E+01  0.24854794604E+02  0.00000000000E+00 0.  1.
<mgrwt>
<rscale>  1 0.12722361E+03</rscale>
<asrwt>0</asrwt>
<pdfrwt beam="1">  1       21 0.26862001E-01 0.12722361E+03</pdfrwt>
<pdfrwt beam="2">  1       21 0.62413742E-02 0.12722361E+03</pdfrwt>
<totfact> 0.24132716E+06</totfact>
</mgrwt>
</event>
<event>
 6    1  0.4180481E-002  0.1300851E+03  0.7546771E-02  0.1227329E+00
         21   -1    0    0  503  502  0.00000000000E+00  0.00000000000E+00  0.10870064402E+04  0.10870064402E+04  0.00000000000E+00 0.  1.
         21   -1    0    0  504  503 -0.00000000000E+00 -0.00000000000E+00 -0.98066099260E+01  0.98066099260E+01  0.00000000000E+00 0.  1.
         25    2    1    2    0    0 -0.35778772420E+02  0.39969065937E+01  0.10260527620E+04  0.10342661205E+04  0.12500416677E+03 0.  0.
          5    1    3    3  501    0  0.38051874061E+02 -0.28235458055E+02  0.29397866198E+03  0.29777281594E+03  0.10000000000E+00 0.  1.
         -5    1    3    3    0  501 -0.73830646482E+02  0.32232364649E+02  0.73207410002E+03  0.73649330453E+03  0.10000000000E+00 0.  1.
         21    1    1    2  504  502  0.35778772420E+02 -0.39969065937E+01  0.51147068311E+02  0.62546929701E+02  0.00000000000E+00 0.  1.
<mgrwt>
<rscale>  1 0.13008512E+03</rscale>
<asrwt>0</asrwt>
<pdfrwt beam="1">  1       21 0.16723166E+00 0.13008512E+03</pdfrwt>
<pdfrwt beam="2">  1       21 0.15087101E-02 0.13008512E+03</pdfrwt>
<totfact> 0.44265658E+05</totfact>
</mgrwt>
</event>
<event>
 6    1  0.4180481E-002  0.1459178E+03  0.7546771E-02  0.1205581E+00
         21   -1    0    0  503  502  0.00000000000E+00  0.00000000000E+00  0.23658528725E+02  0.23658528725E+02  0.00000000000E+00 0. -1.
         21   -1    0    0  504  503 -0.00000000000E+00 -0.00000000000E+00 -0.54641938990E+03  0.54641938990E+03  0.00000000000E+00 0. -1.
         25    2    1    2    0    0  0.68860830104E+02  0.30213111028E+02 -0.27718235899E+03  0.31324441860E+03  0.12504942882E+03 0.  0.
          5    1    3    3  501    0  0.97955228361E+02  0.43815781689E+02 -0.24642156607E+03  0.26877248318E+03  0.10000000000E+00 0. -1.
         -5    1    3    3    0  501 -0.29094398257E+02 -0.13602670661E+02 -0.30760792920E+02  0.44471935422E+02  0.10000000000E+00 0. -1.
         21    1    1    2  504  502 -0.68860830104E+02 -0.30213111028E+02 -0.24557850219E+03  0.25683350003E+03  0.00000000000E+00 0. -1.
<mgrwt>
<rscale>  1 0.14591780E+03</rscale>
<asrwt>0</asrwt>
<pdfrwt beam="1">  1       21 0.36397737E-02 0.14591780E+03</pdfrwt>
<pdfrwt beam="2">  1       21 0.84064521E-01 0.14591780E+03</pdfrwt>
<totfact> 0.56824055E+05</totfact>
</mgrwt>
</event>
<event>
 6    1  0.4180481E-002  0.1337631E+03  0.7546771E-02  0.1221976E+00
         21   -1    0    0  503  502  0.00000000000E+00  0.00000000000E+00  0.31668246775E+02  0.31668246775E+02  0.00000000000E+00 0.  1.
         21   -1    0    0  504  503 -0.00000000000E+00 -0.00000000000E+00 -0.26431606726E+03  0.26431606726E+03  0.00000000000E+00 0.  1.
         25    2    1    2    0    0 -0.33094175367E+02  0.34230734021E+02 -0.15335967333E+03  0.20349875909E+03  0.12500235178E+03 0.  0.
          5    1    3    3  501    0  0.30195212718E+02  0.40515204749E+02 -0.17474316810E+02  0.53465824925E+02  0.10000000000E+00 0. -1.
         -5    1    3    3    0  501 -0.63289388084E+02 -0.62844707285E+01 -0.13588535652E+03  0.15003293416E+03  0.10000000000E+00 0. -1.
         21    1    1    2  504  502  0.33094175367E+02 -0.34230734021E+02 -0.79288147153E+02  0.92485554946E+02  0.00000000000E+00 0. -1.
<mgrwt>
<rscale>  1 0.13376306E+03</rscale>
<asrwt>0</asrwt>
<pdfrwt beam="1">  1       21 0.48720379E-02 0.13376306E+03</pdfrwt>
<pdfrwt beam="2">  1       21 0.40664011E-01 0.13376306E+03</pdfrwt>
<totfact> 0.16338371E+06</totfact>
</mgrwt>
</event>
<event>
 6    1  0.4180481E-002  0.1275462E+03  0.7546771E-02  0.1231143E+00
         21   -1    0    0  504  502  0.00000000000E+00  0.00000000000E+00  0.45827691570E+03  0.45827691570E+03  0.00000000000E+00 0.  1.
         21   -1    0    0  502  503 -0.00000000000E+00 -0.00000000000E+00 -0.82828710902E+02  0.82828710902E+02  0.00000000000E+00 0.  1.
         25    2    1    2    0    0  0.18610525864E+02 -0.17257327433E+02  0.44718111876E+03  0.46501503605E+03  0.12499545494E+03 0.  0.
          5    1    3    3  501    0  0.55259324971E+02  0.13397664245E+02  0.36925643815E+03  0.37360864219E+03  0.10000000000E+00 0. -1.
         -5    1    3    3    0  501 -0.36648799107E+02 -0.30654991678E+02  0.77924680613E+02  0.91406393865E+02  0.10000000000E+00 0. -1.
         21    1    1    2  504  503 -0.18610525864E+02  0.17257327433E+02 -0.71732913968E+02  0.76090590545E+02  0.00000000000E+00 0.  1.
<mgrwt>
<rscale>  1 0.12754619E+03</rscale>
<asrwt>0</asrwt>
<pdfrwt beam="1">  1       21 0.70504139E-01 0.12754619E+03</pdfrwt>
<pdfrwt beam="2">  1       21 0.12742879E-01 0.12754619E+03</pdfrwt>
<totfact> 0.98646789E+04</totfact>
</mgrwt>
</event>
<event>
 6    1  0.4180481E-002  0.1301111E+03  0.7546771E-02  0.1227291E+00
         21   -1    0    0  504  502  0.00000000000E+00  0.00000000000E+00  0.16224689393E+04  0.16224689393E+04  0.00000000000E+00 0.  1.
         21   -1    0    0  502  503 -0.00000000000E+00 -0.00000000000E+00 -0.52254885293E+01  0.52254885293E+01  0.00000000000E+00 0.  1.
         25    2    1    2    0    0  0.35708738272E+02 -0.46504431364E+01  0.14832748180E+04  0.14889704747E+04  0.12502858934E+03 0.  0.
          5    1    3    3  501    0  0.73301198188E+02  0.29273351980E+02  0.83583168910E+03  0.83955024703E+03  0.10000000000E+00 0. -1.
         -5    1    3    3    0  501 -0.37592459917E+02 -0.33923795117E+02  0.64744312895E+03  0.64942022770E+03  0.10000000000E+00 0. -1.
         21    1    1    2  504  503 -0.35708738272E+02  0.46504431364E+01  0.13396863276E+03  0.13872395313E+03  0.00000000000E+00 0.  1.
<mgrwt>
<rscale>  1 0.13011106E+03</rscale>
<asrwt>0</asrwt>
<pdfrwt beam="1">  1       21 0.24961020E+00 0.13011106E+03</pdfrwt>
<pdfrwt beam="2">  1       21 0.80392260E-03 0.13011106E+03</pdfrwt>
<totfact> 0.36766065E+05</totfact>
</mgrwt>
</event>
<event>
 6    1  0.4180481E-002  0.1412100E+03  0.7546771E-02  0.1211710E+00
         21   -1    0    0  504  502  0.00000000000E+00  0.00000000000E+00  0.32537528621E+02  0.32537528621E+02  0.00000000000E+00 0. -1.
         21   -1    0    0  502  503 -0.00000000000E+00 -0.00000000000E+00 -0.41404915489E+03  0.41404915489E+03  0.00000000000E+00 0. -1.
         25    2    1    2    0    0  0.51389502053E+02  0.40918241251E+02 -0.15031894572E+03  0.20624268228E+03  0.12500030065E+03 0.  0.
          5    1    3    3  501    0  0.18512752147E+02 -0.10043546529E+02  0.17764269648E+02  0.27553114072E+02  0.10000000000E+00 0.  1.
         -5    1    3    3    0  501  0.32876749906E+02  0.50961787780E+02 -0.16808321537E+03  0.17868956821E+03  0.10000000000E+00 0.  1.
         21    1    1    2  504  503 -0.51389502053E+02 -0.40918241251E+02 -0.23119268055E+03  0.24034400123E+03  0.00000000000E+00 0. -1.
<mgrwt>
<rscale>  1 0.14120998E+03</rscale>
<asrwt>0</asrwt>
<pdfrwt beam="1">  1       21 0.50057736E-02 0.14120998E+03</pdfrwt>
<pdfrwt beam="2">  1       21 0.63699870E-01 0.14120998E+03</pdfrwt>
<totfact> 0.61542572E+05</totfact>
</mgrwt>
</event>
<event>
 6    1  0.4180481E-002  0.1263188E+03  0.7546771E-02  0.1233023E+00
         21   -1    0    0  504  502  0.00000000000E+00  0.00000000000E+00  0.36607053620E+03  0.36607053620E+03  0.00000000000E+00 0.  1.
         21   -1    0    0  502  503 -0.00000000000E+00 -0.00000000000E+00 -0.15610581208E+02  0.15610581208E+02  0.00000000000E+00 0.  1.
         25    2    1    2    0    0 -0.13952067596E+02 -0.11697829128E+02  0.33417936730E+03  0.35725660243E+03  0.12499972420E+03 0.  0.
          5    1    3    3  501    0 -0.77233866500E+01  0.56351621740E+02  0.12857790846E+03  0.14059674434E+03  0.10000000000E+00 0.  1.
         -5    1    3    3    0  501 -0.62286809463E+01 -0.68049450867E+02  0.20560145884E+03  0.21665985809E+03  0.10000000000E+00 0.  1.
         21    1    1    2  504  503  0.13952067596E+02  0.11697829128E+02  0.16280587685E+02  0.24424514978E+02  0.00000000000E+00 0.  1.
<mgrwt>
<rscale>  1 0.12631877E+03</rscale>
<asrwt>0</asrwt>
<pdfrwt beam="1">  1       21 0.56318538E-01 0.12631877E+03</pdfrwt>
<pdfrwt beam="2">  1       21 0.24016281E-02 0.12631877E+03</pdfrwt>
<totfact> 0.26881921E+06</totfact>
</mgrwt>
</event>
<event>
 6    1  0.4180481E-002  0.1326517E+03  0.7546771E-02  0.1223573E+00
         21   -1    0    0  503  502  0.00000000000E+00  0.00000000000E+00  0.53446556181E+02  0.53446556181E+02  0.00000000000E+00 0.  1.
         21   -1    0    0  504  503 -0.00000000000E+00 -0.00000000000E+00 -0.14774590419E+03  0.14774590419E+03  0.00000000000E+00 0.  1.
         25    2    1    2    0    0 -0.13863979422E+02 -0.42131366156E+02 -0.62634219787E+02  0.14669528352E+03  0.12501679399E+03 0.  0.
          5    1    3    3  501    0  0.35485207166E+02 -0.67640865654E+02 -0.28696569925E+02  0.81596505805E+02  0.10000000000E+00 0.  1.
         -5    1    3    3    0  501 -0.49349186588E+02  0.25509499498E+02 -0.33937649863E+02  0.65098777713E+02  0.10000000000E+00 0.  1.
         21    1    1    2  504  502  0.13863979422E+02  0.42131366156E+02 -0.31665128219E+02  0.54497176851E+02  0.00000000000E+00 0.  1.
<mgrwt>
<rscale>  1 0.13265165E+03</rscale>
<asrwt>0</asrwt>
<pdfrwt beam="1">  1       21 0.82225471E-02 0.13265165E+03</pdfrwt>
<pdfrwt beam="2">  1       21 0.22730139E-01 0.13265165E+03</pdfrwt>
<totfact> 0.20652425E+06</totfact>
</mgrwt>
</event>
<event>
 6    1  0.4180481E-002  0.1646623E+03  0.7546771E-02  0.1183531E+00
         21   -1    0    0  504  502  0.00000000000E+00  0.00000000000E+00  0.36981421901E+03  0.36981421901E+03  0.00000000000E+00 0. -1.
         21   -1    0    0  502  503 -0.00000000000E+00 -0.00000000000E+00 -0.58848121632E+02  0.58848121632E+02  0.00000000000E+00 0. -1.
         25    2    1    2    0    0 -0.60508694426E+02 -0.88475074424E+02  0.26509477294E+03  0.31207194952E+03  0.12499808856E+03 0.  0.
          5    1    3    3  501    0 -0.10732829562E+02 -0.10551486009E+03  0.13455661524E+03  0.17133030098E+03  0.10000000000E+00 0. -1.
         -5    1    3    3    0  501 -0.49775864864E+02  0.17039785662E+02  0.13053815770E+03  0.14074164854E+03  0.10000000000E+00 0. -1.
         21    1    1    2  504  503  0.60508694426E+02  0.88475074424E+02  0.45871324438E+02  0.11659039112E+03  0.00000000000E+00 0. -1.
<mgrwt>
<rscale>  1 0.16466227E+03</rscale>
<asrwt>0</asrwt>
<pdfrwt beam="1">  1       21 0.56894494E-01 0.16466227E+03</pdfrwt>
<pdfrwt beam="2">  1       21 0.90535574E-02 0.16466227E+03</pdfrwt>
<totfact> 0.28264148E+05</totfact>
</mgrwt>
</event>
<event>
 6    1  0.4180481E-002  0.1260830E+03  0.7546771E-02  0.1233386E+00
         21   -1    0    0  504  502  0.00000000000E+00  0.00000000000E+00  0.49336101959E+03  0.49336101959E+03  0.00000000000E+00 0.  1.
         21   -1    0    0  502  503 -0.00000000000E+00 -0.00000000000E+00 -0.12059215668E+02  0.12059215668E+02  0.00000000000E+00 0.  1.
         25    2    1    2    0    0 -0.99437407865E+01  0.13134086266E+02  0.46661841259E+03  0.48335251712E+03  0.12500212251E+03 0.  0.
          5    1    3    3  501    0 -0.20969735442E+02  0.67459589098E+02  0.26379569050E+03  0.27309101467E+03  0.10000000000E+00 0. -1.
         -5    1    3    3    0  501  0.11025994656E+02 -0.54325502831E+02  0.20282272209E+03  0.21026150245E+03  0.10000000000E+00 0. -1.
         21    1    1    2  504  503  0.99437407865E+01 -0.13134086266E+02  0.14683391329E+02  0.22067718138E+02  0.00000000000E+00 0.  1.
<mgrwt>
<rscale>  1 0.12608296E+03</rscale>
<asrwt>0</asrwt>
<pdfrwt beam="1">  1       21 0.75901680E-01 0.12608296E+03</pdfrwt>
<pdfrwt beam="2">  1       21 0.18552643E-02 0.12608296E+03</pdfrwt>
<totfact> 0.21450671E+06</totfact>
</mgrwt>
</event>
<event>
 6    1  0.4180481E-002  0.1287412E+03  0.7546771E-02  0.1229336E+00
         21   -1    0    0  503  502  0.00000000000E+00  0.00000000000E+00  0.18672908915E+04  0.18672908915E+04  0.00000000000E+00 0.  1.
         21   -1    0    0  504  503 -0.00000000000E+00 -0.00000000000E+00 -0.59346395375E+01  0.59346395375E+01  0.00000000000E+00 0.  1.
         25    2    1    2    0    0  0.30605060831E+02  0.37573952292E+01  0.17996016596E+04  0.18042007713E+04  0.12499400974E+03 0.  0.
          5    1    3    3  501    0 -0.46530291027E+02  0.12347594778E+02  0.51050192509E+03  0.51276676628E+03  0.10000000000E+00 0.  1.
         -5    1    3    3    0  501  0.77135351858E+02 -0.85901995486E+01  0.12890997345E+04  0.12914340051E+04  0.10000000000E+00 0.  1.
         21    1    1    2  504  502 -0.30605060831E+02 -0.37573952292E+01  0.61754592390E+02  0.69024759678E+02  0.00000000000E+00 0.  1.
<mgrwt>
<rscale>  1 0.12874118E+03</rscale>
<asrwt>0</asrwt>
<pdfrwt beam="1">  1       21 0.28727505E+00 0.12874118E+03</pdfrwt>
<pdfrwt beam="2">  1       21 0.91302296E-03 0.12874118E+03</pdfrwt>
<totfact> 0.18445728E+05</totfact>
</mgrwt>
</event>
<event>
 6    1  0.4180481E-002  0.1281136E+03  0.7546771E-02  0.1230282E+00
         21   -1    0    0  504  502  0.00000000000E+00  0.00000000000E+00  0.31956286207E+02  0.31956286207E+02  0.00000000000E+00 0. -1.
         21   -1    0    0  502  503 -0.00000000000E+00 -0.00000000000E+00 -0.43275647048E+03  0.43275647048E+03  0.00000000000E+00 0.  1.
         25    2    1    2    0    0  0.11332631053E+02  0.25641947264E+02 -0.99769148020E+02  0.16237912843E+03  0.12500864157E+03 0.  0.
          5    1    3    3  501    0  0.52917521446E+02 -0.99281712367E+01 -0.92700815398E+02  0.10720207011E+03  0.10000000000E+00 0.  1.
         -5    1    3    3    0  501 -0.41584890394E+02  0.35570118500E+02 -0.70683326213E+01  0.55177058323E+02  0.10000000000E+00 0.  1.
         21    1    1    2  504  503 -0.11332631053E+02 -0.25641947264E+02 -0.30103103626E+03  0.30233362826E+03  0.00000000000E+00 0.  1.
<mgrwt>
<rscale>  1 0.12811362E+03</rscale>
<asrwt>0</asrwt>
<pdfrwt beam="1">  1       21 0.49163523E-02 0.12811362E+03</pdfrwt>
<pdfrwt beam="2">  1       21 0.66577911E-01 0.12811362E+03</pdfrwt>
<totfact> 0.57728916E+05</totfact>
</mgrwt>
</event>
<event>
 6    1  0.4180481E-002  0.1284612E+03  0.7546771E-02  0.1229757E+00
         21   -1    0    0  504  502  0.00000000000E+00  0.00000000000E+00  0.52973307827E+02  0.52973307827E+02  0.00000000000E+00 0. -1.
         21   -1    0    0  502  503 -0.00000000000E+00 -0.00000000000E+00 -0.12155351756E+03  0.12155351756E+03  0.00000000000E+00 0. -1.
         25    2    1    2    0    0  0.25986193826E+02  0.14171077084E+02 -0.43182317151E+02  0.13552484284E+03  0.12500467518E+03 0.  0.
          5    1    3    3  501    0  0.46833560091E+02 -0.12387961084E+02 -0.74898995790E+02  0.89200412000E+02  0.10000000000E+00 0.  1.
         -5    1    3    3    0  501 -0.20847366265E+02  0.26559038168E+02  0.31716678638E+02  0.46324430838E+02  0.10000000000E+00 0.  1.
         21    1    1    2  504  503 -0.25986193826E+02 -0.14171077084E+02 -0.25397892584E+02  0.39001982552E+02  0.00000000000E+00 0. -1.
<mgrwt>
<rscale>  1 0.12846116E+03</rscale>
<asrwt>0</asrwt>
<pdfrwt beam="1">  1       21 0.81497398E-02 0.12846116E+03</pdfrwt>
<pdfrwt beam="2">  1       21 0.18700541E-01 0.12846116E+03</pdfrwt>
<totfact> 0.30086759E+06</totfact>
</mgrwt>
</event>
<event>
 6    1  0.4180481E-002  0.1297725E+03  0.7546771E-02  0.1227794E+00
         21   -1    0    0  504  502  0.00000000000E+00  0.00000000000E+00  0.34584258659E+02  0.34584258659E+02  0.00000000000E+00 0.  1.
         21   -1    0    0  502  503 -0.00000000000E+00 -0.00000000000E+00 -0.23429589121E+03  0.23429589121E+03  0.00000000000E+00 0.  1.
         25    2    1    2    0    0  0.23138506595E+02 -0.26110141732E+02 -0.10179402150E+03  0.16493310305E+03  0.12499510262E+03 0.  0.
          5    1    3    3  501    0 -0.57039340796E+01 -0.22641185942E+02 -0.12536632762E+03  0.12752209325E+03  0.10000000000E+00 0. -1.
         -5    1    3    3    0  501  0.28842440675E+02 -0.34689557903E+01  0.23572306122E+02  0.37411009800E+02  0.10000000000E+00 0. -1.
         21    1    1    2  504  503 -0.23138506595E+02  0.26110141732E+02 -0.97917611050E+02  0.10394704682E+03  0.00000000000E+00 0.  1.
<mgrwt>
<rscale>  1 0.12977252E+03</rscale>
<asrwt>0</asrwt>
<pdfrwt beam="1">  1       21 0.53206553E-02 0.12977252E+03</pdfrwt>
<pdfrwt beam="2">  1       21 0.36045521E-01 0.12977252E+03</pdfrwt>
<totfact> 0.17893694E+06</totfact>
</mgrwt>
</event>
<event>
 6    1  0.4180481E-002  0.1269394E+03  0.7546771E-02  0.1232069E+00
         21   -1    0    0  503  502  0.00000000000E+00  0.00000000000E+00  0.29443112360E+03  0.29443112360E+03  0.00000000000E+00 0.  1.
         21   -1    0    0  504  503 -0.00000000000E+00 -0.00000000000E+00 -0.68191220544E+02  0.68191220544E+02  0.00000000000E+00 0. -1.
         25    2    1    2    0    0  0.10629744967E+02 -0.19805097087E+02  0.27831855265E+03  0.30590004612E+03  0.12493353481E+03 0.  0.
          5    1    3    3  501    0  0.67116216205E+01 -0.41099615236E+02  0.28101201442E+03  0.28408095059E+03  0.10000000000E+00 0. -1.
         -5    1    3    3    0  501  0.39181233467E+01  0.21294518149E+02 -0.26934617682E+01  0.21819095537E+02  0.10000000000E+00 0. -1.
         21    1    1    2  504  502 -0.10629744967E+02  0.19805097087E+02 -0.52078649597E+02  0.56722298019E+02  0.00000000000E+00 0. -1.
<mgrwt>
<rscale>  1 0.12693944E+03</rscale>
<asrwt>0</asrwt>
<pdfrwt beam="1">  1       21 0.45297095E-01 0.12693944E+03</pdfrwt>
<pdfrwt beam="2">  1       21 0.10490957E-01 0.12693944E+03</pdfrwt>
<totfact> 0.35282699E+05</totfact>
</mgrwt>
</event>
<event>
 6    1  0.4180481E-002  0.1406104E+03  0.7546771E-02  0.1212510E+00
         21   -1    0    0  503  502  0.00000000000E+00  0.00000000000E+00  0.11778747059E+03  0.11778747059E+03  0.00000000000E+00 0.  1.
         21   -1    0    0  504  503 -0.00000000000E+00 -0.00000000000E+00 -0.95537577703E+02  0.95537577703E+02  0.00000000000E+00 0.  1.
         25    2    1    2    0    0  0.61235540489E+02 -0.19902687615E+02  0.40632795274E+02  0.14636357062E+03  0.12500144943E+03 0.  0.
          5    1    3    3  501    0  0.20585501158E+02 -0.24674854686E+02 -0.42747875909E+02  0.53478988457E+02  0.10000000000E+00 0.  1.
         -5    1    3    3    0  501  0.40650039331E+02  0.47721670707E+01  0.83380671183E+02  0.92884582160E+02  0.10000000000E+00 0.  1.
         21    1    1    2  504  502 -0.61235540489E+02  0.19902687615E+02 -0.18382902382E+02  0.66961477681E+02  0.00000000000E+00 0.  1.
<mgrwt>
<rscale>  1 0.14061035E+03</rscale>
<asrwt>0</asrwt>
<pdfrwt beam="1">  1       21 0.18121149E-01 0.14061035E+03</pdfrwt>
<pdfrwt beam="2">  1       21 0.14698089E-01 0.14061035E+03</pdfrwt>
<totfact> 0.11294321E+06</totfact>
</mgrwt>
</event>
<event>
 6    1  0.4180481E-002  0.1323658E+03  0.7546771E-02  0.1223987E+00
         21   -1    0    0  504  502  0.00000000000E+00  0.00000000000E+00  0.72426066782E+02  0.72426066782E+02  0.00000000000E+00 0. -1.
         21   -1    0    0  502  503 -0.00000000000E+00 -0.00000000000E+00 -0.12141227800E+03  0.12141227800E+03  0.00000000000E+00 0. -1.
         25    2    1    2    0    0 -0.38692788674E+02 -0.19970313602E+02 -0.57718794784E+01  0.13249159435E+03  0.12499905064E+03 0.  0.
          5    1    3    3  501    0 -0.55271925451E+02 -0.50111322810E+01 -0.55185889466E+02  0.78266145848E+02  0.10000000000E+00 0. -1.
         -5    1    3    3    0  501  0.16579136776E+02 -0.14959181321E+02  0.49414009988E+02  0.54225448501E+02  0.10000000000E+00 0. -1.
         21    1    1    2  504  503  0.38692788674E+02  0.19970313602E+02 -0.43214331735E+02  0.61346750428E+02  0.00000000000E+00 0. -1.
<mgrwt>
<rscale>  1 0.13236581E+03</rscale>
<asrwt>0</asrwt>
<pdfrwt beam="1">  1       21 0.11142472E-01 0.13236581E+03</pdfrwt>
<pdfrwt beam="2">  1       21 0.18678812E-01 0.13236581E+03</pdfrwt>
<totfact> 0.17489453E+06</totfact>
</mgrwt>
</event>
<event>
 6    1  0.4180481E-002  0.1294600E+03  0.7546771E-02  0.1228259E+00
         21   -1    0    0  504  502  0.00000000000E+00  0.00000000000E+00  0.49157601066E+01  0.49157601066E+01  0.00000000000E+00 0.  1.
         21   -1    0    0  502  503 -0.00000000000E+00 -0.00000000000E+00 -0.14204965263E+04  0.14204965263E+04  0.00000000000E+00 0.  1.
         25    2    1    2    0    0  0.18073808900E+02 -0.28453831017E+02 -0.97732782708E+03  0.98586488088E+03  0.12499439464E+03 0.  0.
          5    1    3    3  501    0  0.67248265683E+02  0.83559704296E+01 -0.48082766871E+03  0.48557945640E+03  0.10000000000E+00 0. -1.
         -5    1    3    3    0  501 -0.49174456783E+02 -0.36809801446E+02 -0.49650015837E+03  0.50028542448E+03  0.10000000000E+00 0. -1.
         21    1    1    2  504  503 -0.18073808900E+02  0.28453831017E+02 -0.43825293911E+03  0.43954740552E+03  0.00000000000E+00 0.  1.
<mgrwt>
<rscale>  1 0.12945996E+03</rscale>
<asrwt>0</asrwt>
<pdfrwt beam="1">  1       21 0.75627082E-03 0.12945996E+03</pdfrwt>
<pdfrwt beam="2">  1       21 0.21853792E+00 0.12945996E+03</pdfrwt>
<totfact> 0.61571631E+05</totfact>
</mgrwt>
</event>
<event>
 6    1  0.4180481E-002  0.1265237E+03  0.7546771E-02  0.1232707E+00
         21   -1    0    0  503  502  0.00000000000E+00  0.00000000000E+00  0.19464404787E+04  0.19464404787E+04  0.00000000000E+00 0. -1.
         21   -1    0    0  504  503 -0.00000000000E+00 -0.00000000000E+00 -0.27528500738E+01  0.27528500738E+01  0.00000000000E+00 0. -1.
         25    2    1    2    0    0 -0.10026538623E+02  0.16788180120E+02  0.17244915453E+04  0.17291267538E+04  0.12500346587E+03 0.  0.
          5    1    3    3  501    0  0.52190153575E+02  0.21450829950E+01  0.44779032653E+03  0.45082657424E+03  0.10000000000E+00 0.  1.
         -5    1    3    3    0  501 -0.62216692199E+02  0.14643097125E+02  0.12767012187E+04  0.12783001795E+04  0.10000000000E+00 0.  1.
         21    1    1    2  504  502  0.10026538623E+02 -0.16788180120E+02  0.21919608338E+03  0.22006657501E+03  0.00000000000E+00 0. -1.
<mgrwt>
<rscale>  1 0.12652368E+03</rscale>
<asrwt>0</asrwt>
<pdfrwt beam="1">  1       21 0.29945128E+00 0.12652368E+03</pdfrwt>
<pdfrwt beam="2">  1       21 0.42351695E-03 0.12652368E+03</pdfrwt>
<totfact> 0.52094485E+05</totfact>
</mgrwt>
</event>
<event>
 6    1  0.4180481E-002  0.1259215E+03  0.7546771E-02  0.1233636E+00
         21   -1    0    0  504  502  0.00000000000E+00  0.00000000000E+00  0.48370303947E+02  0.48370303947E+02  0.00000000000E+00 0.  1.
         21   -1    0    0  502  503 -0.00000000000E+00 -0.00000000000E+00 -0.12637267473E+03  0.12637267473E+03  0.00000000000E+00 0.  1.
         25    2    1    2    0    0  0.72821609033E+01  0.13406723305E+02 -0.37383845744E+02  0.13135364043E+03  0.12499382718E+03 0.  0.
          5    1    3    3  501    0  0.35147376748E+02  0.25191093837E+02 -0.72861419652E+02  0.84727361429E+02  0.10000000000E+00 0.  1.
         -5    1    3    3    0  501 -0.27865215845E+02 -0.11784370531E+02  0.35477573909E+02  0.46626279000E+02  0.10000000000E+00 0.  1.
         21    1    1    2  504  503 -0.72821609033E+01 -0.13406723305E+02 -0.40618525039E+02  0.43389338247E+02  0.00000000000E+00 0.  1.
<mgrwt>
<rscale>  1 0.12592151E+03</rscale>
<asrwt>0</asrwt>
<pdfrwt beam="1">  1       21 0.74415852E-02 0.12592151E+03</pdfrwt>
<pdfrwt beam="2">  1       21 0.19441950E-01 0.12592151E+03</pdfrwt>
<totfact> 0.32725401E+06</totfact>
</mgrwt>
</event>
<event>
 6    1  0.4180481E-002  0.1295701E+03  0.7546771E-02  0.1228095E+00
         21   -1    0    0  504  502  0.00000000000E+00  0.00000000000E+00  0.13216158948E+04  0.13216158948E+04  0.00000000000E+00 0.  1.
         21   -1    0    0  502  503 -0.00000000000E+00 -0.00000000000E+00 -0.51134673819E+01  0.51134673819E+01  0.00000000000E+00 0.  1.
         25    2    1    2    0    0 -0.33446281413E+02  0.67302507529E+01  0.98795376271E+03  0.99641409596E+03  0.12499785345E+03 0.  0.
          5    1    3    3  501    0  0.85765228554E+01  0.59673444494E+02  0.54655209773E+03  0.54986696778E+03  0.10000000000E+00 0. -1.
         -5    1    3    3    0  501 -0.42022804269E+02 -0.52943193741E+02  0.44140166497E+03  0.44654712818E+03  0.10000000000E+00 0. -1.
         21    1    1    2  504  503  0.33446281413E+02 -0.67302507529E+01  0.32854866474E+03  0.33031526625E+03  0.00000000000E+00 0.  1.
<mgrwt>
<rscale>  1 0.12957011E+03</rscale>
<asrwt>0</asrwt>
<pdfrwt beam="1">  1       21 0.20332525E+00 0.12957011E+03</pdfrwt>
<pdfrwt beam="2">  1       21 0.78668834E-03 0.12957011E+03</pdfrwt>
<totfact> 0.71731675E+05</totfact>
</mgrwt>
</event>
<event>
 6    1  0.4180481E-002  0.1271864E+03  0.7546771E-02  0.1231691E+00
         21   -1    0    0  504  502  0.00000000000E+00  0.00000000000E+00  0.47203817793E+03  0.47203817793E+03  0.00000000000E+00 0. -1.
         21   -1    0    0  502  503 -0.00000000000E+00 -0.00000000000E+00 -0.12029393490E+02  0.12029393490E+02  0.00000000000E+00 0. -1.
         25    2    1    2    0    0 -0.14554176895E+02  0.18436756885E+02  0.39195221585E+03  0.41207149793E+03  0.12499856731E+03 0.  0.
          5    1    3    3  501    0 -0.48094914564E+02 -0.26721882602E+02  0.94525916852E+02  0.10937247722E+03  0.10000000000E+00 0. -1.
         -5    1    3    3    0  501  0.33540737669E+02  0.45158639487E+02  0.29742629900E+03  0.30269902071E+03  0.10000000000E+00 0. -1.
         21    1    1    2  504  503  0.14554176895E+02 -0.18436756885E+02  0.68056568588E+02  0.71996073487E+02  0.00000000000E+00 0. -1.
<mgrwt>
<rscale>  1 0.12718640E+03</rscale>
<asrwt>0</asrwt>
<pdfrwt beam="1">  1       21 0.72621244E-01 0.12718640E+03</pdfrwt>
<pdfrwt beam="2">  1       21 0.18506763E-02 0.12718640E+03</pdfrwt>
<totfact> 0.23741591E+06</totfact>
</mgrwt>
</event>
<event>
 6    1  0.4180481E-002  0.1286730E+03  0.7546771E-02  0.1229438E+00
         21   -1    0    0  504  502  0.00000000000E+00  0.00000000000E+00  0.18669662878E+02  0.18669662878E+02  0.00000000000E+00 0. -1.
         21   -1    0    0  502  503 -0.00000000000E+00 -0.00000000000E+00 -0.76344929284E+03  0.76344929284E+03  0.00000000000E+00 0. -1.
         25    2    1    2    0    0 -0.22153303595E+02 -0.21006533809E+02 -0.20875210608E+03  0.24522273699E+03  0.12499882249E+03 0.  0.
          5    1    3    3  501    0 -0.56497359024E+02 -0.51686200480E+02 -0.16405953975E+03  0.18104959950E+03  0.10000000000E+00 0.  1.
         -5    1    3    3    0  501  0.34344055430E+02  0.30679666671E+02 -0.44692566333E+02  0.64173137494E+02  0.10000000000E+00 0.  1.
         21    1    1    2  504  503  0.22153303595E+02  0.21006533809E+02 -0.53602752388E+03  0.53689621873E+03  0.00000000000E+00 0. -1.
<mgrwt>
<rscale>  1 0.12867303E+03</rscale>
<asrwt>0</asrwt>
<pdfrwt beam="1">  1       21 0.28722557E-02 0.12867303E+03</pdfrwt>
<pdfrwt beam="2">  1       21 0.11745374E+00 0.12867303E+03</pdfrwt>
<totfact> 0.38466103E+05</totfact>
</mgrwt>
</event>
<event>
 6    1  0.4180481E-002  0.1268593E+03  0.7546771E-02  0.1232192E+00
         21   -1    0    0  504  502  0.00000000000E+00  0.00000000000E+00  0.91616459391E+02  0.91616459391E+02  0.00000000000E+00 0.  1.
         21   -1    0    0  502  503 -0.00000000000E+00 -0.00000000000E+00 -0.61176917813E+02  0.61176917813E+02  0.00000000000E+00 0.  1.
         25    2    1    2    0    0  0.20526642370E+02  0.67351425659E+01  0.32884406684E+02  0.13105211326E+03  0.12500626783E+03 0.  0.
          5    1    3    3  501    0 -0.49038497933E+02 -0.99355984640E+01 -0.46813011444E+01  0.50253507109E+02  0.10000000000E+00 0.  1.
         -5    1    3    3    0  501  0.69565140303E+02  0.16670741030E+02  0.37565707828E+02  0.80798606154E+02  0.10000000000E+00 0.  1.
         21    1    1    2  504  503 -0.20526642370E+02 -0.67351425659E+01 -0.24448651054E+01  0.21741263941E+02  0.00000000000E+00 0.  1.
<mgrwt>
<rscale>  1 0.12685926E+03</rscale>
<asrwt>0</asrwt>
<pdfrwt beam="1">  1       21 0.14094840E-01 0.12685926E+03</pdfrwt>
<pdfrwt beam="2">  1       21 0.94118335E-02 0.12685926E+03</pdfrwt>
<totfact> 0.39130216E+06</totfact>
</mgrwt>
</event>
<event>
 6    1  0.4180481E-002  0.1271756E+03  0.7546771E-02  0.1231708E+00
         21   -1    0    0  504  502  0.00000000000E+00  0.00000000000E+00  0.24655630120E+02  0.24655630120E+02  0.00000000000E+00 0.  1.
         21   -1    0    0  502  503 -0.00000000000E+00 -0.00000000000E+00 -0.27024051519E+03  0.27024051519E+03  0.00000000000E+00 0.  1.
         25    2    1    2    0    0 -0.14518824956E+02 -0.18410057519E+02 -0.15086078814E+03  0.19731345712E+03  0.12499558578E+03 0.  0.
          5    1    3    3  501    0  0.48973831400E+02  0.29631082551E+00 -0.10764882520E+03  0.11826581725E+03  0.10000000000E+00 0. -1.
         -5    1    3    3    0  501 -0.63492656356E+02 -0.18706368345E+02 -0.43211962939E+02  0.79047639869E+02  0.10000000000E+00 0. -1.
         21    1    1    2  504  503  0.14518824956E+02  0.18410057519E+02 -0.94724096930E+02  0.97582688194E+02  0.00000000000E+00 0.  1.
<mgrwt>
<rscale>  1 0.12717556E+03</rscale>
<asrwt>0</asrwt>
<pdfrwt beam="1">  1       21 0.37931739E-02 0.12717556E+03</pdfrwt>
<pdfrwt beam="2">  1       21 0.41575464E-01 0.12717556E+03</pdfrwt>
<totfact> 0.23693263E+06</totfact>
</mgrwt>
</event>
<event>
 6    1  0.4180481E-002  0.1887996E+03  0.7546771E-02  0.1159548E+00
         21   -1    0    0  503  502  0.00000000000E+00  0.00000000000E+00  0.52696911321E+03  0.52696911321E+03  0.00000000000E+00 0. -1.
         21   -1    0    0  504  503 -0.00000000000E+00 -0.00000000000E+00 -0.11542192088E+03  0.11542192088E+03  0.00000000000E+00 0. -1.
         25    2    1    2    0    0  0.13002108687E+03  0.55811440417E+02  0.45644034515E+03  0.49394644820E+03  0.12499962037E+03 0.  0.
          5    1    3    3  501    0  0.12698700246E+03  0.86125066069E+02  0.41541595365E+03  0.44284720881E+03  0.10000000000E+00 0.  1.
         -5    1    3    3    0  501  0.30340844037E+01 -0.30313625652E+02  0.41024391502E+02  0.51099239392E+02  0.10000000000E+00 0.  1.
         21    1    1    2  504  502 -0.13002108687E+03 -0.55811440417E+02 -0.44893152817E+02  0.14844458589E+03  0.00000000000E+00 0. -1.
<mgrwt>
<rscale>  1 0.18879964E+03</rscale>
<asrwt>0</asrwt>
<pdfrwt beam="1">  1       21 0.81072170E-01 0.18879964E+03</pdfrwt>
<pdfrwt beam="2">  1       21 0.17757219E-01 0.18879964E+03</pdfrwt>
<totfact> 0.38496885E+04</totfact>
</mgrwt>
</event>
<event>
 6    1  0.4180481E-002  0.1303901E+03  0.7546771E-02  0.1226878E+00
         21   -1    0    0  503  502  0.00000000000E+00  0.00000000000E+00  0.21807063045E+03  0.21807063045E+03  0.00000000000E+00 0. -1.
         21   -1    0    0  504  503 -0.00000000000E+00 -0.00000000000E+00 -0.57641809963E+02  0.57641809963E+02  0.00000000000E+00 0. -1.
         25    2    1    2    0    0  0.36879050511E+02 -0.40264910313E+01  0.18849168718E+03  0.22919576078E+03  0.12500121450E+03 0.  0.
          5    1    3    3  501    0  0.28589521390E+02 -0.30952888166E+02  0.19564265441E+03  0.20012870919E+03  0.10000000000E+00 0. -1.
         -5    1    3    3    0  501  0.82895291215E+01  0.26926397135E+02 -0.71509672256E+01  0.29067051587E+02  0.10000000000E+00 0. -1.
         21    1    1    2  504  502 -0.36879050511E+02  0.40264910313E+01 -0.28062866697E+02  0.46516679631E+02  0.00000000000E+00 0. -1.
<mgrwt>
<rscale>  1 0.13039011E+03</rscale>
<asrwt>0</asrwt>
<pdfrwt beam="1">  1       21 0.33549327E-01 0.13039011E+03</pdfrwt>
<pdfrwt beam="2">  1       21 0.88679708E-02 0.13039011E+03</pdfrwt>
<totfact> 0.86032391E+05</totfact>
</mgrwt>
</event>
<event>
 6    1  0.4180481E-002  0.1499247E+03  0.7546771E-02  0.1200566E+00
         21   -1    0    0  504  502  0.00000000000E+00  0.00000000000E+00  0.10010489863E+03  0.10010489863E+03  0.00000000000E+00 0.  1.
         21   -1    0    0  502  503 -0.00000000000E+00 -0.00000000000E+00 -0.13834069980E+03  0.13834069980E+03  0.00000000000E+00 0.  1.
         25    2    1    2    0    0  0.66728157678E+02  0.49027288019E+02 -0.74661386093E+01  0.15011047443E+03  0.12498435626E+03 0.  0.
          5    1    3    3  501    0  0.78784381354E+02 -0.18606644648E+02 -0.85474371511E+01  0.81401809883E+02  0.10000000000E+00 0.  1.
         -5    1    3    3    0  501 -0.12056223677E+02  0.67633932667E+02  0.10812985417E+01  0.68708664547E+02  0.10000000000E+00 0.  1.
         21    1    1    2  504  503 -0.66728157678E+02 -0.49027288019E+02 -0.30769662562E+02  0.88335123998E+02  0.00000000000E+00 0.  1.
<mgrwt>
<rscale>  1 0.14992469E+03</rscale>
<asrwt>0</asrwt>
<pdfrwt beam="1">  1       21 0.15400754E-01 0.14992469E+03</pdfrwt>
<pdfrwt beam="2">  1       21 0.21283185E-01 0.14992469E+03</pdfrwt>
<totfact> 0.77082912E+05</totfact>
</mgrwt>
</event>
<event>
 6    1  0.4180481E-002  0.1266145E+03  0.7546771E-02  0.1232567E+00
         21   -1    0    0  504  502  0.00000000000E+00  0.00000000000E+00  0.81731779922E+03  0.81731779922E+03  0.00000000000E+00 0.  1.
         21   -1    0    0  502  503 -0.00000000000E+00 -0.00000000000E+00 -0.22143632865E+02  0.22143632865E+02  0.00000000000E+00 0.  1.
         25    2    1    2    0    0 -0.19360323461E+02  0.55943723618E+01  0.80647712282E+03  0.81635567628E+03  0.12500048571E+03 0.  0.
          5    1    3    3  501    0 -0.14601970546E+02 -0.50317714657E+02  0.60333731375E+03  0.60560797065E+03  0.10000000000E+00 0.  1.
         -5    1    3    3    0  501 -0.47583529145E+01  0.55912087019E+02  0.20313980908E+03  0.21074770563E+03  0.10000000000E+00 0.  1.
         21    1    1    2  504  503  0.19360323461E+02 -0.55943723618E+01 -0.11302956466E+02  0.23105755809E+02  0.00000000000E+00 0.  1.
<mgrwt>
<rscale>  1 0.12661454E+03</rscale>
<asrwt>0</asrwt>
<pdfrwt beam="1">  1       21 0.12574118E+00 0.12661454E+03</pdfrwt>
<pdfrwt beam="2">  1       21 0.34067134E-02 0.12661454E+03</pdfrwt>
<totfact> 0.24607155E+05</totfact>
</mgrwt>
</event>
<event>
 6    1  0.4180481E-002  0.1260354E+03  0.7546771E-02  0.1233460E+00
         21   -1    0    0  504  502  0.00000000000E+00  0.00000000000E+00  0.15363588113E+03  0.15363588113E+03  0.00000000000E+00 0.  1.
         21   -1    0    0  502  503 -0.00000000000E+00 -0.00000000000E+00 -0.70521967860E+02  0.70521967860E+02  0.00000000000E+00 0.  1.
         25    2    1    2    0    0 -0.16078731718E+02 -0.14080996187E+01  0.12607252543E+03  0.17826721033E+03  0.12499763299E+03 0.  0.
          5    1    3    3  501    0 -0.66361602422E+02  0.22542413676E+02  0.64601736509E+02  0.95317454069E+02  0.10000000000E+00 0.  1.
         -5    1    3    3    0  501  0.50282870704E+02 -0.23950513294E+02  0.61470788919E+02  0.82949756260E+02  0.10000000000E+00 0.  1.
         21    1    1    2  504  503  0.16078731718E+02  0.14080996187E+01 -0.42958612157E+02  0.45890638660E+02  0.00000000000E+00 0.  1.
<mgrwt>
<rscale>  1 0.12603538E+03</rscale>
<asrwt>0</asrwt>
<pdfrwt beam="1">  1       21 0.23636289E-01 0.12603538E+03</pdfrwt>
<pdfrwt beam="2">  1       21 0.10849534E-01 0.12603538E+03</pdfrwt>
<totfact> 0.11824910E+06</totfact>
</mgrwt>
</event>
<event>
 6    1  0.4180481E-002  0.1455870E+03  0.7546771E-02  0.1206003E+00
         21   -1    0    0  504  502  0.00000000000E+00  0.00000000000E+00  0.23147761643E+03  0.23147761643E+03  0.00000000000E+00 0.  1.
         21   -1    0    0  502  503 -0.00000000000E+00 -0.00000000000E+00 -0.62987561931E+02  0.62987561931E+02  0.00000000000E+00 0.  1.
         25    2    1    2    0    0 -0.72886346835E+02  0.16206581076E+02  0.16452897422E+03  0.21969377352E+03  0.12498199047E+03 0.  0.
          5    1    3    3  501    0 -0.47013420412E+02  0.36563697430E+02  0.84190960637E+01  0.60150285512E+02  0.10000000000E+00 0. -1.
         -5    1    3    3    0  501 -0.25872926423E+02 -0.20357116354E+02  0.15610987816E+03  0.15954348801E+03  0.10000000000E+00 0. -1.
         21    1    1    2  504  503  0.72886346835E+02 -0.16206581076E+02  0.39610802790E+01  0.74771404842E+02  0.00000000000E+00 0.  1.
<mgrwt>
<rscale>  1 0.14558699E+03</rscale>
<asrwt>0</asrwt>
<pdfrwt beam="1">  1       21 0.35611941E-01 0.14558699E+03</pdfrwt>
<pdfrwt beam="2">  1       21 0.96903942E-02 0.14558699E+03</pdfrwt>
<totfact> 0.65538613E+05</totfact>
</mgrwt>
</event>
<event>
 6    1  0.4180481E-002  0.1498167E+03  0.7546771E-02  0.1200698E+00
         21   -1    0    0  503  502  0.00000000000E+00  0.00000000000E+00  0.56113679701E+02  0.56113679701E+02  0.00000000000E+00 0.  1.
         21   -1    0    0  504  503 -0.00000000000E+00 -0.00000000000E+00 -0.25015381735E+03  0.25015381735E+03  0.00000000000E+00 0.  1.
         25    2    1    2    0    0 -0.82441119017E+02  0.47303419843E+01 -0.15269791765E+03  0.21391982033E+03  0.12500448487E+03 0.  0.
          5    1    3    3  501    0  0.14932137301E+02  0.48368998891E+01  0.13890891890E+02  0.20960229064E+02  0.10000000000E+00 0. -1.
         -5    1    3    3    0  501 -0.97373256317E+02 -0.10655790479E+00 -0.16658880954E+03  0.19295959127E+03  0.10000000000E+00 0. -1.
         21    1    1    2  504  502  0.82441119017E+02 -0.47303419843E+01 -0.41342219998E+02  0.92347676713E+02  0.00000000000E+00 0.  1.
<mgrwt>
<rscale>  1 0.14981667E+03</rscale>
<asrwt>0</asrwt>
<pdfrwt beam="1">  1       21 0.86328737E-02 0.14981667E+03</pdfrwt>
<pdfrwt beam="2">  1       21 0.38485203E-01 0.14981667E+03</pdfrwt>
<totfact> 0.68721921E+05</totfact>
</mgrwt>
</event>
<event>
 6    1  0.4180481E-002  0.1261166E+03  0.7546771E-02  0.1233334E+00
         21   -1    0    0  503  502  0.00000000000E+00  0.00000000000E+00  0.68694401598E+01  0.68694401598E+01  0.00000000000E+00 0.  1.
         21   -1    0    0  504  503 -0.00000000000E+00 -0.00000000000E+00 -0.74869460605E+03  0.74869460605E+03  0.00000000000E+00 0.  1.
         25    2    1    2    0    0 -0.71733408846E+01 -0.15139002596E+02 -0.67423417311E+03  0.68592793113E+03  0.12499904116E+03 0.  0.
          5    1    3    3  501    0 -0.48570516017E+02 -0.32254158308E+02 -0.56302286554E+03  0.56603372945E+03  0.10000000000E+00 0. -1.
         -5    1    3    3    0  501  0.41397175133E+02  0.17115155712E+02 -0.11121130758E+03  0.11989420168E+03  0.10000000000E+00 0. -1.
         21    1    1    2  504  502  0.71733408846E+01  0.15139002596E+02 -0.67590992781E+02  0.69636115085E+02  0.00000000000E+00 0. -1.
<mgrwt>
<rscale>  1 0.12611664E+03</rscale>
<asrwt>0</asrwt>
<pdfrwt beam="1">  1       21 0.10568366E-02 0.12611664E+03</pdfrwt>
<pdfrwt beam="2">  1       21 0.11518383E+00 0.12611664E+03</pdfrwt>
<totfact> 0.20081455E+06</totfact>
</mgrwt>
</event>
<event>
 6    1  0.4180481E-002  0.1262952E+03  0.7546771E-02  0.1233059E+00
         21   -1    0    0  503  502  0.00000000000E+00  0.00000000000E+00  0.36515355435E+03  0.36515355435E+03  0.00000000000E+00 0. -1.
         21   -1    0    0  504  503 -0.00000000000E+00 -0.00000000000E+00 -0.56752903632E+02  0.56752903632E+02  0.00000000000E+00 0. -1.
         25    2    1    2    0    0  0.15476559942E+02 -0.92832093576E+01  0.35240105533E+03  0.37434873002E+03  0.12499906395E+03 0.  0.
          5    1    3    3  501    0  0.62637333347E+01 -0.48572000404E+02  0.52699368143E+02  0.71942386541E+02  0.10000000000E+00 0.  1.
         -5    1    3    3    0  501  0.92128266075E+01  0.39288791046E+02  0.29970168718E+03  0.30240634348E+03  0.10000000000E+00 0.  1.
         21    1    1    2  504  502 -0.15476559942E+02  0.92832093576E+01 -0.44000404606E+02  0.47557727964E+02  0.00000000000E+00 0. -1.
<mgrwt>
<rscale>  1 0.12629516E+03</rscale>
<asrwt>0</asrwt>
<pdfrwt beam="1">  1       21 0.56177468E-01 0.12629516E+03</pdfrwt>
<pdfrwt beam="2">  1       21 0.87312162E-02 0.12629516E+03</pdfrwt>
<totfact> 0.31158083E+05</totfact>
</mgrwt>
</event>
<event>
 6    1  0.4180481E-002  0.1325845E+03  0.7546771E-02  0.1223670E+00
         21   -1    0    0  504  502  0.00000000000E+00  0.00000000000E+00  0.14562525179E+03  0.14562525179E+03  0.00000000000E+00 0. -1.
         21   -1    0    0  502  503 -0.00000000000E+00 -0.00000000000E+00 -0.53713202436E+02  0.53713202436E+02  0.00000000000E+00 0. -1.
         25    2    1    2    0    0  0.44189904602E+02 -0.19476440780E+01  0.66528062876E+02  0.14833955467E+03  0.12498839684E+03 0.  0.
          5    1    3    3  501    0 -0.34813078349E+02 -0.26558508891E+02  0.27643760808E+01  0.43874327274E+02  0.10000000000E+00 0.  1.
         -5    1    3    3    0  501  0.79002982951E+02  0.24610864813E+02  0.63763686796E+02  0.10446522740E+03  0.10000000000E+00 0.  1.
         21    1    1    2  504  503 -0.44189904602E+02  0.19476440780E+01  0.25383986483E+02  0.50998899557E+02  0.00000000000E+00 0. -1.
<mgrwt>
<rscale>  1 0.13258446E+03</rscale>
<asrwt>0</asrwt>
<pdfrwt beam="1">  1       21 0.22403885E-01 0.13258446E+03</pdfrwt>
<pdfrwt beam="2">  1       21 0.82635697E-02 0.13258446E+03</pdfrwt>
<totfact> 0.21036948E+06</totfact>
</mgrwt>
</event>
<event>
 6    1  0.4180481E-002  0.1311322E+03  0.7546771E-02  0.1225785E+00
         21   -1    0    0  504  502  0.00000000000E+00  0.00000000000E+00  0.89392802072E+02  0.89392802072E+02  0.00000000000E+00 0.  1.
         21   -1    0    0  502  503 -0.00000000000E+00 -0.00000000000E+00 -0.82915875413E+02  0.82915875413E+02  0.00000000000E+00 0.  1.
         25    2    1    2    0    0  0.36885255348E+02  0.14523092562E+02  0.14277112929E+02  0.13190712819E+03  0.12499684890E+03 0.  0.
          5    1    3    3  501    0 -0.30072406369E+02 -0.32623903375E+02 -0.11892701220E+02  0.45935988490E+02  0.10000000000E+00 0. -1.
         -5    1    3    3    0  501  0.66957661717E+02  0.47146995937E+02  0.26169814149E+02  0.85971139699E+02  0.10000000000E+00 0. -1.
         21    1    1    2  504  503 -0.36885255348E+02 -0.14523092562E+02 -0.78001862700E+01  0.40401549296E+02  0.00000000000E+00 0.  1.
<mgrwt>
<rscale>  1 0.13113220E+03</rscale>
<asrwt>0</asrwt>
<pdfrwt beam="1">  1       21 0.13752739E-01 0.13113220E+03</pdfrwt>
<pdfrwt beam="2">  1       21 0.12756288E-01 0.13113220E+03</pdfrwt>
<totfact> 0.23974291E+06</totfact>
</mgrwt>
</event>
<event>
 6    1  0.4180481E-002  0.1288616E+03  0.7546771E-02  0.1229155E+00
         21   -1    0    0  504  502  0.00000000000E+00  0.00000000000E+00  0.19477751605E+03  0.19477751605E+03  0.00000000000E+00 0. -1.
         21   -1    0    0  502  503 -0.00000000000E+00 -0.00000000000E+00 -0.35395170533E+02  0.35395170533E+02  0.00000000000E+00 0. -1.
         25    2    1    2    0    0 -0.24111991554E+02  0.19955491086E+02  0.14945445303E+03  0.19733714471E+03  0.12500282152E+03 0.  0.
          5    1    3    3  501    0  0.50451440368E+02  0.19786020089E+02  0.58986517890E+02  0.80101521327E+02  0.10000000000E+00 0.  1.
         -5    1    3    3    0  501 -0.74563431923E+02  0.16947099774E+00  0.90467935143E+02  0.11723562338E+03  0.10000000000E+00 0.  1.
         21    1    1    2  504  503  0.24111991554E+02 -0.19955491086E+02  0.99278924887E+01  0.32835541879E+02  0.00000000000E+00 0. -1.
<mgrwt>
<rscale>  1 0.12886161E+03</rscale>
<asrwt>0</asrwt>
<pdfrwt beam="1">  1       21 0.29965771E-01 0.12886161E+03</pdfrwt>
<pdfrwt beam="2">  1       21 0.54454110E-02 0.12886161E+03</pdfrwt>
<totfact> 0.24664464E+06</totfact>
</mgrwt>
</event>
<event>
 6    1  0.4180481E-002  0.1291296E+03  0.7546771E-02  0.1228753E+00
         21   -1    0    0  503  502  0.00000000000E+00  0.00000000000E+00  0.28855900038E+03  0.28855900038E+03  0.00000000000E+00 0.  1.
         21   -1    0    0  504  503 -0.00000000000E+00 -0.00000000000E+00 -0.22626523907E+02  0.22626523907E+02  0.00000000000E+00 0.  1.
         25    2    1    2    0    0  0.13063123059E+02  0.29646620263E+02  0.21641209378E+03  0.25200921501E+03  0.12499953136E+03 0.  0.
          5    1    3    3  501    0  0.29654919292E+02 -0.43078157187E+02  0.66843669304E+02  0.84871832729E+02  0.10000000000E+00 0.  1.
         -5    1    3    3    0  501 -0.16591796233E+02  0.72724777449E+02  0.14956842447E+03  0.16713738228E+03  0.10000000000E+00 0.  1.
         21    1    1    2  504  502 -0.13063123059E+02 -0.29646620263E+02  0.49520382701E+02  0.59176309279E+02  0.00000000000E+00 0. -1.
<mgrwt>
<rscale>  1 0.12912959E+03</rscale>
<asrwt>0</asrwt>
<pdfrwt beam="1">  1       21 0.44393690E-01 0.12912959E+03</pdfrwt>
<pdfrwt beam="2">  1       21 0.34810039E-02 0.12912959E+03</pdfrwt>
<totfact> 0.23932942E+06</totfact>
</mgrwt>
</event>
<event>
 6    1  0.4180481E-002  0.1269390E+03  0.7546771E-02  0.1232070E+00
         21   -1    0    0  503  502  0.00000000000E+00  0.00000000000E+00  0.39664478366E+01  0.39664478366E+01  0.00000000000E+00 0. -1.
         21   -1    0    0  504  503 -0.00000000000E+00 -0.00000000000E+00 -0.20771533345E+04  0.20771533345E+04  0.00000000000E+00 0. -1.
         25    2    1    2    0    0 -0.11795478918E+02 -0.18528983595E+02 -0.10426393336E+04  0.10503381781E+04  0.12502420486E+03 0.  0.
          5    1    3    3  501    0 -0.58186276245E+02  0.19126742392E+02 -0.36843556700E+03  0.37349197052E+03  0.10000000000E+00 0. -1.
         -5    1    3    3    0  501  0.46390797327E+02 -0.37655725986E+02 -0.67420376663E+03  0.67684620757E+03  0.10000000000E+00 0. -1.
         21    1    1    2  504  502  0.11795478918E+02  0.18528983595E+02 -0.10305475531E+04  0.10307816043E+04  0.00000000000E+00 0. -1.
<mgrwt>
<rscale>  1 0.12693899E+03</rscale>
<asrwt>0</asrwt>
<pdfrwt beam="1">  1       21 0.61022294E-03 0.12693899E+03</pdfrwt>
<pdfrwt beam="2">  1       21 0.31956195E+00 0.12693899E+03</pdfrwt>
<totfact> 0.22831569E+05</totfact>
</mgrwt>
</event>
<event>
 6    1  0.4180481E-002  0.1283675E+03  0.7546771E-02  0.1229898E+00
         21   -1    0    0  503  502  0.00000000000E+00  0.00000000000E+00  0.31992458052E+03  0.31992458052E+03  0.00000000000E+00 0.  1.
         21   -1    0    0  504  503 -0.00000000000E+00 -0.00000000000E+00 -0.56577066290E+03  0.56577066290E+03  0.00000000000E+00 0.  1.
         25    2    1    2    0    0  0.26542054151E+02  0.12258474642E+02  0.30664587006E+03  0.33243029030E+03  0.12499382962E+03 0.  0.
          5    1    3    3  501    0  0.39119789738E+02  0.13769413303E+02  0.20968126928E+02  0.46471787557E+02  0.10000000000E+00 0. -1.
         -5    1    3    3    0  501 -0.12577735587E+02 -0.15109386612E+01  0.28567774313E+03  0.28595850274E+03  0.10000000000E+00 0. -1.
         21    1    1    2  504  502 -0.26542054151E+02 -0.12258474642E+02 -0.55249195244E+03  0.55326495312E+03  0.00000000000E+00 0.  1.
<mgrwt>
<rscale>  1 0.12836747E+03</rscale>
<asrwt>0</asrwt>
<pdfrwt beam="1">  1       21 0.49219167E-01 0.12836747E+03</pdfrwt>
<pdfrwt beam="2">  1       21 0.87041639E-01 0.12836747E+03</pdfrwt>
<totfact> 0.47357463E+03</totfact>
</mgrwt>
</event>
<event>
 6    1  0.4180481E-002  0.1266566E+03  0.7546771E-02  0.1232503E+00
         21   -1    0    0  504  502  0.00000000000E+00  0.00000000000E+00  0.43429444020E+03  0.43429444020E+03  0.00000000000E+00 0. -1.
         21   -1    0    0  502  503 -0.00000000000E+00 -0.00000000000E+00 -0.12539507448E+02  0.12539507448E+02  0.00000000000E+00 0. -1.
         25    2    1    2    0    0 -0.69625281996E+01  0.19194974418E+02  0.34917345666E+03  0.37143504505E+03  0.12499986404E+03 0.  0.
          5    1    3    3  501    0  0.56655590223E+02  0.90084148456E+01  0.11435050353E+03  0.12793379186E+03  0.10000000000E+00 0. -1.
         -5    1    3    3    0  501 -0.63618118422E+02  0.10186559572E+02  0.23482295313E+03  0.24350125319E+03  0.10000000000E+00 0. -1.
         21    1    1    2  504  503  0.69625281996E+01 -0.19194974418E+02  0.72581476087E+02  0.75398902597E+02  0.00000000000E+00 0. -1.
<mgrwt>
<rscale>  1 0.12665658E+03</rscale>
<asrwt>0</asrwt>
<pdfrwt beam="1">  1       21 0.66814518E-01 0.12665658E+03</pdfrwt>
<pdfrwt beam="2">  1       21 0.19291553E-02 0.12665658E+03</pdfrwt>
<totfact> 0.26622177E+06</totfact>
</mgrwt>
</event>
<event>
 6    1  0.4180481E-002  0.1449029E+03  0.7546771E-02  0.1206880E+00
         21   -1    0    0  504  502  0.00000000000E+00  0.00000000000E+00  0.89175911756E+02  0.89175911756E+02  0.00000000000E+00 0.  1.
         21   -1    0    0  502  503 -0.00000000000E+00 -0.00000000000E+00 -0.21558864682E+03  0.21558864682E+03  0.00000000000E+00 0.  1.
         25    2    1    2    0    0  0.66269178115E+02  0.31301980479E+02  0.14808969531E+02  0.14565771460E+03  0.12500178517E+03 0.  0.
          5    1    3    3  501    0  0.69984970348E+02  0.10347561482E+02  0.61885982308E+02  0.93993898257E+02  0.10000000000E+00 0. -1.
         -5    1    3    3    0  501 -0.37157922325E+01  0.20954418997E+02 -0.47077012777E+02  0.51663816346E+02  0.10000000000E+00 0. -1.
         21    1    1    2  504  503 -0.66269178115E+02 -0.31301980479E+02 -0.14122170460E+03  0.15910684397E+03  0.00000000000E+00 0.  1.
<mgrwt>
<rscale>  1 0.14490295E+03</rscale>
<asrwt>0</asrwt>
<pdfrwt beam="1">  1       21 0.13719371E-01 0.14490295E+03</pdfrwt>
<pdfrwt beam="2">  1       21 0.33167484E-01 0.14490295E+03</pdfrwt>
<totfact> 0.40704675E+05</totfact>
</mgrwt>
</event>
<event>
 6    1  0.4180481E-002  0.1272686E+03  0.7546771E-02  0.1231566E+00
         21   -1    0    0  503  502  0.00000000000E+00  0.00000000000E+00  0.50065703365E+02  0.50065703365E+02  0.00000000000E+00 0. -1.
         21   -1    0    0  504  503 -0.00000000000E+00 -0.00000000000E+00 -0.11595454363E+03  0.11595454363E+03  0.00000000000E+00 0. -1.
         25    2    1    2    0    0  0.12493230761E+02 -0.20611813080E+02 -0.48061245265E+02  0.13604107428E+03  0.12496544699E+03 0.  0.
          5    1    3    3  501    0  0.43995569877E+02  0.39523911838E+02 -0.18223706093E+02  0.61885888856E+02  0.10000000000E+00 0.  1.
         -5    1    3    3    0  501 -0.31502339116E+02 -0.60135724918E+02 -0.29837539172E+02  0.74155185422E+02  0.10000000000E+00 0.  1.
         21    1    1    2  504  502 -0.12493230761E+02  0.20611813080E+02 -0.17827595001E+02  0.29979172717E+02  0.00000000000E+00 0. -1.
<mgrwt>
<rscale>  1 0.12726858E+03</rscale>
<asrwt>0</asrwt>
<pdfrwt beam="1">  1       21 0.77024159E-02 0.12726858E+03</pdfrwt>
<pdfrwt beam="2">  1       21 0.17839161E-01 0.12726858E+03</pdfrwt>
<totfact> 0.36138237E+06</totfact>
</mgrwt>
</event>
<event>
 6    1  0.4180481E-002  0.1263445E+03  0.7546771E-02  0.1232983E+00
         21   -1    0    0  504  502  0.00000000000E+00  0.00000000000E+00  0.35125806325E+02  0.35125806325E+02  0.00000000000E+00 0. -1.
         21   -1    0    0  502  503 -0.00000000000E+00 -0.00000000000E+00 -0.14972089946E+03  0.14972089946E+03  0.00000000000E+00 0. -1.
         25    2    1    2    0    0 -0.87189610263E+01  0.16200928621E+02 -0.95911328597E+02  0.15862508442E+03  0.12499777632E+03 0.  0.
          5    1    3    3  501    0 -0.38383995647E+02  0.10599771355E+01  0.16196260606E+02  0.41674734924E+02  0.10000000000E+00 0.  1.
         -5    1    3    3    0  501  0.29665034621E+02  0.15140951485E+02 -0.11210758920E+03  0.11695034950E+03  0.10000000000E+00 0.  1.
         21    1    1    2  504  503  0.87189610263E+01 -0.16200928621E+02 -0.18683764534E+02  0.26221621359E+02  0.00000000000E+00 0. -1.
<mgrwt>
<rscale>  1 0.12634451E+03</rscale>
<asrwt>0</asrwt>
<pdfrwt beam="1">  1       21 0.54039702E-02 0.12634451E+03</pdfrwt>
<pdfrwt beam="2">  1       21 0.23033984E-01 0.12634451E+03</pdfrwt>
<totfact> 0.41153076E+06</totfact>
</mgrwt>
</event>
<event>
 6    1  0.4180481E-002  0.1277688E+03  0.7546771E-02  0.1230805E+00
         21   -1    0    0  503  502  0.00000000000E+00  0.00000000000E+00  0.44503509462E+02  0.44503509462E+02  0.00000000000E+00 0. -1.
         21   -1    0    0  504  503 -0.00000000000E+00 -0.00000000000E+00 -0.19852250665E+03  0.19852250665E+03  0.00000000000E+00 0. -1.
         25    2    1    2    0    0 -0.25469262397E+02  0.68386892244E+01 -0.52494366217E+02  0.13813225228E+03  0.12501763731E+03 0.  0.
          5    1    3    3  501    0 -0.56638992165E+02  0.25635957312E+02  0.12709713254E+02  0.63456477619E+02  0.10000000000E+00 0. -1.
         -5    1    3    3    0  501  0.31169729768E+02 -0.18797268087E+02 -0.65204079471E+02  0.74675774660E+02  0.10000000000E+00 0. -1.
         21    1    1    2  504  502  0.25469262397E+02 -0.68386892244E+01 -0.10152463097E+03  0.10489376383E+03  0.00000000000E+00 0. -1.
<mgrwt>
<rscale>  1 0.12776878E+03</rscale>
<asrwt>0</asrwt>
<pdfrwt beam="1">  1       21 0.68466936E-02 0.12776878E+03</pdfrwt>
<pdfrwt beam="2">  1       21 0.30541925E-01 0.12776878E+03</pdfrwt>
<totfact> 0.16114415E+06</totfact>
</mgrwt>
</event>
<event>
 6    1  0.4180481E-002  0.1266276E+03  0.7546771E-02  0.1232547E+00
         21   -1    0    0  504  502  0.00000000000E+00  0.00000000000E+00  0.69397538123E+03  0.69397538123E+03  0.00000000000E+00 0.  1.
         21   -1    0    0  502  503 -0.00000000000E+00 -0.00000000000E+00 -0.77849287812E+01  0.77849287812E+01  0.00000000000E+00 0.  1.
         25    2    1    2    0    0  0.19657532674E+02  0.47878593258E+01  0.58044467844E+03  0.59409643070E+03  0.12500080821E+03 0.  0.
          5    1    3    3  501    0  0.28015198391E+02  0.51771585378E+02  0.47147270928E+03  0.47513332233E+03  0.10000000000E+00 0.  1.
         -5    1    3    3    0  501 -0.83576657175E+01 -0.46983726052E+02  0.10897196916E+03  0.11896310836E+03  0.10000000000E+00 0.  1.
         21    1    1    2  504  503 -0.19657532674E+02 -0.47878593258E+01  0.10574577401E+03  0.10766387931E+03  0.00000000000E+00 0.  1.
<mgrwt>
<rscale>  1 0.12662758E+03</rscale>
<asrwt>0</asrwt>
<pdfrwt beam="1">  1       21 0.10676539E+00 0.12662758E+03</pdfrwt>
<pdfrwt beam="2">  1       21 0.11976819E-02 0.12662758E+03</pdfrwt>
<totfact> 0.19755364E+06</totfact>
</mgrwt>
</event>
<event>
 6    1  0.4180481E-002  0.1265808E+03  0.7546771E-02  0.1232619E+00
         21   -1    0    0  503  502  0.00000000000E+00  0.00000000000E+00  0.11183119506E+02  0.11183119506E+02  0.00000000000E+00 0.  1.
         21   -1    0    0  504  503 -0.00000000000E+00 -0.00000000000E+00 -0.50569821004E+03  0.50569821004E+03  0.00000000000E+00 0.  1.
         25    2    1    2    0    0  0.19112990924E+02  0.57156965283E+01 -0.37694614508E+03  0.39763187443E+03  0.12499894267E+03 0.  0.
          5    1    3    3  501    0  0.25393179627E+02 -0.57586591070E+02 -0.18307132139E+03  0.19358757129E+03  0.10000000000E+00 0.  1.
         -5    1    3    3    0  501 -0.62801887031E+01  0.63302287598E+02 -0.19387482368E+03  0.20404430314E+03  0.10000000000E+00 0.  1.
         21    1    1    2  504  502 -0.19112990924E+02 -0.57156965283E+01 -0.11756894546E+03  0.11924945511E+03  0.00000000000E+00 0.  1.
<mgrwt>
<rscale>  1 0.12658085E+03</rscale>
<asrwt>0</asrwt>
<pdfrwt beam="1">  1       21 0.17204804E-02 0.12658085E+03</pdfrwt>
<pdfrwt beam="2">  1       21 0.77799704E-01 0.12658085E+03</pdfrwt>
<totfact> 0.22925210E+06</totfact>
</mgrwt>
</event>
<event>
 6    1  0.4180481E-002  0.1299839E+03  0.7546771E-02  0.1227480E+00
         21   -1    0    0  503  502  0.00000000000E+00  0.00000000000E+00  0.31100224966E+02  0.31100224966E+02  0.00000000000E+00 0. -1.
         21   -1    0    0  504  503 -0.00000000000E+00 -0.00000000000E+00 -0.98948730476E+03  0.98948730476E+03  0.00000000000E+00 0. -1.
         25    2    1    2    0    0 -0.28605341783E+02  0.21369730011E+02 -0.10674493613E+03  0.16819720141E+03  0.12498354385E+03 0.  0.
          5    1    3    3  501    0 -0.15598076455E+02  0.73513025121E+02 -0.72823428933E+02  0.10464571971E+03  0.10000000000E+00 0. -1.
         -5    1    3    3    0  501 -0.13007265328E+02 -0.52143295110E+02 -0.33921507198E+02  0.63551481704E+02  0.10000000000E+00 0. -1.
         21    1    1    2  504  502  0.28605341783E+02 -0.21369730011E+02 -0.85164214367E+03  0.85239032832E+03  0.00000000000E+00 0. -1.
<mgrwt>
<rscale>  1 0.12998391E+03</rscale>
<asrwt>0</asrwt>
<pdfrwt beam="1">  1       21 0.47846500E-02 0.12998391E+03</pdfrwt>
<pdfrwt beam="2">  1       21 0.15222882E+00 0.12998391E+03</pdfrwt>
<totfact> 0.86116014E+04</totfact>
</mgrwt>
</event>
<event>
 6    1  0.4180481E-002  0.1262280E+03  0.7546771E-02  0.1233163E+00
         21   -1    0    0  504  502  0.00000000000E+00  0.00000000000E+00  0.79543124562E+01  0.79543124562E+01  0.00000000000E+00 0.  1.
         21   -1    0    0  502  503 -0.00000000000E+00 -0.00000000000E+00 -0.66665024519E+03  0.66665024519E+03  0.00000000000E+00 0.  1.
         25    2    1    2    0    0  0.10939847646E+02 -0.13637568164E+02 -0.53561075191E+03  0.55028390261E+03  0.12501132897E+03 0.  0.
          5    1    3    3  501    0  0.98891962740E+01  0.36199363192E+02 -0.52084654532E+02  0.64195103677E+02  0.10000000000E+00 0. -1.
         -5    1    3    3    0  501  0.10506513723E+01 -0.49836931356E+02 -0.48352609738E+03  0.48608879893E+03  0.10000000000E+00 0. -1.
         21    1    1    2  504  503 -0.10939847646E+02  0.13637568164E+02 -0.12308518083E+03  0.12432065504E+03  0.00000000000E+00 0.  1.
<mgrwt>
<rscale>  1 0.12622795E+03</rscale>
<asrwt>0</asrwt>
<pdfrwt beam="1">  1       21 0.12237395E-02 0.12622795E+03</pdfrwt>
<pdfrwt beam="2">  1       21 0.10256165E+00 0.12622795E+03</pdfrwt>
<totfact> 0.20996495E+06</totfact>
</mgrwt>
</event>
<event>
 6    1  0.4180481E-002  0.1852124E+03  0.7546771E-02  0.1162852E+00
         21   -1    0    0  503  502  0.00000000000E+00  0.00000000000E+00  0.24985227274E+03  0.24985227274E+03  0.00000000000E+00 0. -1.
         21   -1    0    0  504  503 -0.00000000000E+00 -0.00000000000E+00 -0.11590921794E+03  0.11590921794E+03  0.00000000000E+00 0. -1.
         25    2    1    2    0    0  0.10259305481E+03 -0.90291570073E+02  0.13483055902E+03  0.22909148597E+03  0.12500290707E+03 0.  0.
          5    1    3    3  501    0  0.21825463476E+02 -0.86550998800E+02  0.24974434998E+02  0.92688503347E+02  0.10000000000E+00 0.  1.
         -5    1    3    3    0  501  0.80767591338E+02 -0.37405712737E+01  0.10985612402E+03  0.13640298263E+03  0.10000000000E+00 0.  1.
         21    1    1    2  504  502 -0.10259305481E+03  0.90291570073E+02 -0.88750422394E+00  0.13667000471E+03  0.00000000000E+00 0. -1.
<mgrwt>
<rscale>  1 0.18521239E+03</rscale>
<asrwt>0</asrwt>
<pdfrwt beam="1">  1       21 0.38438811E-01 0.18521239E+03</pdfrwt>
<pdfrwt beam="2">  1       21 0.17832187E-01 0.18521239E+03</pdfrwt>
<totfact> 0.18684026E+05</totfact>
</mgrwt>
</event>
<event>
 6    1  0.4180481E-002  0.1260807E+03  0.7546771E-02  0.1233390E+00
         21   -1    0    0  503  502  0.00000000000E+00  0.00000000000E+00  0.54561827142E+03  0.54561827142E+03  0.00000000000E+00 0. -1.
         21   -1    0    0  504  503 -0.00000000000E+00 -0.00000000000E+00 -0.20039225639E+03  0.20039225639E+03  0.00000000000E+00 0. -1.
         25    2    1    2    0    0 -0.64475049790E+01  0.15018723344E+02  0.53798417244E+03  0.55256069034E+03  0.12501685621E+03 0.  0.
          5    1    3    3  501    0 -0.19075702800E+02  0.64934227467E+02  0.21215117355E+03  0.22268468015E+03  0.10000000000E+00 0. -1.
         -5    1    3    3    0  501  0.12628197821E+02 -0.49915504123E+02  0.32583299889E+03  0.32987601019E+03  0.10000000000E+00 0. -1.
         21    1    1    2  504  502  0.64475049790E+01 -0.15018723344E+02 -0.19275815741E+03  0.19344983747E+03  0.00000000000E+00 0. -1.
<mgrwt>
<rscale>  1 0.12608072E+03</rscale>
<asrwt>0</asrwt>
<pdfrwt beam="1">  1       21 0.83941272E-01 0.12608072E+03</pdfrwt>
<pdfrwt beam="2">  1       21 0.30829578E-01 0.12608072E+03</pdfrwt>
<totfact> 0.13086769E+04</totfact>
</mgrwt>
</event>
<event>
 6    1  0.4180481E-002  0.1919377E+03  0.7546771E-02  0.1156725E+00
         21   -1    0    0  504  502  0.00000000000E+00  0.00000000000E+00  0.72073620957E+02  0.72073620957E+02  0.00000000000E+00 0.  1.
         21   -1    0    0  502  503 -0.00000000000E+00 -0.00000000000E+00 -0.41158908235E+03  0.41158908235E+03  0.00000000000E+00 0.  1.
         25    2    1    2    0    0  0.13584925301E+03 -0.52539712854E+02 -0.23975269664E+03  0.30711794920E+03  0.12499855281E+03 0.  0.
          5    1    3    3  501    0  0.63544034466E+02  0.31223364697E+02 -0.14530820532E+03  0.16163918879E+03  0.10000000000E+00 0.  1.
         -5    1    3    3    0  501  0.72305218547E+02 -0.83763077551E+02 -0.94444491321E+02  0.14547876041E+03  0.10000000000E+00 0.  1.
         21    1    1    2  504  503 -0.13584925301E+03  0.52539712854E+02 -0.99762764749E+02  0.17654475410E+03  0.00000000000E+00 0.  1.
<mgrwt>
<rscale>  1 0.19193770E+03</rscale>
<asrwt>0</asrwt>
<pdfrwt beam="1">  1       21 0.11088249E-01 0.19193770E+03</pdfrwt>
<pdfrwt beam="2">  1       21 0.63321397E-01 0.19193770E+03</pdfrwt>
<totfact> 0.15591320E+05</totfact>
</mgrwt>
</event>
<event>
 6    1  0.4180481E-002  0.1271209E+03  0.7546771E-02  0.1231791E+00
         21   -1    0    0  503  502  0.00000000000E+00  0.00000000000E+00  0.18774719754E+02  0.18774719754E+02  0.00000000000E+00 0. -1.
         21   -1    0    0  504  503 -0.00000000000E+00 -0.00000000000E+00 -0.34903265666E+03  0.34903265666E+03  0.00000000000E+00 0. -1.
         25    2    1    2    0    0  0.22974350499E+02  0.17689130565E+01 -0.21092673025E+03  0.24627183957E+03  0.12501513347E+03 0.  0.
          5    1    3    3  501    0  0.14128514936E+02  0.50687526056E+02 -0.18044022149E+03  0.18795617511E+03  0.10000000000E+00 0.  1.
         -5    1    3    3    0  501  0.88458355622E+01 -0.48918613000E+02 -0.30486508761E+02  0.58315664457E+02  0.10000000000E+00 0.  1.
         21    1    1    2  504  502 -0.22974350499E+02 -0.17689130565E+01 -0.11933120665E+03  0.12153553684E+03  0.00000000000E+00 0. -1.
<mgrwt>
<rscale>  1 0.12712094E+03</rscale>
<asrwt>0</asrwt>
<pdfrwt beam="1">  1       21 0.28884184E-02 0.12712094E+03</pdfrwt>
<pdfrwt beam="2">  1       21 0.53697332E-01 0.12712094E+03</pdfrwt>
<totfact> 0.21986818E+06</totfact>
</mgrwt>
</event>
<event>
 6    1  0.4180481E-002  0.1310225E+03  0.7546771E-02  0.1225946E+00
         21   -1    0    0  503  502  0.00000000000E+00  0.00000000000E+00  0.31718600139E+03  0.31718600139E+03  0.00000000000E+00 0. -1.
         21   -1    0    0  504  503 -0.00000000000E+00 -0.00000000000E+00 -0.69385410906E+02  0.69385410906E+02  0.00000000000E+00 0. -1.
         25    2    1    2    0    0  0.24338916291E+02 -0.30812054003E+02  0.29641440506E+03  0.32408086513E+03  0.12500056837E+03 0.  0.
          5    1    3    3  501    0 -0.47974343867E+02 -0.26214378096E+02  0.89834582627E+02  0.10516174934E+03  0.10000000000E+00 0. -1.
         -5    1    3    3    0  501  0.72313260158E+02 -0.45976759075E+01  0.20657982244E+03  0.21891911579E+03  0.10000000000E+00 0. -1.
         21    1    1    2  504  502 -0.24338916291E+02  0.30812054003E+02 -0.48613814578E+02  0.62490547173E+02  0.00000000000E+00 0. -1.
<mgrwt>
<rscale>  1 0.13102255E+03</rscale>
<asrwt>0</asrwt>
<pdfrwt beam="1">  1       21 0.48797846E-01 0.13102255E+03</pdfrwt>
<pdfrwt beam="2">  1       21 0.10674679E-01 0.13102255E+03</pdfrwt>
<totfact> 0.29371376E+05</totfact>
</mgrwt>
</event>
<event>
 6    1  0.4180481E-002  0.1260759E+03  0.7546771E-02  0.1233397E+00
         21   -1    0    0  504  502  0.00000000000E+00  0.00000000000E+00  0.24582369118E+01  0.24582369118E+01  0.00000000000E+00 0.  1.
         21   -1    0    0  502  503 -0.00000000000E+00 -0.00000000000E+00 -0.24344762609E+04  0.24344762609E+04  0.00000000000E+00 0.  1.
         25    2    1    2    0    0  0.14730413206E+02 -0.72989744662E+01 -0.16750476928E+04  0.16797856733E+04  0.12499950039E+03 0.  0.
          5    1    3    3  501    0 -0.46662846443E+02  0.10187555235E+02 -0.11306167499E+04  0.11316251378E+04  0.10000000000E+00 0.  1.
         -5    1    3    3    0  501  0.61393259649E+02 -0.17486529702E+02 -0.54443094288E+03  0.54816053544E+03  0.10000000000E+00 0.  1.
         21    1    1    2  504  503 -0.14730413206E+02  0.72989744662E+01 -0.75697033125E+03  0.75714882454E+03  0.00000000000E+00 0.  1.
<mgrwt>
<rscale>  1 0.12607591E+03</rscale>
<asrwt>0</asrwt>
<pdfrwt beam="1">  1       21 0.37818931E-03 0.12607591E+03</pdfrwt>
<pdfrwt beam="2">  1       21 0.37453579E+00 0.12607591E+03</pdfrwt>
<totfact> 0.23061285E+05</totfact>
</mgrwt>
</event>
<event>
 6    1  0.4180481E-002  0.1290957E+03  0.7546771E-02  0.1228804E+00
         21   -1    0    0  503  502  0.00000000000E+00  0.00000000000E+00  0.82819370560E+02  0.82819370560E+02  0.00000000000E+00 0.  1.
         21   -1    0    0  504  503 -0.00000000000E+00 -0.00000000000E+00 -0.96805686076E+02  0.96805686076E+02  0.00000000000E+00 0.  1.
         25    2    1    2    0    0  0.99311493713E+01 -0.30717786942E+02  0.22353315890E+02  0.13101663171E+03  0.12499390742E+03 0.  0.
          5    1    3    3  501    0  0.46543346809E+02  0.14377581743E+02  0.47208676049E+02  0.67835588619E+02  0.10000000000E+00 0. -1.
         -5    1    3    3    0  501 -0.36612197438E+02 -0.45095368685E+02 -0.24855360159E+02  0.63181043096E+02  0.10000000000E+00 0. -1.
         21    1    1    2  504  502 -0.99311493713E+01  0.30717786942E+02 -0.36339631407E+02  0.48608424920E+02  0.00000000000E+00 0.  1.
<mgrwt>
<rscale>  1 0.12909565E+03</rscale>
<asrwt>0</asrwt>
<pdfrwt beam="1">  1       21 0.12741442E-01 0.12909565E+03</pdfrwt>
<pdfrwt beam="2">  1       21 0.14893183E-01 0.12909565E+03</pdfrwt>
<totfact> 0.20810131E+06</totfact>
</mgrwt>
</event>
<event>
 6    1  0.4180481E-002  0.1293364E+03  0.7546771E-02  0.1228444E+00
         21   -1    0    0  504  502  0.00000000000E+00  0.00000000000E+00  0.54452736255E+01  0.54452736255E+01  0.00000000000E+00 0. -1.
         21   -1    0    0  502  503 -0.00000000000E+00 -0.00000000000E+00 -0.12528978542E+04  0.12528978542E+04  0.00000000000E+00 0. -1.
         25    2    1    2    0    0  0.45829147084E+01 -0.32909531029E+02 -0.10718039180E+04  0.10795793368E+04  0.12499546125E+03 0.  0.
          5    1    3    3  501    0  0.50825638041E+02  0.12315533928E+01 -0.80741980231E+03  0.80901885600E+03  0.10000000000E+00 0.  1.
         -5    1    3    3    0  501 -0.46242723333E+02 -0.34141084422E+02 -0.26438411572E+03  0.27056048077E+03  0.10000000000E+00 0.  1.
         21    1    1    2  504  503 -0.45829147084E+01  0.32909531029E+02 -0.17564866256E+03  0.17876379108E+03  0.00000000000E+00 0. -1.
<mgrwt>
<rscale>  1 0.12933641E+03</rscale>
<asrwt>0</asrwt>
<pdfrwt beam="1">  1       21 0.83773362E-03 0.12933641E+03</pdfrwt>
<pdfrwt beam="2">  1       21 0.19275370E+00 0.12933641E+03</pdfrwt>
<totfact> 0.75831079E+05</totfact>
</mgrwt>
</event>
<event>
 6    1  0.4180481E-002  0.1393617E+03  0.7546771E-02  0.1214190E+00
         21   -1    0    0  503  502  0.00000000000E+00  0.00000000000E+00  0.78067325984E+02  0.78067325984E+02  0.00000000000E+00 0.  1.
         21   -1    0    0  504  503 -0.00000000000E+00 -0.00000000000E+00 -0.13930862412E+03  0.13930862412E+03  0.00000000000E+00 0.  1.
         25    2    1    2    0    0  0.60571016494E+02  0.11384366125E+02 -0.14678584814E+02  0.14013258079E+03  0.12499290986E+03 0.  0.
          5    1    3    3  501    0  0.83293449016E+02 -0.31169482445E+02  0.23756549598E+01  0.88966224048E+02  0.10000000000E+00 0.  1.
         -5    1    3    3    0  501 -0.22722432522E+02  0.42553848570E+02 -0.17054239774E+02  0.51166356740E+02  0.10000000000E+00 0.  1.
         21    1    1    2  504  502 -0.60571016494E+02 -0.11384366125E+02 -0.46562713322E+02  0.77243369315E+02  0.00000000000E+00 0.  1.
<mgrwt>
<rscale>  1 0.13936169E+03</rscale>
<asrwt>0</asrwt>
<pdfrwt beam="1">  1       21 0.12010358E-01 0.13936169E+03</pdfrwt>
<pdfrwt beam="2">  1       21 0.21432096E-01 0.13936169E+03</pdfrwt>
<totfact> 0.11882492E+06</totfact>
</mgrwt>
</event>
<event>
 6    1  0.4180481E-002  0.1343740E+03  0.7546771E-02  0.1221106E+00
         21   -1    0    0  503  502  0.00000000000E+00  0.00000000000E+00  0.31801693083E+03  0.31801693083E+03  0.00000000000E+00 0. -1.
         21   -1    0    0  504  503 -0.00000000000E+00 -0.00000000000E+00 -0.29504774268E+02  0.29504774268E+02  0.00000000000E+00 0. -1.
         25    2    1    2    0    0 -0.36766394611E+02  0.32922818960E+02  0.25382232753E+03  0.28719704995E+03  0.12498276587E+03 0.  0.
          5    1    3    3  501    0  0.23339044338E+02  0.30758957710E+02  0.20808619744E+03  0.21163813464E+03  0.10000000000E+00 0.  1.
         -5    1    3    3    0  501 -0.60105438948E+02  0.21638612504E+01  0.45736130097E+02  0.75558915311E+02  0.10000000000E+00 0.  1.
         21    1    1    2  504  502  0.36766394611E+02 -0.32922818960E+02  0.34689829034E+02  0.60324655153E+02  0.00000000000E+00 0. -1.
<mgrwt>
<rscale>  1 0.13437400E+03</rscale>
<asrwt>0</asrwt>
<pdfrwt beam="1">  1       21 0.48925679E-01 0.13437400E+03</pdfrwt>
<pdfrwt beam="2">  1       21 0.45391963E-02 0.13437400E+03</pdfrwt>
<totfact> 0.12633615E+06</totfact>
</mgrwt>
</event>
<event>
 6    1  0.4180481E-002  0.1330193E+03  0.7546771E-02  0.1223043E+00
         21   -1    0    0  504  502  0.00000000000E+00  0.00000000000E+00  0.24179737795E+03  0.24179737795E+03  0.00000000000E+00 0.  1.
         21   -1    0    0  502  503 -0.00000000000E+00 -0.00000000000E+00 -0.86338284780E+02  0.86338284780E+02  0.00000000000E+00 0. -1.
         25    2    1    2    0    0  0.11827522511E+02  0.43906693716E+02  0.21523980011E+03  0.25302626943E+03  0.12500573358E+03 0.  0.
          5    1    3    3  501    0  0.59924517996E+02 -0.96026150912E+01  0.88993599998E+02  0.10771735661E+03  0.10000000000E+00 0.  1.
         -5    1    3    3    0  501 -0.48096995484E+02  0.53509308807E+02  0.12624620011E+03  0.14530891282E+03  0.10000000000E+00 0.  1.
         21    1    1    2  504  503 -0.11827522511E+02 -0.43906693716E+02 -0.59780706931E+02  0.75109393307E+02  0.00000000000E+00 0. -1.
<mgrwt>
<rscale>  1 0.13301925E+03</rscale>
<asrwt>0</asrwt>
<pdfrwt beam="1">  1       21 0.37199596E-01 0.13301925E+03</pdfrwt>
<pdfrwt beam="2">  1       21 0.13282813E-01 0.13301925E+03</pdfrwt>
<totfact> 0.34469361E+05</totfact>
</mgrwt>
</event>
<event>
 6    1  0.4180481E-002  0.1274387E+03  0.7546771E-02  0.1231306E+00
         21   -1    0    0  503  502  0.00000000000E+00  0.00000000000E+00  0.13027821641E+03  0.13027821641E+03  0.00000000000E+00 0.  1.
         21   -1    0    0  504  503 -0.00000000000E+00 -0.00000000000E+00 -0.45591458348E+02  0.45591458348E+02  0.00000000000E+00 0.  1.
         25    2    1    2    0    0 -0.19830649819E+02  0.14923429131E+02  0.80406903487E+02  0.15068474743E+03  0.12499863827E+03 0.  0.
          5    1    3    3  501    0 -0.38073886172E+02 -0.42281120563E+02  0.69228654779E+02  0.89609880073E+02  0.10000000000E+00 0.  1.
         -5    1    3    3    0  501  0.18243236353E+02  0.57204549694E+02  0.11178248708E+02  0.61074867356E+02  0.10000000000E+00 0.  1.
         21    1    1    2  504  502  0.19830649819E+02 -0.14923429131E+02  0.42798545713E+01  0.25184927326E+02  0.00000000000E+00 0. -1.
<mgrwt>
<rscale>  1 0.12743870E+03</rscale>
<asrwt>0</asrwt>
<pdfrwt beam="1">  1       21 0.20042802E-01 0.12743870E+03</pdfrwt>
<pdfrwt beam="2">  1       21 0.70140706E-02 0.12743870E+03</pdfrwt>
<totfact> 0.34254504E+06</totfact>
</mgrwt>
</event>
<event>
 6    1  0.4180481E-002  0.1477806E+03  0.7546771E-02  0.1203227E+00
         21   -1    0    0  503  502  0.00000000000E+00  0.00000000000E+00  0.62225394542E+02  0.62225394542E+02  0.00000000000E+00 0. -1.
         21   -1    0    0  504  503 -0.00000000000E+00 -0.00000000000E+00 -0.44150693656E+03  0.44150693656E+03  0.00000000000E+00 0. -1.
         25    2    1    2    0    0  0.76190243647E+02 -0.20483375854E+02 -0.36817369467E+02  0.15229779752E+03  0.12495830713E+03 0.  0.
          5    1    3    3  501    0  0.78279536814E+02 -0.65710316176E+02 -0.20996347417E+02  0.10433785574E+03  0.10000000000E+00 0. -1.
         -5    1    3    3    0  501 -0.20892931669E+01  0.45226940322E+02 -0.15821022050E+02  0.47959941780E+02  0.10000000000E+00 0. -1.
         21    1    1    2  504  502 -0.76190243647E+02  0.20483375854E+02 -0.34246417255E+03  0.35143453358E+03  0.00000000000E+00 0. -1.
<mgrwt>
<rscale>  1 0.14778058E+03</rscale>
<asrwt>0</asrwt>
<pdfrwt beam="1">  1       21 0.95731376E-02 0.14778058E+03</pdfrwt>
<pdfrwt beam="2">  1       21 0.67924144E-01 0.14778058E+03</pdfrwt>
<totfact> 0.17595705E+05</totfact>
</mgrwt>
</event>
<event>
 6    1  0.4180481E-002  0.1354919E+03  0.7546771E-02  0.1219527E+00
         21   -1    0    0  504  502  0.00000000000E+00  0.00000000000E+00  0.45016772229E+03  0.45016772229E+03  0.00000000000E+00 0.  1.
         21   -1    0    0  502  503 -0.00000000000E+00 -0.00000000000E+00 -0.19974853692E+02  0.19974853692E+02  0.00000000000E+00 0.  1.
         25    2    1    2    0    0 -0.15015991070E+02 -0.50082340892E+02  0.33816918825E+03  0.36430270352E+03  0.12499735619E+03 0.  0.
          5    1    3    3  501    0 -0.52639866083E+02  0.81816882571E+01  0.22783746700E+03  0.23398251408E+03  0.10000000000E+00 0.  1.
         -5    1    3    3    0  501  0.37623875013E+02 -0.58264029149E+02  0.11033172125E+03  0.13032018945E+03  0.10000000000E+00 0.  1.
         21    1    1    2  504  503  0.15015991070E+02  0.50082340892E+02  0.92023680345E+02  0.10583987246E+03  0.00000000000E+00 0.  1.
<mgrwt>
<rscale>  1 0.13549192E+03</rscale>
<asrwt>0</asrwt>
<pdfrwt beam="1">  1       21 0.69256565E-01 0.13549192E+03</pdfrwt>
<pdfrwt beam="2">  1       21 0.30730548E-02 0.13549192E+03</pdfrwt>
<totfact> 0.11560040E+06</totfact>
</mgrwt>
</event>
<event>
 6    1  0.4180481E-002  0.1261111E+03  0.7546771E-02  0.1233343E+00
         21   -1    0    0  503  502  0.00000000000E+00  0.00000000000E+00  0.94928114805E+02  0.94928114805E+02  0.00000000000E+00 0. -1.
         21   -1    0    0  504  503 -0.00000000000E+00 -0.00000000000E+00 -0.53940506707E+02  0.53940506707E+02  0.00000000000E+00 0. -1.
         25    2    1    2    0    0 -0.10242936965E+02 -0.13182321973E+02  0.39283443809E+02  0.13208781265E+03  0.12500123968E+03 0.  0.
          5    1    3    3  501    0 -0.53123182664E+02 -0.34309187892E+02 -0.93128865795E+01  0.63921301352E+02  0.10000000000E+00 0.  1.
         -5    1    3    3    0  501  0.42880245699E+02  0.21126865919E+02  0.48596330389E+02  0.68166511294E+02  0.10000000000E+00 0.  1.
         21    1    1    2  504  502  0.10242936965E+02  0.13182321973E+02  0.17041642889E+01  0.16780808866E+02  0.00000000000E+00 0.  1.
<mgrwt>
<rscale>  1 0.12611107E+03</rscale>
<asrwt>0</asrwt>
<pdfrwt beam="1">  1       21 0.14604325E-01 0.12611107E+03</pdfrwt>
<pdfrwt beam="2">  1       21 0.82985395E-02 0.12611107E+03</pdfrwt>
<totfact> 0.45657252E+06</totfact>
</mgrwt>
</event>
<event>
 6    1  0.4180481E-002  0.1300026E+03  0.7546771E-02  0.1227452E+00
         21   -1    0    0  504  502  0.00000000000E+00  0.00000000000E+00  0.11256040793E+03  0.11256040793E+03  0.00000000000E+00 0. -1.
         21   -1    0    0  502  503 -0.00000000000E+00 -0.00000000000E+00 -0.22029006748E+03  0.22029006748E+03  0.00000000000E+00 0. -1.
         25    2    1    2    0    0  0.53563165175E+00 -0.35715639233E+02  0.72679248412E+02  0.14893944296E+03  0.12499916293E+03 0.  0.
          5    1    3    3  501    0 -0.39407070306E+02 -0.25851215525E+02 -0.17136683001E+02  0.50148563673E+02  0.10000000000E+00 0.  1.
         -5    1    3    3    0  501  0.39942701957E+02 -0.98644237081E+01  0.89815931413E+02  0.98790879288E+02  0.10000000000E+00 0.  1.
         21    1    1    2  504  503 -0.53563165175E+00  0.35715639233E+02 -0.18040890796E+03  0.18391103246E+03  0.00000000000E+00 0. -1.
<mgrwt>
<rscale>  1 0.13000263E+03</rscale>
<asrwt>0</asrwt>
<pdfrwt beam="1">  1       21 0.17316986E-01 0.13000263E+03</pdfrwt>
<pdfrwt beam="2">  1       21 0.33890779E-01 0.13000263E+03</pdfrwt>
<totfact> 0.25666106E+05</totfact>
</mgrwt>
</event>
<event>
 6    1  0.4180481E-002  0.1271476E+03  0.7546771E-02  0.1231751E+00
         21   -1    0    0  504  502  0.00000000000E+00  0.00000000000E+00  0.55960886919E+03  0.55960886919E+03  0.00000000000E+00 0. -1.
         21   -1    0    0  502  503 -0.00000000000E+00 -0.00000000000E+00 -0.16624791804E+02  0.16624791804E+02  0.00000000000E+00 0. -1.
         25    2    1    2    0    0 -0.13283627657E+02 -0.19093800732E+02  0.53750264904E+03  0.55233650538E+03  0.12500195779E+03 0.  0.
          5    1    3    3  501    0  0.53881032140E+02  0.64425278380E+01  0.26656811290E+03  0.27203536646E+03  0.10000000000E+00 0. -1.
         -5    1    3    3    0  501 -0.67164659797E+02 -0.25536328570E+02  0.27093453614E+03  0.28030113892E+03  0.10000000000E+00 0. -1.
         21    1    1    2  504  503  0.13283627657E+02  0.19093800732E+02  0.54814283456E+01  0.23897155622E+02  0.00000000000E+00 0. -1.
<mgrwt>
<rscale>  1 0.12714762E+03</rscale>
<asrwt>0</asrwt>
<pdfrwt beam="1">  1       21 0.86093658E-01 0.12714762E+03</pdfrwt>
<pdfrwt beam="2">  1       21 0.25576607E-02 0.12714762E+03</pdfrwt>
<totfact> 0.96249958E+05</totfact>
</mgrwt>
</event>
<event>
 6    1  0.4180481E-002  0.1412844E+03  0.7546771E-02  0.1211611E+00
         21   -1    0    0  503  502  0.00000000000E+00  0.00000000000E+00  0.15926464561E+04  0.15926464561E+04  0.00000000000E+00 0.  1.
         21   -1    0    0  504  503 -0.00000000000E+00 -0.00000000000E+00 -0.16601553196E+02  0.16601553196E+02  0.00000000000E+00 0.  1.
         25    2    1    2    0    0 -0.65809757216E+02  0.19373171925E+01  0.15078606535E+04  0.15144652619E+04  0.12500640658E+03 0.  0.
          5    1    3    3  501    0 -0.42479341405E+02 -0.56811701908E+02  0.55582646696E+03  0.56033484212E+03  0.10000000000E+00 0. -1.
         -5    1    3    3    0  501 -0.23330415811E+02  0.58749019101E+02  0.95203418657E+03  0.95413041978E+03  0.10000000000E+00 0. -1.
         21    1    1    2  504  502  0.65809757216E+02 -0.19373171925E+01  0.68184249395E+02  0.94782747419E+02  0.00000000000E+00 0.  1.
<mgrwt>
<rscale>  1 0.14128439E+03</rscale>
<asrwt>0</asrwt>
<pdfrwt beam="1">  1       21 0.24502241E+00 0.14128439E+03</pdfrwt>
<pdfrwt beam="2">  1       21 0.25540864E-02 0.14128439E+03</pdfrwt>
<totfact> 0.61157994E+04</totfact>
</mgrwt>
</event>
<event>
 6    1  0.4180481E-002  0.1509136E+03  0.7546771E-02  0.1199355E+00
         21   -1    0    0  504  502  0.00000000000E+00  0.00000000000E+00  0.14018604536E+03  0.14018604536E+03  0.00000000000E+00 0.  1.
         21   -1    0    0  502  503 -0.00000000000E+00 -0.00000000000E+00 -0.10608286808E+03  0.10608286808E+03  0.00000000000E+00 0.  1.
         25    2    1    2    0    0  0.38538888069E+02 -0.75263384970E+02  0.52406321544E+02  0.15975401242E+03  0.12500039574E+03 0.  0.
          5    1    3    3  501    0  0.13270811950E+02 -0.56661113817E+01  0.79583790967E+02  0.80881450609E+02  0.10000000000E+00 0. -1.
         -5    1    3    3    0  501  0.25268076119E+02 -0.69597273588E+02 -0.27177469423E+02  0.78872561806E+02  0.10000000000E+00 0. -1.
         21    1    1    2  504  503 -0.38538888069E+02  0.75263384970E+02 -0.18303144263E+02  0.86514901032E+02  0.00000000000E+00 0.  1.
<mgrwt>
<rscale>  1 0.15091362E+03</rscale>
<asrwt>0</asrwt>
<pdfrwt beam="1">  1       21 0.21567084E-01 0.15091362E+03</pdfrwt>
<pdfrwt beam="2">  1       21 0.16320441E-01 0.15091362E+03</pdfrwt>
<totfact> 0.67670969E+05</totfact>
</mgrwt>
</event>
<event>
 6    1  0.4180481E-002  0.1412514E+03  0.7546771E-02  0.1211655E+00
         21   -1    0    0  504  502  0.00000000000E+00  0.00000000000E+00  0.49342216322E+02  0.49342216322E+02  0.00000000000E+00 0.  1.
         21   -1    0    0  502  503 -0.00000000000E+00 -0.00000000000E+00 -0.24323505470E+03  0.24323505470E+03  0.00000000000E+00 0.  1.
         25    2    1    2    0    0 -0.24225573868E+02 -0.61159697669E+02 -0.83543909843E+02  0.16410831338E+03  0.12499826639E+03 0.  0.
          5    1    3    3  501    0 -0.16215296102E+02 -0.99774751957E+02 -0.67405783820E+02  0.12149685859E+03  0.10000000000E+00 0.  1.
         -5    1    3    3    0  501 -0.80102777661E+01  0.38615054289E+02 -0.16138126022E+02  0.42611454788E+02  0.10000000000E+00 0.  1.
         21    1    1    2  504  503  0.24225573868E+02  0.61159697669E+02 -0.11034892854E+03  0.12846895764E+03  0.00000000000E+00 0.  1.
<mgrwt>
<rscale>  1 0.14125138E+03</rscale>
<asrwt>0</asrwt>
<pdfrwt beam="1">  1       21 0.75911104E-02 0.14125138E+03</pdfrwt>
<pdfrwt beam="2">  1       21 0.37420777E-01 0.14125138E+03</pdfrwt>
<totfact> 0.90789755E+05</totfact>
</mgrwt>
</event>
<event>
 6    1  0.4180481E-002  0.1260162E+03  0.7546771E-02  0.1233490E+00
         21   -1    0    0  504  502  0.00000000000E+00  0.00000000000E+00  0.51744898082E+01  0.51744898082E+01  0.00000000000E+00 0.  1.
         21   -1    0    0  502  503 -0.00000000000E+00 -0.00000000000E+00 -0.98003535967E+03  0.98003535967E+03  0.00000000000E+00 0.  1.
         25    2    1    2    0    0 -0.15851020133E+02 -0.19108629662E+01 -0.83826575308E+03  0.84768482570E+03  0.12500073879E+03 0.  0.
          5    1    3    3  501    0 -0.51122504949E+02 -0.60591973166E+01 -0.75996104032E+03  0.76170270919E+03  0.10000000000E+00 0. -1.
         -5    1    3    3    0  501  0.35271484816E+02  0.41483343504E+01 -0.78304712762E+02  0.85982116511E+02  0.10000000000E+00 0. -1.
         21    1    1    2  504  503  0.15851020133E+02  0.19108629662E+01 -0.13659511677E+03  0.13752502377E+03  0.00000000000E+00 0.  1.
<mgrwt>
<rscale>  1 0.12601623E+03</rscale>
<asrwt>0</asrwt>
<pdfrwt beam="1">  1       21 0.79607512E-03 0.12601623E+03</pdfrwt>
<pdfrwt beam="2">  1       21 0.15077472E+00 0.12601623E+03</pdfrwt>
<totfact> 0.15995344E+06</totfact>
</mgrwt>
</event>
<event>
 6    1  0.4180481E-002  0.1603110E+03  0.7546771E-02  0.1188346E+00
         21   -1    0    0  503  502  0.00000000000E+00  0.00000000000E+00  0.15957392357E+03  0.15957392357E+03  0.00000000000E+00 0.  1.
         21   -1    0    0  504  503 -0.00000000000E+00 -0.00000000000E+00 -0.20019505960E+03  0.20019505960E+03  0.00000000000E+00 0.  1.
         25    2    1    2    0    0  0.89307154073E+02 -0.45821676235E+02  0.98547345871E+02  0.18817859843E+03  0.12499684695E+03 0.  0.
          5    1    3    3  501    0  0.79731251508E+02 -0.34677494758E+02 -0.15983449724E+01  0.86960714213E+02  0.10000000000E+00 0.  1.
         -5    1    3    3    0  501  0.95759025649E+01 -0.11144181477E+02  0.10014569084E+03  0.10121788422E+03  0.10000000000E+00 0.  1.
         21    1    1    2  504  502 -0.89307154073E+02  0.45821676235E+02 -0.13916848190E+03  0.17159038474E+03  0.00000000000E+00 0.  1.
<mgrwt>
<rscale>  1 0.16031097E+03</rscale>
<asrwt>0</asrwt>
<pdfrwt beam="1">  1       21 0.24549834E-01 0.16031097E+03</pdfrwt>
<pdfrwt beam="2">  1       21 0.30799240E-01 0.16031097E+03</pdfrwt>
<totfact> 0.16042595E+05</totfact>
</mgrwt>
</event>
<event>
 6    1  0.4180481E-002  0.1322165E+03  0.7546771E-02  0.1224203E+00
         21   -1    0    0  503  502  0.00000000000E+00  0.00000000000E+00  0.57420325100E+02  0.57420325100E+02  0.00000000000E+00 0.  1.
         21   -1    0    0  504  503 -0.00000000000E+00 -0.00000000000E+00 -0.54518049882E+03  0.54518049882E+03  0.00000000000E+00 0.  1.
         25    2    1    2    0    0  0.39878322049E+02  0.16306419871E+02 -0.21020669234E+02  0.13387708338E+03  0.12500010008E+03 0.  0.
          5    1    3    3  501    0  0.53942850020E+02 -0.28562553021E+02  0.26932923847E+02  0.66716136656E+02  0.10000000000E+00 0. -1.
         -5    1    3    3    0  501 -0.14064527971E+02  0.44868972892E+02 -0.47953593081E+02  0.67160946724E+02  0.10000000000E+00 0. -1.
         21    1    1    2  504  502 -0.39878322049E+02 -0.16306419871E+02 -0.46673950448E+03  0.46872374054E+03  0.00000000000E+00 0.  1.
<mgrwt>
<rscale>  1 0.13221651E+03</rscale>
<asrwt>0</asrwt>
<pdfrwt beam="1">  1       21 0.88338959E-02 0.13221651E+03</pdfrwt>
<pdfrwt beam="2">  1       21 0.83873925E-01 0.13221651E+03</pdfrwt>
<totfact> 0.12750421E+05</totfact>
</mgrwt>
</event>
<event>
 6    1  0.4180481E-002  0.1267825E+03  0.7546771E-02  0.1232310E+00
         21   -1    0    0  504  502  0.00000000000E+00  0.00000000000E+00  0.15556691925E+02  0.15556691925E+02  0.00000000000E+00 0.  1.
         21   -1    0    0  502  503 -0.00000000000E+00 -0.00000000000E+00 -0.48148393087E+03  0.48148393087E+03  0.00000000000E+00 0.  1.
         25    2    1    2    0    0  0.17469943581E+02  0.11898729685E+02 -0.25223274694E+03  0.28230330743E+03  0.12500807998E+03 0.  0.
          5    1    3    3  501    0  0.47458344852E+02  0.12362675253E+02 -0.28814028381E+02  0.56880475271E+02  0.10000000000E+00 0.  1.
         -5    1    3    3    0  501 -0.29988401271E+02 -0.46394556809E+00 -0.22341871856E+03  0.22542283216E+03  0.10000000000E+00 0.  1.
         21    1    1    2  504  503 -0.17469943581E+02 -0.11898729685E+02 -0.21369449200E+03  0.21473731536E+03  0.00000000000E+00 0.  1.
<mgrwt>
<rscale>  1 0.12678249E+03</rscale>
<asrwt>0</asrwt>
<pdfrwt beam="1">  1       21 0.23933376E-02 0.12678249E+03</pdfrwt>
<pdfrwt beam="2">  1       21 0.74074439E-01 0.12678249E+03</pdfrwt>
<totfact> 0.15000027E+06</totfact>
</mgrwt>
</event>
<event>
 6    1  0.4180481E-002  0.1296486E+03  0.7546771E-02  0.1227978E+00
         21   -1    0    0  503  502  0.00000000000E+00  0.00000000000E+00  0.16682227717E+03  0.16682227717E+03  0.00000000000E+00 0.  1.
         21   -1    0    0  504  503 -0.00000000000E+00 -0.00000000000E+00 -0.70960020618E+02  0.70960020618E+02  0.00000000000E+00 0.  1.
         25    2    1    2    0    0  0.33353436092E+02  0.83381979164E+01  0.13398812753E+03  0.18644459934E+03  0.12500717204E+03 0.  0.
          5    1    3    3  501    0 -0.34652801918E+02 -0.30677895007E+02  0.75782513062E+02  0.88797236493E+02  0.10000000000E+00 0.  1.
         -5    1    3    3    0  501  0.68006238010E+02  0.39016092924E+02  0.58205614468E+02  0.97647362847E+02  0.10000000000E+00 0.  1.
         21    1    1    2  504  502 -0.33353436092E+02 -0.83381979164E+01 -0.38125870980E+02  0.51337698445E+02  0.00000000000E+00 0.  1.
<mgrwt>
<rscale>  1 0.12964864E+03</rscale>
<asrwt>0</asrwt>
<pdfrwt beam="1">  1       21 0.25664966E-01 0.12964864E+03</pdfrwt>
<pdfrwt beam="2">  1       21 0.10916926E-01 0.12964864E+03</pdfrwt>
<totfact> 0.10017493E+06</totfact>
</mgrwt>
</event>
<event>
 6    1  0.4180481E-002  0.1260842E+03  0.7546771E-02  0.1233385E+00
         21   -1    0    0  503  502  0.00000000000E+00  0.00000000000E+00  0.97189412119E+02  0.97189412119E+02  0.00000000000E+00 0. -1.
         21   -1    0    0  504  503 -0.00000000000E+00 -0.00000000000E+00 -0.53568003893E+02  0.53568003893E+02  0.00000000000E+00 0. -1.
         25    2    1    2    0    0 -0.16065295651E+02  0.36297592977E+01  0.45797437006E+02  0.13414404856E+03  0.12500380654E+03 0.  0.
          5    1    3    3  501    0  0.24020073562E+02 -0.50623457622E+02  0.34350302010E+02  0.65724056811E+02  0.10000000000E+00 0. -1.
         -5    1    3    3    0  501 -0.40085369213E+02  0.54253216919E+02  0.11447134996E+02  0.68419991747E+02  0.10000000000E+00 0. -1.
         21    1    1    2  504  502  0.16065295651E+02 -0.36297592977E+01 -0.21760287797E+01  0.16613367454E+02  0.00000000000E+00 0. -1.
<mgrwt>
<rscale>  1 0.12608418E+03</rscale>
<asrwt>0</asrwt>
<pdfrwt beam="1">  1       21 0.14952217E-01 0.12608418E+03</pdfrwt>
<pdfrwt beam="2">  1       21 0.82412314E-02 0.12608418E+03</pdfrwt>
<totfact> 0.44289695E+06</totfact>
</mgrwt>
</event>
<event>
 6    1  0.4180481E-002  0.1347578E+03  0.7546771E-02  0.1220562E+00
         21   -1    0    0  503  502  0.00000000000E+00  0.00000000000E+00  0.16878898172E+04  0.16878898172E+04  0.00000000000E+00 0.  1.
         21   -1    0    0  504  503 -0.00000000000E+00 -0.00000000000E+00 -0.61570441645E+02  0.61570441645E+02  0.00000000000E+00 0.  1.
         25    2    1    2    0    0 -0.45460644418E+02  0.21633184626E+02  0.16744178405E+04  0.16798317647E+04  0.12499995320E+03 0.  0.
          5    1    3    3  501    0 -0.78485545111E+02  0.45460179883E+02  0.96759281402E+03  0.97183459111E+03  0.10000000000E+00 0.  1.
         -5    1    3    3    0  501  0.33024900693E+02 -0.23826995257E+02  0.70682502645E+03  0.70799717357E+03  0.10000000000E+00 0.  1.
         21    1    1    2  504  502  0.45460644418E+02 -0.21633184626E+02 -0.48098464930E+02  0.69628494143E+02  0.00000000000E+00 0.  1.
<mgrwt>
<rscale>  1 0.13475776E+03</rscale>
<asrwt>0</asrwt>
<pdfrwt beam="1">  1       21 0.25967532E+00 0.13475776E+03</pdfrwt>
<pdfrwt beam="2">  1       21 0.94723769E-02 0.13475776E+03</pdfrwt>
<totfact> 0.55856034E+03</totfact>
</mgrwt>
</event>
<event>
 6    1  0.4180481E-002  0.1362886E+03  0.7546771E-02  0.1218412E+00
         21   -1    0    0  504  502  0.00000000000E+00  0.00000000000E+00  0.57885970115E+02  0.57885970115E+02  0.00000000000E+00 0.  1.
         21   -1    0    0  502  503 -0.00000000000E+00 -0.00000000000E+00 -0.15724501899E+03  0.15724501899E+03  0.00000000000E+00 0.  1.
         25    2    1    2    0    0  0.48051131861E+02  0.25309384110E+02 -0.75599410321E+02  0.15585201626E+03  0.12500041574E+03 0.  0.
          5    1    3    3  501    0  0.75115478060E+02  0.52950101358E+02 -0.31409309106E+02  0.97121588622E+02  0.10000000000E+00 0. -1.
         -5    1    3    3    0  501 -0.27064346199E+02 -0.27640717249E+02 -0.44190101215E+02  0.58730427638E+02  0.10000000000E+00 0. -1.
         21    1    1    2  504  503 -0.48051131861E+02 -0.25309384110E+02 -0.23759638554E+02  0.59278972843E+02  0.00000000000E+00 0.  1.
<mgrwt>
<rscale>  1 0.13628859E+03</rscale>
<asrwt>0</asrwt>
<pdfrwt beam="1">  1       21 0.89055339E-02 0.13628859E+03</pdfrwt>
<pdfrwt beam="2">  1       21 0.24191541E-01 0.13628859E+03</pdfrwt>
<totfact> 0.16006323E+06</totfact>
</mgrwt>
</event>
<event>
 6    1  0.4180481E-002  0.1263283E+03  0.7546771E-02  0.1233008E+00
         21   -1    0    0  503  502  0.00000000000E+00  0.00000000000E+00  0.97964745057E+03  0.97964745057E+03  0.00000000000E+00 0. -1.
         21   -1    0    0  504  503 -0.00000000000E+00 -0.00000000000E+00 -0.53473158435E+01  0.53473158435E+01  0.00000000000E+00 0. -1.
         25    2    1    2    0    0 -0.11029379282E+02 -0.14403184833E+02  0.87105636039E+03  0.88016931206E+03  0.12501894248E+03 0.  0.
          5    1    3    3  501    0  0.45851759564E+02 -0.14114466035E+02  0.16521169557E+03  0.17203638091E+03  0.10000000000E+00 0.  1.
         -5    1    3    3    0  501 -0.56881138846E+02 -0.28871879815E+00  0.70584466482E+03  0.70813293115E+03  0.10000000000E+00 0.  1.
         21    1    1    2  504  502  0.11029379282E+02  0.14403184833E+02  0.10324377434E+03  0.10482545435E+03  0.00000000000E+00 0. -1.
<mgrwt>
<rscale>  1 0.12632828E+03</rscale>
<asrwt>0</asrwt>
<pdfrwt beam="1">  1       21 0.15071485E+00 0.12632828E+03</pdfrwt>
<pdfrwt beam="2">  1       21 0.82266475E-03 0.12632828E+03</pdfrwt>
<totfact> 0.15209083E+06</totfact>
</mgrwt>
</event>
<event>
 6    1  0.4180481E-002  0.1303408E+03  0.7546771E-02  0.1226951E+00
         21   -1    0    0  504  502  0.00000000000E+00  0.00000000000E+00  0.28211433217E+03  0.28211433217E+03  0.00000000000E+00 0.  1.
         21   -1    0    0  502  503 -0.00000000000E+00 -0.00000000000E+00 -0.24805133488E+02  0.24805133488E+02  0.00000000000E+00 0.  1.
         25    2    1    2    0    0 -0.10200997745E+02 -0.35490162740E+02  0.20321326375E+03  0.24142151010E+03  0.12500041187E+03 0.  0.
          5    1    3    3  501    0  0.37107164940E+00 -0.81981887273E+02  0.14008262702E+03  0.16230933407E+03  0.10000000000E+00 0.  1.
         -5    1    3    3    0  501 -0.10572069395E+02  0.46491724533E+02  0.63130636732E+02  0.79112176025E+02  0.10000000000E+00 0.  1.
         21    1    1    2  504  503  0.10200997745E+02  0.35490162740E+02  0.54095934933E+02  0.65497955561E+02  0.00000000000E+00 0.  1.
<mgrwt>
<rscale>  1 0.13034076E+03</rscale>
<asrwt>0</asrwt>
<pdfrwt beam="1">  1       21 0.43402203E-01 0.13034076E+03</pdfrwt>
<pdfrwt beam="2">  1       21 0.38161746E-02 0.13034076E+03</pdfrwt>
<totfact> 0.21524399E+06</totfact>
</mgrwt>
</event>
<event>
 6    1  0.4180481E-002  0.1273478E+03  0.7546771E-02  0.1231445E+00
         21   -1    0    0  503  502  0.00000000000E+00  0.00000000000E+00  0.14564108663E+03  0.14564108663E+03  0.00000000000E+00 0.  1.
         21   -1    0    0  504  503 -0.00000000000E+00 -0.00000000000E+00 -0.39621892491E+02  0.39621892491E+02  0.00000000000E+00 0.  1.
         25    2    1    2    0    0 -0.24272570272E+02  0.20258787352E+01  0.92586238907E+02  0.15744740545E+03  0.12499684794E+03 0.  0.
          5    1    3    3  501    0 -0.14506468842E+02  0.27173692794E+02 -0.23198060248E+02  0.38561732554E+02  0.10000000000E+00 0.  1.
         -5    1    3    3    0  501 -0.97661014301E+01 -0.25147814058E+02  0.11578429915E+03  0.11888567290E+03  0.10000000000E+00 0.  1.
         21    1    1    2  504  502  0.24272570272E+02 -0.20258787352E+01  0.13432955228E+02  0.27815573667E+02  0.00000000000E+00 0.  1.
<mgrwt>
<rscale>  1 0.12734785E+03</rscale>
<asrwt>0</asrwt>
<pdfrwt beam="1">  1       21 0.22406321E-01 0.12734785E+03</pdfrwt>
<pdfrwt beam="2">  1       21 0.60956759E-02 0.12734785E+03</pdfrwt>
<totfact> 0.35363900E+06</totfact>
</mgrwt>
</event>
<event>
 6    1  0.4180481E-002  0.1372502E+03  0.7546771E-02  0.1217078E+00
         21   -1    0    0  504  502  0.00000000000E+00  0.00000000000E+00  0.16706064171E+03  0.16706064171E+03  0.00000000000E+00 0. -1.
         21   -1    0    0  502  503 -0.00000000000E+00 -0.00000000000E+00 -0.14083508573E+03  0.14083508573E+03  0.00000000000E+00 0.  1.
         25    2    1    2    0    0 -0.62400846141E+01  0.56328837419E+02  0.13038974181E+03  0.18931219489E+03  0.12500298310E+03 0.  0.
          5    1    3    3  501    0  0.51422722099E+02  0.60389133530E+02  0.79436003591E+02  0.11225521130E+03  0.10000000000E+00 0.  1.
         -5    1    3    3    0  501 -0.57662806713E+02 -0.40602961110E+01  0.50953738218E+02  0.77056983596E+02  0.10000000000E+00 0.  1.
         21    1    1    2  504  503  0.62400846141E+01 -0.56328837419E+02 -0.10416418584E+03  0.11858353255E+03  0.00000000000E+00 0.  1.
<mgrwt>
<rscale>  1 0.13725022E+03</rscale>
<asrwt>0</asrwt>
<pdfrwt beam="1">  1       21 0.25701637E-01 0.13725022E+03</pdfrwt>
<pdfrwt beam="2">  1       21 0.21666936E-01 0.13725022E+03</pdfrwt>
<totfact> 0.28884385E+05</totfact>
</mgrwt>
</event>
<event>
 6    1  0.4180481E-002  0.1648419E+03  0.7546771E-02  0.1183336E+00
         21   -1    0    0  504  502  0.00000000000E+00  0.00000000000E+00  0.72641690557E+02  0.72641690557E+02  0.00000000000E+00 0. -1.
         21   -1    0    0  502  503 -0.00000000000E+00 -0.00000000000E+00 -0.29687214400E+03  0.29687214400E+03  0.00000000000E+00 0. -1.
         25    2    1    2    0    0  0.73450356159E+02 -0.78437948939E+02 -0.64523219254E+02  0.17702002347E+03  0.12500150493E+03 0.  0.
          5    1    3    3  501    0  0.54301472387E+02  0.24898450905E+02 -0.22521019922E+02  0.63841907077E+02  0.10000000000E+00 0. -1.
         -5    1    3    3    0  501  0.19148883772E+02 -0.10333639984E+03 -0.42002199331E+02  0.11317811640E+03  0.10000000000E+00 0. -1.
         21    1    1    2  504  503 -0.73450356159E+02  0.78437948939E+02 -0.15970723419E+03  0.19249381109E+03  0.00000000000E+00 0. -1.
<mgrwt>
<rscale>  1 0.16484187E+03</rscale>
<asrwt>0</asrwt>
<pdfrwt beam="1">  1       21 0.11175645E-01 0.16484187E+03</pdfrwt>
<pdfrwt beam="2">  1       21 0.45672637E-01 0.16484187E+03</pdfrwt>
<totfact> 0.30827519E+05</totfact>
</mgrwt>
</event>
<event>
 6    1  0.4180481E-002  0.1349685E+03  0.7546771E-02  0.1220264E+00
         21   -1    0    0  503  502  0.00000000000E+00  0.00000000000E+00  0.40465975127E+03  0.40465975127E+03  0.00000000000E+00 0.  1.
         21   -1    0    0  504  503 -0.00000000000E+00 -0.00000000000E+00 -0.22188116702E+02  0.22188116702E+02  0.00000000000E+00 0.  1.
         25    2    1    2    0    0 -0.26798668331E+02  0.43283683846E+02  0.31171651618E+03  0.33968174675E+03  0.12499942680E+03 0.  0.
          5    1    3    3  501    0  0.43013648648E+02  0.43056193141E+01  0.18393284561E+03  0.18894447338E+03  0.10000000000E+00 0. -1.
         -5    1    3    3    0  501 -0.69812316979E+02  0.38978064532E+02  0.12778367057E+03  0.15073727337E+03  0.10000000000E+00 0. -1.
         21    1    1    2  504  502  0.26798668331E+02 -0.43283683846E+02  0.70755118386E+02  0.87166121224E+02  0.00000000000E+00 0.  1.
<mgrwt>
<rscale>  1 0.13496852E+03</rscale>
<asrwt>0</asrwt>
<pdfrwt beam="1">  1       21 0.62255341E-01 0.13496852E+03</pdfrwt>
<pdfrwt beam="2">  1       21 0.34135567E-02 0.13496852E+03</pdfrwt>
<totfact> 0.12237952E+06</totfact>
</mgrwt>
</event>
<event>
 6    1  0.4180481E-002  0.1306628E+03  0.7546771E-02  0.1226476E+00
         21   -1    0    0  504  502  0.00000000000E+00  0.00000000000E+00  0.25662493165E+04  0.25662493165E+04  0.00000000000E+00 0.  1.
         21   -1    0    0  502  503 -0.00000000000E+00 -0.00000000000E+00 -0.35899192863E+01  0.35899192863E+01  0.00000000000E+00 0.  1.
         25    2    1    2    0    0 -0.29879647593E+02 -0.23548274966E+02  0.23616232923E+04  0.23652351546E+04  0.12500178726E+03 0.  0.
          5    1    3    3  501    0  0.36279985384E+02  0.23764228667E+02  0.51559014188E+03  0.51741103613E+03  0.10000000000E+00 0. -1.
         -5    1    3    3    0  501 -0.66159632977E+02 -0.47312503632E+02  0.18460331505E+04  0.18478241184E+04  0.10000000000E+00 0. -1.
         21    1    1    2  504  503  0.29879647593E+02  0.23548274966E+02  0.20103610483E+03  0.20460408119E+03  0.00000000000E+00 0.  1.
<mgrwt>
<rscale>  1 0.13066278E+03</rscale>
<asrwt>0</asrwt>
<pdfrwt beam="1">  1       21 0.39480612E+00 0.13066278E+03</pdfrwt>
<pdfrwt beam="2">  1       21 0.55229733E-03 0.13066278E+03</pdfrwt>
<totfact> 0.96638324E+04</totfact>
</mgrwt>
</event>
<event>
 6    1  0.4180481E-002  0.1292180E+03  0.7546771E-02  0.1228621E+00
         21   -1    0    0  503  502  0.00000000000E+00  0.00000000000E+00  0.49492159604E+02  0.49492159604E+02  0.00000000000E+00 0. -1.
         21   -1    0    0  504  503 -0.00000000000E+00 -0.00000000000E+00 -0.14030899688E+03  0.14030899688E+03  0.00000000000E+00 0. -1.
         25    2    1    2    0    0 -0.31898762587E+02 -0.63701922550E+01 -0.52337174379E+02  0.13941470135E+03  0.12505666207E+03 0.  0.
          5    1    3    3  501    0  0.47782657288E+02  0.72897427842E+01 -0.17941450332E+02  0.51558009342E+02  0.10000000000E+00 0.  1.
         -5    1    3    3    0  501 -0.79681419874E+02 -0.13659935039E+02 -0.34395724047E+02  0.87856692011E+02  0.10000000000E+00 0.  1.
         21    1    1    2  504  502  0.31898762587E+02  0.63701922550E+01 -0.38479662894E+02  0.50386455128E+02  0.00000000000E+00 0. -1.
<mgrwt>
<rscale>  1 0.12921795E+03</rscale>
<asrwt>0</asrwt>
<pdfrwt beam="1">  1       21 0.76141784E-02 0.12921795E+03</pdfrwt>
<pdfrwt beam="2">  1       21 0.21585999E-01 0.12921795E+03</pdfrwt>
<totfact> 0.25944274E+06</totfact>
</mgrwt>
</event>
<event>
 6    1  0.4180481E-002  0.2105675E+03  0.7546771E-02  0.1141117E+00
         21   -1    0    0  504  502  0.00000000000E+00  0.00000000000E+00  0.91901369327E+02  0.91901369327E+02  0.00000000000E+00 0.  1.
         21   -1    0    0  502  503 -0.00000000000E+00 -0.00000000000E+00 -0.49544953741E+03  0.49544953741E+03  0.00000000000E+00 0.  1.
         25    2    1    2    0    0 -0.15255719394E+03  0.73758630296E+02 -0.86066398135E+02  0.22747772461E+03  0.12499862935E+03 0.  0.
          5    1    3    3  501    0 -0.35098154161E+02  0.85046885363E+02 -0.29489546605E+02  0.96615198051E+02  0.10000000000E+00 0.  1.
         -5    1    3    3    0  501 -0.11745903978E+03 -0.11288255067E+02 -0.56576851530E+02  0.13086252656E+03  0.10000000000E+00 0.  1.
         21    1    1    2  504  503  0.15255719394E+03 -0.73758630296E+02 -0.31748176995E+03  0.35987318213E+03  0.00000000000E+00 0.  1.
<mgrwt>
<rscale>  1 0.21056754E+03</rscale>
<asrwt>0</asrwt>
<pdfrwt beam="1">  1       21 0.14138673E-01 0.21056754E+03</pdfrwt>
<pdfrwt beam="2">  1       21 0.76223004E-01 0.21056754E+03</pdfrwt>
<totfact> 0.66427526E+04</totfact>
</mgrwt>
</event>
<event>
 6    1  0.4180481E-002  0.1341139E+03  0.7546771E-02  0.1221476E+00
         21   -1    0    0  503  502  0.00000000000E+00  0.00000000000E+00  0.26635509747E+03  0.26635509747E+03  0.00000000000E+00 0. -1.
         21   -1    0    0  504  503 -0.00000000000E+00 -0.00000000000E+00 -0.25563397226E+03  0.25563397226E+03  0.00000000000E+00 0. -1.
         25    2    1    2    0    0  0.48588968227E+02  0.13095075209E+01  0.24683905664E+03  0.28092003359E+03  0.12499577091E+03 0.  0.
          5    1    3    3  501    0 -0.31932567092E+02  0.17341946557E+02  0.24287843461E+02  0.43707451212E+02  0.10000000000E+00 0. -1.
         -5    1    3    3    0  501  0.80521535319E+02 -0.16032439036E+02  0.22255121318E+03  0.23721258238E+03  0.10000000000E+00 0. -1.
         21    1    1    2  504  502 -0.48588968227E+02 -0.13095075209E+01 -0.23611793143E+03  0.24106903614E+03  0.00000000000E+00 0. -1.
<mgrwt>
<rscale>  1 0.13411393E+03</rscale>
<asrwt>0</asrwt>
<pdfrwt beam="1">  1       21 0.40977707E-01 0.13411393E+03</pdfrwt>
<pdfrwt beam="2">  1       21 0.39328304E-01 0.13411393E+03</pdfrwt>
<totfact> 0.36909712E+04</totfact>
</mgrwt>
</event>
<event>
 6    1  0.4180481E-002  0.1266138E+03  0.7546771E-02  0.1232569E+00
         21   -1    0    0  504  502  0.00000000000E+00  0.00000000000E+00  0.43889845535E+02  0.43889845535E+02  0.00000000000E+00 0. -1.
         21   -1    0    0  502  503 -0.00000000000E+00 -0.00000000000E+00 -0.17933974482E+03  0.17933974482E+03  0.00000000000E+00 0.  1.
         25    2    1    2    0    0  0.80633503128E+01 -0.18449640724E+02 -0.51144804649E+02  0.13655343537E+03  0.12500257121E+03 0.  0.
          5    1    3    3  501    0 -0.26264197752E+02  0.44335120602E+02 -0.37441271541E+02  0.63696701774E+02  0.10000000000E+00 0. -1.
         -5    1    3    3    0  501  0.34327548064E+02 -0.62784761325E+02 -0.13703533108E+02  0.72856733597E+02  0.10000000000E+00 0. -1.
         21    1    1    2  504  503 -0.80633503128E+01  0.18449640724E+02 -0.84305094632E+02  0.86676154980E+02  0.00000000000E+00 0.  1.
<mgrwt>
<rscale>  1 0.12661378E+03</rscale>
<asrwt>0</asrwt>
<pdfrwt beam="1">  1       21 0.67522841E-02 0.12661378E+03</pdfrwt>
<pdfrwt beam="2">  1       21 0.27590729E-01 0.12661378E+03</pdfrwt>
<totfact> 0.20053718E+06</totfact>
</mgrwt>
</event>
<event>
 6    1  0.4180481E-002  0.1266556E+03  0.7546771E-02  0.1232504E+00
         21   -1    0    0  504  502  0.00000000000E+00  0.00000000000E+00  0.25952672662E+03  0.25952672662E+03  0.00000000000E+00 0. -1.
         21   -1    0    0  502  503 -0.00000000000E+00 -0.00000000000E+00 -0.24352331894E+02  0.24352331894E+02  0.00000000000E+00 0. -1.
         25    2    1    2    0    0 -0.18540753878E+02 -0.85709701101E+01  0.23037632360E+03  0.26289710032E+03  0.12499765518E+03 0.  0.
          5    1    3    3  501    0 -0.33065759382E+02 -0.46731030844E+02  0.20922008837E+03  0.21691055545E+03  0.10000000000E+00 0.  1.
         -5    1    3    3    0  501  0.14525005504E+02  0.38160060734E+02  0.21156235226E+02  0.45986544870E+02  0.10000000000E+00 0.  1.
         21    1    1    2  504  503  0.18540753878E+02  0.85709701101E+01  0.47980711244E+01  0.20981958190E+02  0.00000000000E+00 0. -1.
<mgrwt>
<rscale>  1 0.12665558E+03</rscale>
<asrwt>0</asrwt>
<pdfrwt beam="1">  1       21 0.39927187E-01 0.12665558E+03</pdfrwt>
<pdfrwt beam="2">  1       21 0.37465128E-02 0.12665558E+03</pdfrwt>
<totfact> 0.26222268E+06</totfact>
</mgrwt>
</event>
<event>
 6    1  0.4180481E-002  0.1269668E+03  0.7546771E-02  0.1232027E+00
         21   -1    0    0  503  502  0.00000000000E+00  0.00000000000E+00  0.49995912263E+02  0.49995912263E+02  0.00000000000E+00 0. -1.
         21   -1    0    0  504  503 -0.00000000000E+00 -0.00000000000E+00 -0.12436178786E+03  0.12436178786E+03  0.00000000000E+00 0. -1.
         25    2    1    2    0    0  0.26872656942E+01 -0.22148817058E+02 -0.39509259137E+02  0.13297201172E+03  0.12499113108E+03 0.  0.
          5    1    3    3  501    0  0.11584332020E+02 -0.58082684029E+02  0.20320487604E+02  0.62615710080E+02  0.10000000000E+00 0. -1.
         -5    1    3    3    0  501 -0.88970663256E+01  0.35933866972E+02 -0.59829746740E+02  0.70356301635E+02  0.10000000000E+00 0. -1.
         21    1    1    2  504  502 -0.26872656942E+01  0.22148817058E+02 -0.34856616456E+02  0.41385688405E+02  0.00000000000E+00 0. -1.
<mgrwt>
<rscale>  1 0.12696682E+03</rscale>
<asrwt>0</asrwt>
<pdfrwt beam="1">  1       21 0.76916790E-02 0.12696682E+03</pdfrwt>
<pdfrwt beam="2">  1       21 0.19132582E-01 0.12696682E+03</pdfrwt>
<totfact> 0.31857122E+06</totfact>
</mgrwt>
</event>
<event>
 6    1  0.4180481E-002  0.1263535E+03  0.7546771E-02  0.1232969E+00
         21   -1    0    0  504  502  0.00000000000E+00  0.00000000000E+00  0.15803498214E+03  0.15803498214E+03  0.00000000000E+00 0. -1.
         21   -1    0    0  502  503 -0.00000000000E+00 -0.00000000000E+00 -0.16776732308E+03  0.16776732308E+03  0.00000000000E+00 0. -1.
         25    2    1    2    0    0 -0.17291919592E+02  0.63843756035E+01  0.13208704323E+03  0.18279003840E+03  0.12500176164E+03 0.  0.
          5    1    3    3  501    0  0.10528864425E+02 -0.41615833398E+02  0.38902830104E+01  0.43103119114E+02  0.10000000000E+00 0.  1.
         -5    1    3    3    0  501 -0.27820784017E+02  0.48000209001E+02  0.12819676022E+03  0.13968691928E+03  0.10000000000E+00 0.  1.
         21    1    1    2  504  503  0.17291919592E+02 -0.63843756035E+01 -0.14181938417E+03  0.14301226682E+03  0.00000000000E+00 0. -1.
<mgrwt>
<rscale>  1 0.12635352E+03</rscale>
<asrwt>0</asrwt>
<pdfrwt beam="1">  1       21 0.24313074E-01 0.12635352E+03</pdfrwt>
<pdfrwt beam="2">  1       21 0.25810357E-01 0.12635352E+03</pdfrwt>
<totfact> 0.23139627E+05</totfact>
</mgrwt>
</event>
<event>
 6    1  0.4180481E-002  0.1300982E+03  0.7546771E-02  0.1227310E+00
         21   -1    0    0  503  502  0.00000000000E+00  0.00000000000E+00  0.40029858730E+03  0.40029858730E+03  0.00000000000E+00 0. -1.
         21   -1    0    0  504  503 -0.00000000000E+00 -0.00000000000E+00 -0.25963375227E+02  0.25963375227E+02  0.00000000000E+00 0. -1.
         25    2    1    2    0    0 -0.24163014835E+02 -0.26763663469E+02  0.36711920235E+03  0.38948947601E+03  0.12500159286E+03 0.  0.
          5    1    3    3  501    0 -0.25259819786E+02 -0.94351159859E+01  0.37076758272E+03  0.37174680941E+03  0.10000000000E+00 0. -1.
         -5    1    3    3    0  501  0.10968049507E+01 -0.17328547483E+02 -0.36483803638E+01  0.17742666605E+02  0.10000000000E+00 0. -1.
         21    1    1    2  504  502  0.24163014835E+02  0.26763663469E+02  0.72160097176E+01  0.36772486515E+02  0.00000000000E+00 0. -1.
<mgrwt>
<rscale>  1 0.13009821E+03</rscale>
<asrwt>0</asrwt>
<pdfrwt beam="1">  1       21 0.61584394E-01 0.13009821E+03</pdfrwt>
<pdfrwt beam="2">  1       21 0.39943657E-02 0.13009821E+03</pdfrwt>
<totfact> 0.96530913E+05</totfact>
</mgrwt>
</event>
<event>
 6    1  0.4180481E-002  0.1483935E+03  0.7546771E-02  0.1202461E+00
         21   -1    0    0  504  502  0.00000000000E+00  0.00000000000E+00  0.28595572461E+03  0.28595572461E+03  0.00000000000E+00 0. -1.
         21   -1    0    0  502  503 -0.00000000000E+00 -0.00000000000E+00 -0.16600066394E+03  0.16600066394E+03  0.00000000000E+00 0. -1.
         25    2    1    2    0    0 -0.68403102007E+02 -0.41366548012E+02  0.25499448597E+03  0.29503022106E+03  0.12502186931E+03 0.  0.
          5    1    3    3  501    0  0.34405906268E+02 -0.13469861531E+02  0.36432023183E+02  0.51889361810E+02  0.10000000000E+00 0. -1.
         -5    1    3    3    0  501 -0.10280900827E+03 -0.27896686482E+02  0.21856246279E+03  0.24314085926E+03  0.10000000000E+00 0. -1.
         21    1    1    2  504  503  0.68403102007E+02  0.41366548012E+02 -0.13503942530E+03  0.15692616749E+03  0.00000000000E+00 0. -1.
<mgrwt>
<rscale>  1 0.14839354E+03</rscale>
<asrwt>0</asrwt>
<pdfrwt beam="1">  1       21 0.43993188E-01 0.14839354E+03</pdfrwt>
<pdfrwt beam="2">  1       21 0.25538564E-01 0.14839354E+03</pdfrwt>
<totfact> 0.73572274E+04</totfact>
</mgrwt>
</event>
<event>
 6    1  0.4180481E-002  0.1261441E+03  0.7546771E-02  0.1233292E+00
         21   -1    0    0  504  502  0.00000000000E+00  0.00000000000E+00  0.13311956519E+03  0.13311956519E+03  0.00000000000E+00 0. -1.
         21   -1    0    0  502  503 -0.00000000000E+00 -0.00000000000E+00 -0.10426837016E+03  0.10426837016E+03  0.00000000000E+00 0. -1.
         25    2    1    2    0    0  0.16057105460E+01  0.16855804689E+02  0.10205109687E+03  0.16225523882E+03  0.12500255875E+03 0.  0.
          5    1    3    3  501    0  0.30965069702E+02  0.34417268235E+01  0.12091777434E+03  0.12486712609E+03  0.10000000000E+00 0.  1.
         -5    1    3    3    0  501 -0.29359359156E+02  0.13414077866E+02 -0.18866677470E+02  0.37388112734E+02  0.10000000000E+00 0.  1.
         21    1    1    2  504  503 -0.16057105460E+01 -0.16855804689E+02 -0.73199901839E+02  0.75132696527E+02  0.00000000000E+00 0. -1.
<mgrwt>
<rscale>  1 0.12614411E+03</rscale>
<asrwt>0</asrwt>
<pdfrwt beam="1">  1       21 0.20479933E-01 0.12614411E+03</pdfrwt>
<pdfrwt beam="2">  1       21 0.16041288E-01 0.12614411E+03</pdfrwt>
<totfact> 0.76901945E+05</totfact>
</mgrwt>
</event>
<event>
 6    1  0.4180481E-002  0.1306318E+03  0.7546771E-02  0.1226521E+00
         21   -1    0    0  504  502  0.00000000000E+00  0.00000000000E+00  0.64389263085E+03  0.64389263085E+03  0.00000000000E+00 0.  1.
         21   -1    0    0  502  503 -0.00000000000E+00 -0.00000000000E+00 -0.14127493263E+02  0.14127493263E+02  0.00000000000E+00 0.  1.
         25    2    1    2    0    0  0.35284034457E+02 -0.13933116758E+02  0.58469417824E+03  0.59910929144E+03  0.12500226473E+03 0.  0.
          5    1    3    3  501    0  0.13341938907E+02 -0.15702726558E+02  0.57446626256E+03  0.57483569807E+03  0.10000000000E+00 0.  1.
         -5    1    3    3    0  501  0.21942095549E+02  0.17696098005E+01  0.10227915686E+02  0.24273593373E+02  0.10000000000E+00 0.  1.
         21    1    1    2  504  503 -0.35284034457E+02  0.13933116758E+02  0.45070959343E+02  0.58910832673E+02  0.00000000000E+00 0.  1.
<mgrwt>
<rscale>  1 0.13063178E+03</rscale>
<asrwt>0</asrwt>
<pdfrwt beam="1">  1       21 0.99060382E-01 0.13063178E+03</pdfrwt>
<pdfrwt beam="2">  1       21 0.21734610E-02 0.13063178E+03</pdfrwt>
<totfact> 0.90801236E+05</totfact>
</mgrwt>
</event>
<event>
 6    1  0.4180481E-002  0.1271128E+03  0.7546771E-02  0.1231804E+00
         21   -1    0    0  504  502  0.00000000000E+00  0.00000000000E+00  0.81775096238E+02  0.81775096238E+02  0.00000000000E+00 0. -1.
         21   -1    0    0  502  503 -0.00000000000E+00 -0.00000000000E+00 -0.15236020083E+03  0.15236020083E+03  0.00000000000E+00 0. -1.
         25    2    1    2    0    0 -0.15737014471E+02  0.17005924432E+02  0.30258048782E+02  0.13066454433E+03  0.12498327303E+03 0.  0.
          5    1    3    3  501    0  0.22551522626E+02 -0.46119553906E+02  0.23698361844E+02  0.56543848289E+02  0.10000000000E+00 0.  1.
         -5    1    3    3    0  501 -0.38288537098E+02  0.63125478338E+02  0.65596869381E+01  0.74120696038E+02  0.10000000000E+00 0.  1.
         21    1    1    2  504  503  0.15737014471E+02 -0.17005924432E+02 -0.10084315337E+03  0.10347075274E+03  0.00000000000E+00 0. -1.
<mgrwt>
<rscale>  1 0.12711284E+03</rscale>
<asrwt>0</asrwt>
<pdfrwt beam="1">  1       21 0.12580784E-01 0.12711284E+03</pdfrwt>
<pdfrwt beam="2">  1       21 0.23440031E-01 0.12711284E+03</pdfrwt>
<totfact> 0.92471205E+05</totfact>
</mgrwt>
</event>
<event>
 6    1  0.4180481E-002  0.1263833E+03  0.7546771E-02  0.1232923E+00
         21   -1    0    0  504  502  0.00000000000E+00  0.00000000000E+00  0.92943693321E+01  0.92943693321E+01  0.00000000000E+00 0.  1.
         21   -1    0    0  502  503 -0.00000000000E+00 -0.00000000000E+00 -0.60219505833E+03  0.60219505833E+03  0.00000000000E+00 0.  1.
         25    2    1    2    0    0 -0.81164181259E+01 -0.16735742729E+02 -0.45095128086E+03  0.46832659800E+03  0.12500713320E+03 0.  0.
          5    1    3    3  501    0 -0.12273960314E+01  0.53267305050E+02 -0.24393353728E+03  0.24968478708E+03  0.10000000000E+00 0. -1.
         -5    1    3    3    0  501 -0.68890220945E+01 -0.70003047779E+02 -0.20701774358E+03  0.21864181092E+03  0.10000000000E+00 0. -1.
         21    1    1    2  504  503  0.81164181259E+01  0.16735742729E+02 -0.14194940814E+03  0.14316282967E+03  0.00000000000E+00 0.  1.
<mgrwt>
<rscale>  1 0.12638332E+03</rscale>
<asrwt>0</asrwt>
<pdfrwt beam="1">  1       21 0.14299032E-02 0.12638332E+03</pdfrwt>
<pdfrwt beam="2">  1       21 0.92645381E-01 0.12638332E+03</pdfrwt>
<totfact> 0.20768823E+06</totfact>
</mgrwt>
</event>
<event>
 6    1  0.4180481E-002  0.1265180E+03  0.7546771E-02  0.1232716E+00
         21   -1    0    0  504  502  0.00000000000E+00  0.00000000000E+00  0.26669891821E+03  0.26669891821E+03  0.00000000000E+00 0.  1.
         21   -1    0    0  502  503 -0.00000000000E+00 -0.00000000000E+00 -0.44845631489E+02  0.44845631489E+02  0.00000000000E+00 0.  1.
         25    2    1    2    0    0 -0.19469300990E+02  0.11798669842E+01  0.24830484473E+03  0.27867920795E+03  0.12500543691E+03 0.  0.
          5    1    3    3  501    0  0.21149303411E+02  0.38138566178E+02  0.20257376428E+03  0.20721482389E+03  0.10000000000E+00 0.  1.
         -5    1    3    3    0  501 -0.40618604400E+02 -0.36958699194E+02  0.45731080457E+02  0.71464384062E+02  0.10000000000E+00 0.  1.
         21    1    1    2  504  503  0.19469300990E+02 -0.11798669842E+01 -0.26451558013E+02  0.32865341752E+02  0.00000000000E+00 0.  1.
<mgrwt>
<rscale>  1 0.12651800E+03</rscale>
<asrwt>0</asrwt>
<pdfrwt beam="1">  1       21 0.41030602E-01 0.12651800E+03</pdfrwt>
<pdfrwt beam="2">  1       21 0.68993281E-02 0.12651800E+03</pdfrwt>
<totfact> 0.88975525E+05</totfact>
</mgrwt>
</event>
<event>
 6    1  0.4180481E-002  0.1262015E+03  0.7546771E-02  0.1233203E+00
         21   -1    0    0  504  502  0.00000000000E+00  0.00000000000E+00  0.34247243891E+02  0.34247243891E+02  0.00000000000E+00 0. -1.
         21   -1    0    0  502  503 -0.00000000000E+00 -0.00000000000E+00 -0.15718278358E+03  0.15718278358E+03  0.00000000000E+00 0. -1.
         25    2    1    2    0    0  0.14929914731E+02  0.88821691913E+01 -0.92809023291E+02  0.15665356598E+03  0.12500011859E+03 0.  0.
          5    1    3    3  501    0 -0.10229031936E+02  0.31257649155E+02 -0.11279965182E+03  0.11749657516E+03  0.10000000000E+00 0.  1.
         -5    1    3    3    0  501  0.25158946667E+02 -0.22375479963E+02  0.19990628527E+02  0.39156990818E+02  0.10000000000E+00 0.  1.
         21    1    1    2  504  503 -0.14929914731E+02 -0.88821691913E+01 -0.30126516402E+02  0.34776461493E+02  0.00000000000E+00 0.  1.
<mgrwt>
<rscale>  1 0.12620153E+03</rscale>
<asrwt>0</asrwt>
<pdfrwt beam="1">  1       21 0.52688068E-02 0.12620153E+03</pdfrwt>
<pdfrwt beam="2">  1       21 0.24181966E-01 0.12620153E+03</pdfrwt>
<totfact> 0.39196447E+06</totfact>
</mgrwt>
</event>
<event>
 6    1  0.4180481E-002  0.1283268E+03  0.7546771E-02  0.1229960E+00
         21   -1    0    0  504  502  0.00000000000E+00  0.00000000000E+00  0.65296984084E+01  0.65296984084E+01  0.00000000000E+00 0. -1.
         21   -1    0    0  502  503 -0.00000000000E+00 -0.00000000000E+00 -0.11426717315E+04  0.11426717315E+04  0.00000000000E+00 0. -1.
         25    2    1    2    0    0 -0.25883484437E+02  0.13064676379E+02 -0.67126702106E+03  0.68342313786E+03  0.12500852475E+03 0.  0.
          5    1    3    3  501    0  0.42114934693E+02 -0.26318547549E+02 -0.24797647793E+03  0.25290052842E+03  0.10000000000E+00 0. -1.
         -5    1    3    3    0  501 -0.67998419131E+02  0.39383223928E+02 -0.42329054314E+03  0.43052260944E+03  0.10000000000E+00 0. -1.
         21    1    1    2  504  503  0.25883484437E+02 -0.13064676379E+02 -0.46487501200E+03  0.46577829202E+03  0.00000000000E+00 0. -1.
<mgrwt>
<rscale>  1 0.12832682E+03</rscale>
<asrwt>0</asrwt>
<pdfrwt beam="1">  1       21 0.10045693E-02 0.12832682E+03</pdfrwt>
<pdfrwt beam="2">  1       21 0.17579560E+00 0.12832682E+03</pdfrwt>
<totfact> 0.73734218E+05</totfact>
</mgrwt>
</event>
<event>
 6    1  0.4180481E-002  0.1266704E+03  0.7546771E-02  0.1232482E+00
         21   -1    0    0  504  502  0.00000000000E+00  0.00000000000E+00  0.12514226723E+04  0.12514226723E+04  0.00000000000E+00 0. -1.
         21   -1    0    0  502  503 -0.00000000000E+00 -0.00000000000E+00 -0.48237199095E+02  0.48237199095E+02  0.00000000000E+00 0. -1.
         25    2    1    2    0    0 -0.17319300260E+02  0.10850756754E+02  0.12458920801E+04  0.12523148468E+04  0.12501081228E+03 0.  0.
          5    1    3    3  501    0 -0.40444771619E+02 -0.47721698150E+02  0.53699276084E+03  0.54062406090E+03  0.10000000000E+00 0.  1.
         -5    1    3    3    0  501  0.23125471358E+02  0.58572454904E+02  0.70889931925E+03  0.71169078590E+03  0.10000000000E+00 0.  1.
         21    1    1    2  504  503  0.17319300260E+02 -0.10850756754E+02 -0.42706606880E+02  0.47345024605E+02  0.00000000000E+00 0. -1.
<mgrwt>
<rscale>  1 0.12667044E+03</rscale>
<asrwt>0</asrwt>
<pdfrwt beam="1">  1       21 0.19252654E+00 0.12667044E+03</pdfrwt>
<pdfrwt beam="2">  1       21 0.74211085E-02 0.12667044E+03</pdfrwt>
<totfact> 0.21681477E+04</totfact>
</mgrwt>
</event>
<event>
 6    1  0.4180481E-002  0.2285166E+03  0.7546771E-02  0.1127688E+00
         21   -1    0    0  503  502  0.00000000000E+00  0.00000000000E+00  0.21807953771E+03  0.21807953771E+03  0.00000000000E+00 0. -1.
         21   -1    0    0  504  503 -0.00000000000E+00 -0.00000000000E+00 -0.60062302772E+03  0.60062302772E+03  0.00000000000E+00 0. -1.
         25    2    1    2    0    0 -0.43552760766E+02  0.18627408881E+03  0.13605076285E+03  0.26595047069E+03  0.12499985462E+03 0.  0.
          5    1    3    3  501    0  0.31129476713E+02  0.11480223169E+03  0.10322297762E+03  0.15749155479E+03  0.10000000000E+00 0.  1.
         -5    1    3    3    0  501 -0.74682237479E+02  0.71471857121E+02  0.32827785232E+02  0.10845891590E+03  0.10000000000E+00 0.  1.
         21    1    1    2  504  502  0.43552760766E+02 -0.18627408881E+03 -0.51859425286E+03  0.55275209474E+03  0.00000000000E+00 0. -1.
<mgrwt>
<rscale>  1 0.22851661E+03</rscale>
<asrwt>0</asrwt>
<pdfrwt beam="1">  1       21 0.33550699E-01 0.22851661E+03</pdfrwt>
<pdfrwt beam="2">  1       21 0.92403541E-01 0.22851661E+03</pdfrwt>
<totfact> 0.82499929E+03</totfact>
</mgrwt>
</event>
<event>
 6    1  0.4180481E-002  0.1351187E+03  0.7546771E-02  0.1220052E+00
         21   -1    0    0  503  502  0.00000000000E+00  0.00000000000E+00  0.75107135477E+02  0.75107135477E+02  0.00000000000E+00 0.  1.
         21   -1    0    0  504  503 -0.00000000000E+00 -0.00000000000E+00 -0.13688990490E+03  0.13688990490E+03  0.00000000000E+00 0.  1.
         25    2    1    2    0    0  0.33338528395E+02  0.38993222010E+02 -0.46324676394E+01  0.13519804408E+03  0.12500049011E+03 0.  0.
          5    1    3    3  501    0 -0.38391479045E+02 -0.14919835823E+02  0.14092991026E+02  0.43533085812E+02  0.10000000000E+00 0. -1.
         -5    1    3    3    0  501  0.71730007439E+02  0.53913057833E+02 -0.18725458666E+02  0.91664958269E+02  0.10000000000E+00 0. -1.
         21    1    1    2  504  502 -0.33338528395E+02 -0.38993222010E+02 -0.57150301781E+02  0.76798996295E+02  0.00000000000E+00 0.  1.
<mgrwt>
<rscale>  1 0.13511866E+03</rscale>
<asrwt>0</asrwt>
<pdfrwt beam="1">  1       21 0.11554944E-01 0.13511866E+03</pdfrwt>
<pdfrwt beam="2">  1       21 0.21059985E-01 0.13511866E+03</pdfrwt>
<totfact> 0.13142382E+06</totfact>
</mgrwt>
</event>
<event>
 6    1  0.4180481E-002  0.1278366E+03  0.7546771E-02  0.1230702E+00
         21   -1    0    0  504  502  0.00000000000E+00  0.00000000000E+00  0.62036976833E+01  0.62036976833E+01  0.00000000000E+00 0.  1.
         21   -1    0    0  502  503 -0.00000000000E+00 -0.00000000000E+00 -0.23284848842E+04  0.23284848842E+04  0.00000000000E+00 0.  1.
         25    2    1    2    0    0  0.12835437090E+02  0.23487649210E+02 -0.66413972785E+03  0.67633110683E+03  0.12500307936E+03 0.  0.
          5    1    3    3  501    0  0.22216155492E+02  0.66383853644E+02 -0.54270951492E+03  0.54720562969E+03  0.10000000000E+00 0.  1.
         -5    1    3    3    0  501 -0.93807184019E+01 -0.42896204434E+02 -0.12143021293E+03  0.12912547714E+03  0.10000000000E+00 0.  1.
         21    1    1    2  504  503 -0.12835437090E+02 -0.23487649210E+02 -0.16581414587E+04  0.16583574751E+04  0.00000000000E+00 0.  1.
<mgrwt>
<rscale>  1 0.12783657E+03</rscale>
<asrwt>0</asrwt>
<pdfrwt beam="1">  1       21 0.95441557E-03 0.12783657E+03</pdfrwt>
<pdfrwt beam="2">  1       21 0.35822824E+00 0.12783657E+03</pdfrwt>
<totfact> 0.68143163E+04</totfact>
</mgrwt>
</event>
<event>
 6    1  0.4180481E-002  0.1264377E+03  0.7546771E-02  0.1232839E+00
         21   -1    0    0  504  502  0.00000000000E+00  0.00000000000E+00  0.51360013895E+02  0.51360013895E+02  0.00000000000E+00 0.  1.
         21   -1    0    0  502  503 -0.00000000000E+00 -0.00000000000E+00 -0.10437080966E+03  0.10437080966E+03  0.00000000000E+00 0.  1.
         25    2    1    2    0    0  0.12513713566E+02  0.14211810842E+02 -0.39482553094E+02  0.13245891035E+03  0.12501168880E+03 0.  0.
          5    1    3    3  501    0 -0.14760504697E+02  0.27103316683E+02 -0.77796059086E+02  0.83694080337E+02  0.10000000000E+00 0.  1.
         -5    1    3    3    0  501  0.27274218264E+02 -0.12891505840E+02  0.38313505992E+02  0.48764830012E+02  0.10000000000E+00 0.  1.
         21    1    1    2  504  503 -0.12513713566E+02 -0.14211810842E+02 -0.13528242674E+02  0.23271913211E+02  0.00000000000E+00 0.  1.
<mgrwt>
<rscale>  1 0.12643770E+03</rscale>
<asrwt>0</asrwt>
<pdfrwt beam="1">  1       21 0.79015407E-02 0.12643770E+03</pdfrwt>
<pdfrwt beam="2">  1       21 0.16057047E-01 0.12643770E+03</pdfrwt>
<totfact> 0.41874484E+06</totfact>
</mgrwt>
</event>
<event>
 6    1  0.4180481E-002  0.1277803E+03  0.7546771E-02  0.1230787E+00
         21   -1    0    0  504  502  0.00000000000E+00  0.00000000000E+00  0.94966642089E+03  0.94966642089E+03  0.00000000000E+00 0.  1.
         21   -1    0    0  502  503 -0.00000000000E+00 -0.00000000000E+00 -0.38221170203E+02  0.38221170203E+02  0.00000000000E+00 0. -1.
         25    2    1    2    0    0  0.22235888788E+02  0.14387295165E+02  0.94017169834E+03  0.94881537837E+03  0.12500548332E+03 0.  0.
          5    1    3    3  501    0  0.70127330304E+02  0.16552140305E+02  0.39325752596E+03  0.39980408643E+03  0.10000000000E+00 0.  1.
         -5    1    3    3    0  501 -0.47891441516E+02 -0.21648451403E+01  0.54691417238E+03  0.54901129194E+03  0.10000000000E+00 0.  1.
         21    1    1    2  504  503 -0.22235888788E+02 -0.14387295165E+02 -0.28726447652E+02  0.39072212723E+02  0.00000000000E+00 0. -1.
<mgrwt>
<rscale>  1 0.12778028E+03</rscale>
<asrwt>0</asrwt>
<pdfrwt beam="1">  1       21 0.14610251E+00 0.12778028E+03</pdfrwt>
<pdfrwt beam="2">  1       21 0.58801808E-02 0.12778028E+03</pdfrwt>
<totfact> 0.67755056E+04</totfact>
</mgrwt>
</event>
<event>
 6    1  0.4180481E-002  0.1261126E+03  0.7546771E-02  0.1233341E+00
         21   -1    0    0  503  502  0.00000000000E+00  0.00000000000E+00  0.46715674559E+03  0.46715674559E+03  0.00000000000E+00 0. -1.
         21   -1    0    0  504  503 -0.00000000000E+00 -0.00000000000E+00 -0.11755108776E+02  0.11755108776E+02  0.00000000000E+00 0. -1.
         25    2    1    2    0    0 -0.85060055831E+01  0.14390667413E+02  0.34653818903E+03  0.36877242590E+03  0.12499976883E+03 0.  0.
          5    1    3    3  501    0  0.26324505318E+02 -0.45320651174E+02  0.10236278817E+03  0.11500039741E+03  0.10000000000E+00 0.  1.
         -5    1    3    3    0  501 -0.34830510901E+02  0.59711318587E+02  0.24417540086E+03  0.25377202848E+03  0.10000000000E+00 0.  1.
         21    1    1    2  504  502  0.85060055831E+01 -0.14390667413E+02  0.10886344779E+03  0.11013942847E+03  0.00000000000E+00 0. -1.
<mgrwt>
<rscale>  1 0.12611259E+03</rscale>
<asrwt>0</asrwt>
<pdfrwt beam="1">  1       21 0.71870254E-01 0.12611259E+03</pdfrwt>
<pdfrwt beam="2">  1       21 0.18084786E-02 0.12611259E+03</pdfrwt>
<totfact> 0.25200780E+06</totfact>
</mgrwt>
</event>
<event>
 6    1  0.4180481E-002  0.1290146E+03  0.7546771E-02  0.1228925E+00
         21   -1    0    0  503  502  0.00000000000E+00  0.00000000000E+00  0.49422730636E+03  0.49422730636E+03  0.00000000000E+00 0.  1.
         21   -1    0    0  504  503 -0.00000000000E+00 -0.00000000000E+00 -0.13802477654E+02  0.13802477654E+02  0.00000000000E+00 0.  1.
         25    2    1    2    0    0 -0.29844542751E+02 -0.11562479517E+02  0.42360166948E+03  0.44281276868E+03  0.12498154286E+03 0.  0.
          5    1    3    3  501    0 -0.74688883896E+02 -0.13976446563E+02  0.18457641472E+03  0.19960519359E+03  0.10000000000E+00 0.  1.
         -5    1    3    3    0  501  0.44844341144E+02  0.24139670465E+01  0.23902525476E+03  0.24320757509E+03  0.10000000000E+00 0.  1.
         21    1    1    2  504  502  0.29844542751E+02  0.11562479517E+02  0.56823159235E+02  0.65217015341E+02  0.00000000000E+00 0.  1.
<mgrwt>
<rscale>  1 0.12901463E+03</rscale>
<asrwt>0</asrwt>
<pdfrwt beam="1">  1       21 0.76034957E-01 0.12901463E+03</pdfrwt>
<pdfrwt beam="2">  1       21 0.21234585E-02 0.12901463E+03</pdfrwt>
<totfact> 0.17193873E+06</totfact>
</mgrwt>
</event>
<event>
 6    1  0.4180481E-002  0.1272633E+03  0.7546771E-02  0.1231574E+00
         21   -1    0    0  503  502  0.00000000000E+00  0.00000000000E+00  0.20790936565E+02  0.20790936565E+02  0.00000000000E+00 0. -1.
         21   -1    0    0  504  503 -0.00000000000E+00 -0.00000000000E+00 -0.45263548838E+03  0.45263548838E+03  0.00000000000E+00 0. -1.
         25    2    1    2    0    0  0.11369201335E+02  0.20961482358E+02 -0.17994098484E+03  0.22039668453E+03  0.12500919184E+03 0.  0.
          5    1    3    3  501    0  0.14391140673E+02 -0.31594995661E+02 -0.16060474339E+03  0.16431446156E+03  0.10000000000E+00 0.  1.
         -5    1    3    3    0  501 -0.30219393378E+01  0.52556478019E+02 -0.19336241456E+02  0.56082222966E+02  0.10000000000E+00 0.  1.
         21    1    1    2  504  502 -0.11369201335E+02 -0.20961482358E+02 -0.25190356697E+03  0.25302974041E+03  0.00000000000E+00 0. -1.
<mgrwt>
<rscale>  1 0.12726327E+03</rscale>
<asrwt>0</asrwt>
<pdfrwt beam="1">  1       21 0.31986057E-02 0.12726327E+03</pdfrwt>
<pdfrwt beam="2">  1       21 0.69636228E-01 0.12726327E+03</pdfrwt>
<totfact> 0.10691998E+06</totfact>
</mgrwt>
</event>
<event>
 6    1  0.4180481E-002  0.1383766E+03  0.7546771E-02  0.1215530E+00
         21   -1    0    0  504  502  0.00000000000E+00  0.00000000000E+00  0.10594463323E+02  0.10594463323E+02  0.00000000000E+00 0. -1.
         21   -1    0    0  502  503 -0.00000000000E+00 -0.00000000000E+00 -0.14277377162E+04  0.14277377162E+04  0.00000000000E+00 0. -1.
         25    2    1    2    0    0  0.26920439255E+02 -0.52897346355E+02 -0.48646048786E+03  0.50575872483E+03  0.12500096876E+03 0.  0.
          5    1    3    3  501    0  0.50397958413E+02 -0.74604818746E+02 -0.22490942586E+03  0.24226038271E+03  0.10000000000E+00 0. -1.
         -5    1    3    3    0  501 -0.23477519157E+02  0.21707472391E+02 -0.26155106201E+03  0.26349834212E+03  0.10000000000E+00 0. -1.
         21    1    1    2  504  503 -0.26920439255E+02  0.52897346355E+02 -0.93068276502E+03  0.93257345470E+03  0.00000000000E+00 0. -1.
<mgrwt>
<rscale>  1 0.13837659E+03</rscale>
<asrwt>0</asrwt>
<pdfrwt beam="1">  1       21 0.16299170E-02 0.13837659E+03</pdfrwt>
<pdfrwt beam="2">  1       21 0.21965201E+00 0.13837659E+03</pdfrwt>
<totfact> 0.17897996E+05</totfact>
</mgrwt>
</event>
<event>
 6    1  0.4180481E-002  0.1319138E+03  0.7546771E-02  0.1224643E+00
         21   -1    0    0  504  502  0.00000000000E+00  0.00000000000E+00  0.16126432599E+03  0.16126432599E+03  0.00000000000E+00 0.  1.
         21   -1    0    0  502  503 -0.00000000000E+00 -0.00000000000E+00 -0.11226880816E+03  0.11226880816E+03  0.00000000000E+00 0.  1.
         25    2    1    2    0    0  0.36317080871E+02 -0.21353857890E+02  0.12812024948E+03  0.18389139850E+03  0.12500532191E+03 0.  0.
          5    1    3    3  501    0 -0.28450835312E+02 -0.49660549248E+02  0.35380677176E+02  0.67286124119E+02  0.10000000000E+00 0.  1.
         -5    1    3    3    0  501  0.64767916183E+02  0.28306691358E+02  0.92739572305E+02  0.11660527438E+03  0.10000000000E+00 0.  1.
         21    1    1    2  504  503 -0.36317080871E+02  0.21353857890E+02 -0.79124731652E+02  0.89641735642E+02  0.00000000000E+00 0.  1.
<mgrwt>
<rscale>  1 0.13191379E+03</rscale>
<asrwt>0</asrwt>
<pdfrwt beam="1">  1       21 0.24809896E-01 0.13191379E+03</pdfrwt>
<pdfrwt beam="2">  1       21 0.17272124E-01 0.13191379E+03</pdfrwt>
<totfact> 0.46957863E+05</totfact>
</mgrwt>
</event>
<event>
 6    1  0.4180481E-002  0.1679238E+03  0.7546771E-02  0.1180030E+00
         21   -1    0    0  503  502  0.00000000000E+00  0.00000000000E+00  0.51530752549E+02  0.51530752549E+02  0.00000000000E+00 0.  1.
         21   -1    0    0  504  503 -0.00000000000E+00 -0.00000000000E+00 -0.53589546946E+03  0.53589546946E+03  0.00000000000E+00 0.  1.
         25    2    1    2    0    0 -0.11123819471E+03  0.14145125098E+02 -0.12052688108E+03  0.20670061043E+03  0.12499757104E+03 0.  0.
          5    1    3    3  501    0 -0.11642887824E+02 -0.40428687663E+02 -0.13727746341E+01  0.42094300484E+02  0.10000000000E+00 0. -1.
         -5    1    3    3    0  501 -0.99595306883E+02  0.54573812762E+02 -0.11915410644E+03  0.16460630995E+03  0.10000000000E+00 0. -1.
         21    1    1    2  504  502  0.11123819471E+03 -0.14145125098E+02 -0.36383783583E+03  0.38072561157E+03  0.00000000000E+00 0.  1.
<mgrwt>
<rscale>  1 0.16792383E+03</rscale>
<asrwt>0</asrwt>
<pdfrwt beam="1">  1       21 0.79278083E-02 0.16792383E+03</pdfrwt>
<pdfrwt beam="2">  1       21 0.82445454E-01 0.16792383E+03</pdfrwt>
<totfact> 0.15795470E+05</totfact>
</mgrwt>
</event>
<event>
 6    1  0.4180481E-002  0.1383440E+03  0.7546771E-02  0.1215575E+00
         21   -1    0    0  503  502  0.00000000000E+00  0.00000000000E+00  0.55715278510E+03  0.55715278510E+03  0.00000000000E+00 0.  1.
         21   -1    0    0  504  503 -0.00000000000E+00 -0.00000000000E+00 -0.57563814464E+02  0.57563814464E+02  0.00000000000E+00 0.  1.
         25    2    1    2    0    0 -0.57407125443E+02  0.14750708124E+02  0.53023860713E+03  0.54798908156E+03  0.12500356629E+03 0.  0.
          5    1    3    3  501    0 -0.75977596827E+02  0.55088566120E+02  0.36898591538E+03  0.38073345149E+03  0.10000000000E+00 0.  1.
         -5    1    3    3    0  501  0.18570471384E+02 -0.40337857996E+02  0.16125269175E+03  0.16725563007E+03  0.10000000000E+00 0.  1.
         21    1    1    2  504  502  0.57407125443E+02 -0.14750708124E+02 -0.30649636489E+02  0.66727518002E+02  0.00000000000E+00 0.  1.
<mgrwt>
<rscale>  1 0.13834397E+03</rscale>
<asrwt>0</asrwt>
<pdfrwt beam="1">  1       21 0.85715809E-01 0.13834397E+03</pdfrwt>
<pdfrwt beam="2">  1       21 0.88559718E-02 0.13834397E+03</pdfrwt>
<totfact> 0.12057929E+05</totfact>
</mgrwt>
</event>
<event>
 6    1  0.4180481E-002  0.1268765E+03  0.7546771E-02  0.1232166E+00
         21   -1    0    0  503  502  0.00000000000E+00  0.00000000000E+00  0.10639859395E+03  0.10639859395E+03  0.00000000000E+00 0. -1.
         21   -1    0    0  504  503 -0.00000000000E+00 -0.00000000000E+00 -0.17186374423E+03  0.17186374423E+03  0.00000000000E+00 0. -1.
         25    2    1    2    0    0  0.17801114998E+02  0.12629618445E+02  0.67364779651E+02  0.14365113047E+03  0.12498498627E+03 0.  0.
          5    1    3    3  501    0  0.14406533418E+02  0.41157021820E+02 -0.22668129959E+02  0.49145729887E+02  0.10000000000E+00 0.  1.
         -5    1    3    3    0  501  0.33945815796E+01 -0.28527403375E+02  0.90032909610E+02  0.94505400587E+02  0.10000000000E+00 0.  1.
         21    1    1    2  504  502 -0.17801114998E+02 -0.12629618445E+02 -0.13282992992E+03  0.13461120771E+03  0.00000000000E+00 0. -1.
<mgrwt>
<rscale>  1 0.12687645E+03</rscale>
<asrwt>0</asrwt>
<pdfrwt beam="1">  1       21 0.16369014E-01 0.12687645E+03</pdfrwt>
<pdfrwt beam="2">  1       21 0.26440576E-01 0.12687645E+03</pdfrwt>
<totfact> 0.45913945E+05</totfact>
</mgrwt>
</event>
<event>
 6    1  0.4180481E-002  0.1264468E+03  0.7546771E-02  0.1232825E+00
         21   -1    0    0  504  502  0.00000000000E+00  0.00000000000E+00  0.91915032240E+02  0.91915032240E+02  0.00000000000E+00 0.  1.
         21   -1    0    0  502  503 -0.00000000000E+00 -0.00000000000E+00 -0.76890959973E+02  0.76890959973E+02  0.00000000000E+00 0.  1.
         25    2    1    2    0    0 -0.32619251892E+01 -0.18786397568E+02  0.44202201555E+02  0.13395011583E+03  0.12500092008E+03 0.  0.
          5    1    3    3  501    0  0.55198782608E+02 -0.33242850230E+02  0.34047639258E+02  0.72878285050E+02  0.10000000000E+00 0. -1.
         -5    1    3    3    0  501 -0.58460707797E+02  0.14456452662E+02  0.10154562297E+02  0.61071830782E+02  0.10000000000E+00 0. -1.
         21    1    1    2  504  503  0.32619251892E+01  0.18786397568E+02 -0.29178129288E+02  0.34855876380E+02  0.00000000000E+00 0.  1.
<mgrwt>
<rscale>  1 0.12644682E+03</rscale>
<asrwt>0</asrwt>
<pdfrwt beam="1">  1       21 0.14140774E-01 0.12644682E+03</pdfrwt>
<pdfrwt beam="2">  1       21 0.11829378E-01 0.12644682E+03</pdfrwt>
<totfact> 0.26041924E+06</totfact>
</mgrwt>
</event>
<event>
 6    1  0.4180481E-002  0.1288910E+03  0.7546771E-02  0.1229111E+00
         21   -1    0    0  503  502  0.00000000000E+00  0.00000000000E+00  0.23271470578E+03  0.23271470578E+03  0.00000000000E+00 0.  1.
         21   -1    0    0  504  503 -0.00000000000E+00 -0.00000000000E+00 -0.10523152719E+03  0.10523152719E+03  0.00000000000E+00 0.  1.
         25    2    1    2    0    0  0.14779927700E+02 -0.27732276827E+02  0.21181562358E+03  0.24794908458E+03  0.12500145883E+03 0.  0.
          5    1    3    3  501    0 -0.11027904316E+02  0.11175663462E+01 -0.14553518682E+02  0.18294221332E+02  0.10000000000E+00 0.  1.
         -5    1    3    3    0  501  0.25807832016E+02 -0.28849843174E+02  0.22636914226E+03  0.22965486324E+03  0.10000000000E+00 0.  1.
         21    1    1    2  504  502 -0.14779927700E+02  0.27732276827E+02 -0.84332444987E+02  0.89997148390E+02  0.00000000000E+00 0.  1.
<mgrwt>
<rscale>  1 0.12889100E+03</rscale>
<asrwt>0</asrwt>
<pdfrwt beam="1">  1       21 0.35802262E-01 0.12889100E+03</pdfrwt>
<pdfrwt beam="2">  1       21 0.16189466E-01 0.12889100E+03</pdfrwt>
<totfact> 0.26053461E+05</totfact>
</mgrwt>
</event>
<event>
 6    1  0.4180481E-002  0.1268195E+03  0.7546771E-02  0.1232253E+00
         21   -1    0    0  504  502  0.00000000000E+00  0.00000000000E+00  0.47002038687E+03  0.47002038687E+03  0.00000000000E+00 0. -1.
         21   -1    0    0  502  503 -0.00000000000E+00 -0.00000000000E+00 -0.73502685271E+02  0.73502685271E+02  0.00000000000E+00 0. -1.
         25    2    1    2    0    0 -0.34005403153E+01  0.21145635951E+02  0.45966708262E+03  0.47684064629E+03  0.12499789403E+03 0.  0.
          5    1    3    3  501    0  0.41503052160E+02 -0.35311025590E+02  0.18495927902E+03  0.19281938897E+03  0.10000000000E+00 0. -1.
         -5    1    3    3    0  501 -0.44903592475E+02  0.56456661541E+02  0.27470780360E+03  0.28402125732E+03  0.10000000000E+00 0. -1.
         21    1    1    2  504  503  0.34005403153E+01 -0.21145635951E+02 -0.63149381022E+02  0.66682425853E+02  0.00000000000E+00 0. -1.
<mgrwt>
<rscale>  1 0.12681946E+03</rscale>
<asrwt>0</asrwt>
<pdfrwt beam="1">  1       21 0.72310827E-01 0.12681946E+03</pdfrwt>
<pdfrwt beam="2">  1       21 0.11308106E-01 0.12681946E+03</pdfrwt>
<totfact> 0.11535888E+05</totfact>
</mgrwt>
</event>
<event>
 6    1  0.4180481E-002  0.1259440E+03  0.7546771E-02  0.1233601E+00
         21   -1    0    0  504  502  0.00000000000E+00  0.00000000000E+00  0.76291414381E+01  0.76291414381E+01  0.00000000000E+00 0. -1.
         21   -1    0    0  502  503 -0.00000000000E+00 -0.00000000000E+00 -0.10434785069E+04  0.10434785069E+04  0.00000000000E+00 0. -1.
         25    2    1    2    0    0 -0.84639920135E+00  0.15318362154E+02 -0.52015448548E+03  0.53518461352E+03  0.12500605257E+03 0.  0.
          5    1    3    3  501    0  0.28062380935E+02  0.63255675195E+02 -0.31646851314E+03  0.32394614904E+03  0.10000000000E+00 0.  1.
         -5    1    3    3    0  501 -0.28908780136E+02 -0.47937313041E+02 -0.20368597234E+03  0.21123846448E+03  0.10000000000E+00 0.  1.
         21    1    1    2  504  503  0.84639920135E+00 -0.15318362154E+02 -0.51569488003E+03  0.51592303486E+03  0.00000000000E+00 0. -1.
<mgrwt>
<rscale>  1 0.12594396E+03</rscale>
<asrwt>0</asrwt>
<pdfrwt beam="1">  1       21 0.11737150E-02 0.12594396E+03</pdfrwt>
<pdfrwt beam="2">  1       21 0.16053502E+00 0.12594396E+03</pdfrwt>
<totfact> 0.73678011E+05</totfact>
</mgrwt>
</event>
<event>
 6    1  0.4180481E-002  0.1640650E+03  0.7546771E-02  0.1184182E+00
         21   -1    0    0  503  502  0.00000000000E+00  0.00000000000E+00  0.92193629780E+02  0.92193629780E+02  0.00000000000E+00 0.  1.
         21   -1    0    0  504  503 -0.00000000000E+00 -0.00000000000E+00 -0.21950171668E+03  0.21950171668E+03  0.00000000000E+00 0.  1.
         25    2    1    2    0    0  0.20542819913E+02 -0.10425632038E+03 -0.28359105027E+02  0.16649793325E+03  0.12500374054E+03 0.  0.
          5    1    3    3  501    0  0.52405076627E+02 -0.10085493923E+03 -0.53643039270E+02  0.12568053344E+03  0.10000000000E+00 0. -1.
         -5    1    3    3    0  501 -0.31862256714E+02 -0.34013811530E+01  0.25283934243E+02  0.40817399813E+02  0.10000000000E+00 0. -1.
         21    1    1    2  504  502 -0.20542819913E+02  0.10425632038E+03 -0.98948981876E+02  0.14519741321E+03  0.00000000000E+00 0.  1.
<mgrwt>
<rscale>  1 0.16406500E+03</rscale>
<asrwt>0</asrwt>
<pdfrwt beam="1">  1       21 0.14183635E-01 0.16406500E+03</pdfrwt>
<pdfrwt beam="2">  1       21 0.33769495E-01 0.16406500E+03</pdfrwt>
<totfact> 0.36903901E+05</totfact>
</mgrwt>
</event>
<event>
 6    1  0.4180481E-002  0.1469870E+03  0.7546771E-02  0.1204225E+00
         21   -1    0    0  503  502  0.00000000000E+00  0.00000000000E+00  0.20270915722E+03  0.20270915722E+03  0.00000000000E+00 0.  1.
         21   -1    0    0  504  503 -0.00000000000E+00 -0.00000000000E+00 -0.62231798919E+02  0.62231798919E+02  0.00000000000E+00 0.  1.
         25    2    1    2    0    0 -0.67092104844E+01  0.77040939020E+02  0.98635216987E+02  0.17701436983E+03  0.12499944522E+03 0.  0.
          5    1    3    3  501    0  0.79766155389E+01  0.35501610847E+02  0.12188271152E+03  0.12719825524E+03  0.10000000000E+00 0. -1.
         -5    1    3    3    0  501 -0.14685826023E+02  0.41539328173E+02 -0.23247494533E+02  0.49816114593E+02  0.10000000000E+00 0. -1.
         21    1    1    2  504  502  0.67092104844E+01 -0.77040939020E+02  0.41842141319E+02  0.87926586312E+02  0.00000000000E+00 0.  1.
<mgrwt>
<rscale>  1 0.14698701E+03</rscale>
<asrwt>0</asrwt>
<pdfrwt beam="1">  1       21 0.31186024E-01 0.14698701E+03</pdfrwt>
<pdfrwt beam="2">  1       21 0.95741230E-02 0.14698701E+03</pdfrwt>
<totfact> 0.86814630E+05</totfact>
</mgrwt>
</event>
<event>
 6    1  0.4180481E-002  0.1601579E+03  0.7546771E-02  0.1188519E+00
         21   -1    0    0  504  502  0.00000000000E+00  0.00000000000E+00  0.17228929142E+04  0.17228929142E+04  0.00000000000E+00 0. -1.
         21   -1    0    0  502  503 -0.00000000000E+00 -0.00000000000E+00 -0.69711210073E+02  0.69711210073E+02  0.00000000000E+00 0. -1.
         25    2    1    2    0    0 -0.61390540609E+02  0.79100350456E+02  0.16810562454E+04  0.16886683077E+04  0.12499955757E+03 0.  0.
          5    1    3    3  501    0 -0.19155355614E+02  0.20878151626E+01  0.11672241469E+04  0.11673831872E+04  0.10000000000E+00 0.  1.
         -5    1    3    3    0  501 -0.42235184995E+02  0.77012535294E+02  0.51383209850E+03  0.52128512053E+03  0.10000000000E+00 0.  1.
         21    1    1    2  504  503  0.61390540609E+02 -0.79100350456E+02 -0.27874541242E+02  0.10393581658E+03  0.00000000000E+00 0. -1.
<mgrwt>
<rscale>  1 0.16015790E+03</rscale>
<asrwt>0</asrwt>
<pdfrwt beam="1">  1       21 0.26506042E+00 0.16015790E+03</pdfrwt>
<pdfrwt beam="2">  1       21 0.10724803E-01 0.16015790E+03</pdfrwt>
<totfact> 0.40459703E+03</totfact>
</mgrwt>
</event>
<event>
 6    1  0.4180481E-002  0.1259473E+03  0.7546771E-02  0.1233596E+00
         21   -1    0    0  504  502  0.00000000000E+00  0.00000000000E+00  0.47485677743E+01  0.47485677743E+01  0.00000000000E+00 0. -1.
         21   -1    0    0  502  503 -0.00000000000E+00 -0.00000000000E+00 -0.10603543937E+04  0.10603543937E+04  0.00000000000E+00 0. -1.
         25    2    1    2    0    0 -0.15054419712E+02 -0.33340365898E+01 -0.90785390238E+03  0.91654865402E+03  0.12499990304E+03 0.  0.
          5    1    3    3  501    0  0.34917509966E+02  0.76380502705E+01 -0.86380227456E+02  0.93483292675E+02  0.10000000000E+00 0.  1.
         -5    1    3    3    0  501 -0.49971929678E+02 -0.10972086860E+02 -0.82147367493E+03  0.82306536134E+03  0.10000000000E+00 0.  1.
         21    1    1    2  504  503  0.15054419712E+02  0.33340365898E+01 -0.14775192356E+03  0.14855430748E+03  0.00000000000E+00 0. -1.
<mgrwt>
<rscale>  1 0.12594732E+03</rscale>
<asrwt>0</asrwt>
<pdfrwt beam="1">  1       21 0.73054897E-03 0.12594732E+03</pdfrwt>
<pdfrwt beam="2">  1       21 0.16313143E+00 0.12594732E+03</pdfrwt>
<totfact> 0.14872479E+06</totfact>
</mgrwt>
</event>
<event>
 6    1  0.4180481E-002  0.1265019E+03  0.7546771E-02  0.1232741E+00
         21   -1    0    0  503  502  0.00000000000E+00  0.00000000000E+00  0.17546864825E+02  0.17546864825E+02  0.00000000000E+00 0. -1.
         21   -1    0    0  504  503 -0.00000000000E+00 -0.00000000000E+00 -0.49259458038E+03  0.49259458038E+03  0.00000000000E+00 0. -1.
         25    2    1    2    0    0  0.98743833141E+01 -0.16721038569E+02 -0.21563101891E+03  0.24999894758E+03  0.12500256355E+03 0.  0.
          5    1    3    3  501    0  0.94097454505E+01 -0.49583428018E+02 -0.21082743005E+03  0.21678393599E+03  0.10000000000E+00 0.  1.
         -5    1    3    3    0  501  0.46463786359E+00  0.32862389449E+02 -0.48035888666E+01  0.33215011585E+02  0.10000000000E+00 0.  1.
         21    1    1    2  504  502 -0.98743833141E+01  0.16721038569E+02 -0.25941669664E+03  0.26014249763E+03  0.00000000000E+00 0. -1.
<mgrwt>
<rscale>  1 0.12650193E+03</rscale>
<asrwt>0</asrwt>
<pdfrwt beam="1">  1       21 0.26995179E-02 0.12650193E+03</pdfrwt>
<pdfrwt beam="2">  1       21 0.75783775E-01 0.12650193E+03</pdfrwt>
<totfact> 0.11725056E+06</totfact>
</mgrwt>
</event>
<event>
 6    1  0.4180481E-002  0.1363449E+03  0.7546771E-02  0.1218333E+00
         21   -1    0    0  504  502  0.00000000000E+00  0.00000000000E+00  0.46875039488E+02  0.46875039488E+02  0.00000000000E+00 0.  1.
         21   -1    0    0  502  503 -0.00000000000E+00 -0.00000000000E+00 -0.32709883336E+03  0.32709883336E+03  0.00000000000E+00 0.  1.
         25    2    1    2    0    0  0.52072662311E+02  0.15925448714E+02 -0.63304652578E+02  0.15032437936E+03  0.12499903166E+03 0.  0.
          5    1    3    3  501    0  0.76657158346E+02  0.15862357720E+02 -0.86403072338E+02  0.11659088827E+03  0.10000000000E+00 0.  1.
         -5    1    3    3    0  501 -0.24584496035E+02  0.63090993804E-01  0.23098419760E+02  0.33733491091E+02  0.10000000000E+00 0.  1.
         21    1    1    2  504  503 -0.52072662311E+02 -0.15925448714E+02 -0.21691914130E+03  0.22364949349E+03  0.00000000000E+00 0.  1.
<mgrwt>
<rscale>  1 0.13634493E+03</rscale>
<asrwt>0</asrwt>
<pdfrwt beam="1">  1       21 0.72115445E-02 0.13634493E+03</pdfrwt>
<pdfrwt beam="2">  1       21 0.50322897E-01 0.13634493E+03</pdfrwt>
<totfact> 0.54419147E+05</totfact>
</mgrwt>
</event>
<event>
 6    1  0.4180481E-002  0.1312239E+03  0.7546771E-02  0.1225651E+00
         21   -1    0    0  503  502  0.00000000000E+00  0.00000000000E+00  0.52271817831E+02  0.52271817831E+02  0.00000000000E+00 0.  1.
         21   -1    0    0  504  503 -0.00000000000E+00 -0.00000000000E+00 -0.36265486820E+03  0.36265486820E+03  0.00000000000E+00 0.  1.
         25    2    1    2    0    0 -0.28790404457E+02  0.27694891561E+02 -0.33845214275E+02  0.13551825882E+03  0.12499522205E+03 0.  0.
          5    1    3    3  501    0  0.36052047306E+02  0.11206739143E+02  0.25928770401E+02  0.45800133752E+02  0.10000000000E+00 0.  1.
         -5    1    3    3    0  501 -0.64842451763E+02  0.16488152418E+02 -0.59773984676E+02  0.89718125063E+02  0.10000000000E+00 0.  1.
         21    1    1    2  504  502  0.28790404457E+02 -0.27694891561E+02 -0.27653783610E+03  0.27940842722E+03  0.00000000000E+00 0.  1.
<mgrwt>
<rscale>  1 0.13122385E+03</rscale>
<asrwt>0</asrwt>
<pdfrwt beam="1">  1       21 0.80418182E-02 0.13122385E+03</pdfrwt>
<pdfrwt beam="2">  1       21 0.55793056E-01 0.13122385E+03</pdfrwt>
<totfact> 0.36411029E+05</totfact>
</mgrwt>
</event>
<event>
 6    1  0.4180481E-002  0.1279463E+03  0.7546771E-02  0.1230535E+00
         21   -1    0    0  503  502  0.00000000000E+00  0.00000000000E+00  0.15261183123E+03  0.15261183123E+03  0.00000000000E+00 0. -1.
         21   -1    0    0  504  503 -0.00000000000E+00 -0.00000000000E+00 -0.40040433336E+02  0.40040433336E+02  0.00000000000E+00 0. -1.
         25    2    1    2    0    0  0.19061693950E+02 -0.19666460494E+02  0.10061159661E+03  0.16276657081E+03  0.12498057991E+03 0.  0.
          5    1    3    3  501    0  0.51299987883E+02  0.36417046719E+02  0.55584277565E+02  0.83949460754E+02  0.10000000000E+00 0.  1.
         -5    1    3    3    0  501 -0.32238293933E+02 -0.56083507213E+02  0.45027319046E+02  0.78817110055E+02  0.10000000000E+00 0.  1.
         21    1    1    2  504  502 -0.19061693950E+02  0.19666460494E+02  0.11959801285E+02  0.29885693758E+02  0.00000000000E+00 0. -1.
<mgrwt>
<rscale>  1 0.12794633E+03</rscale>
<asrwt>0</asrwt>
<pdfrwt beam="1">  1       21 0.23478743E-01 0.12794633E+03</pdfrwt>
<pdfrwt beam="2">  1       21 0.61600667E-02 0.12794633E+03</pdfrwt>
<totfact> 0.31832595E+06</totfact>
</mgrwt>
</event>
<event>
 6    1  0.4180481E-002  0.1329193E+03  0.7546771E-02  0.1223187E+00
         21   -1    0    0  504  502  0.00000000000E+00  0.00000000000E+00  0.53025580802E+02  0.53025580802E+02  0.00000000000E+00 0.  1.
         21   -1    0    0  502  503 -0.00000000000E+00 -0.00000000000E+00 -0.26849613484E+03  0.26849613484E+03  0.00000000000E+00 0.  1.
         25    2    1    2    0    0  0.27638466687E+02  0.35770379670E+02 -0.37798378363E+02  0.13818921195E+03  0.12499654391E+03 0.  0.
          5    1    3    3  501    0  0.65654940125E+02  0.50969851425E+02 -0.48017655678E+02  0.95990635866E+02  0.10000000000E+00 0. -1.
         -5    1    3    3    0  501 -0.38016473438E+02 -0.15199471755E+02  0.10219277315E+02  0.42198576079E+02  0.10000000000E+00 0. -1.
         21    1    1    2  504  503 -0.27638466687E+02 -0.35770379670E+02 -0.17767217567E+03  0.18333250370E+03  0.00000000000E+00 0.  1.
<mgrwt>
<rscale>  1 0.13291930E+03</rscale>
<asrwt>0</asrwt>
<pdfrwt beam="1">  1       21 0.81577818E-02 0.13291930E+03</pdfrwt>
<pdfrwt beam="2">  1       21 0.41307097E-01 0.13291930E+03</pdfrwt>
<totfact> 0.65833385E+05</totfact>
</mgrwt>
</event>
<event>
 6    1  0.4180481E-002  0.1291191E+03  0.7546771E-02  0.1228769E+00
         21   -1    0    0  503  502  0.00000000000E+00  0.00000000000E+00  0.25215565977E+03  0.25215565977E+03  0.00000000000E+00 0. -1.
         21   -1    0    0  504  503 -0.00000000000E+00 -0.00000000000E+00 -0.27984582273E+02  0.27984582273E+02  0.00000000000E+00 0. -1.
         25    2    1    2    0    0 -0.73992177851E+01 -0.31520651126E+02  0.20569369112E+03  0.24286137835E+03  0.12499381846E+03 0.  0.
          5    1    3    3  501    0 -0.11126985047E+02 -0.59549350013E+02  0.20585644280E+03  0.21458522765E+03  0.10000000000E+00 0. -1.
         -5    1    3    3    0  501  0.37277672617E+01  0.28028698887E+02 -0.16275167896E+00  0.28276150696E+02  0.10000000000E+00 0. -1.
         21    1    1    2  504  502  0.73992177851E+01  0.31520651126E+02  0.18477386374E+02  0.37278863695E+02  0.00000000000E+00 0. -1.
<mgrwt>
<rscale>  1 0.12911915E+03</rscale>
<asrwt>0</asrwt>
<pdfrwt beam="1">  1       21 0.38793177E-01 0.12911915E+03</pdfrwt>
<pdfrwt beam="2">  1       21 0.43053205E-02 0.12911915E+03</pdfrwt>
<totfact> 0.22058743E+06</totfact>
</mgrwt>
</event>
<event>
 6    1  0.4180481E-002  0.1262569E+03  0.7546771E-02  0.1233118E+00
         21   -1    0    0  504  502  0.00000000000E+00  0.00000000000E+00  0.49634125979E+01  0.49634125979E+01  0.00000000000E+00 0. -1.
         21   -1    0    0  502  503 -0.00000000000E+00 -0.00000000000E+00 -0.10596673310E+04  0.10596673310E+04  0.00000000000E+00 0. -1.
         25    2    1    2    0    0 -0.12150509552E+02  0.12996848948E+02 -0.87763009481E+03  0.88666532008E+03  0.12499701420E+03 0.  0.
          5    1    3    3  501    0 -0.58990346830E+02  0.33721945077E+02 -0.34853242203E+03  0.35509419849E+03  0.10000000000E+00 0.  1.
         -5    1    3    3    0  501  0.46839837278E+02 -0.20725096129E+02 -0.52909767278E+03  0.53157112159E+03  0.10000000000E+00 0.  1.
         21    1    1    2  504  503  0.12150509552E+02 -0.12996848948E+02 -0.17707382355E+03  0.17796542347E+03  0.00000000000E+00 0.  1.
<mgrwt>
<rscale>  1 0.12625691E+03</rscale>
<asrwt>0</asrwt>
<pdfrwt beam="1">  1       21 0.76360266E-03 0.12625691E+03</pdfrwt>
<pdfrwt beam="2">  1       21 0.16302559E+00 0.12625691E+03</pdfrwt>
<totfact> 0.13903185E+06</totfact>
</mgrwt>
</event>
<event>
 6    1  0.4180481E-002  0.1355939E+03  0.7546771E-02  0.1219384E+00
         21   -1    0    0  503  502  0.00000000000E+00  0.00000000000E+00  0.11933549307E+03  0.11933549307E+03  0.00000000000E+00 0. -1.
         21   -1    0    0  504  503 -0.00000000000E+00 -0.00000000000E+00 -0.93830095388E+03  0.93830095388E+03  0.00000000000E+00 0. -1.
         25    2    1    2    0    0  0.28607537919E+02 -0.44088470805E+02  0.79801608984E+02  0.15733403651E+03  0.12499407092E+03 0.  0.
          5    1    3    3  501    0 -0.41096155493E+02 -0.61019970789E+01  0.64141369014E+02  0.76421551827E+02  0.10000000000E+00 0.  1.
         -5    1    3    3    0  501  0.69703693412E+02 -0.37986473726E+02  0.15660239970E+02  0.80912484682E+02  0.10000000000E+00 0.  1.
         21    1    1    2  504  502 -0.28607537919E+02  0.44088470805E+02 -0.89876706980E+03  0.90030241044E+03  0.00000000000E+00 0. -1.
<mgrwt>
<rscale>  1 0.13559389E+03</rscale>
<asrwt>0</asrwt>
<pdfrwt beam="1">  1       21 0.18359307E-01 0.13559389E+03</pdfrwt>
<pdfrwt beam="2">  1       21 0.14435399E+00 0.13559389E+03</pdfrwt>
<totfact> 0.93843308E+03</totfact>
</mgrwt>
</event>
<event>
 6    1  0.4180481E-002  0.1475848E+03  0.7546771E-02  0.1203473E+00
         21   -1    0    0  504  502  0.00000000000E+00  0.00000000000E+00  0.88334896238E+03  0.88334896238E+03  0.00000000000E+00 0.  1.
         21   -1    0    0  502  503 -0.00000000000E+00 -0.00000000000E+00 -0.22967085150E+02  0.22967085150E+02  0.00000000000E+00 0.  1.
         25    2    1    2    0    0 -0.49529792376E+02 -0.60852643443E+02  0.24548521488E+03  0.28643367972E+03  0.12500007044E+03 0.  0.
          5    1    3    3  501    0 -0.30060892818E+02 -0.42356869493E+02  0.14546109528E+02  0.53938492495E+02  0.10000000000E+00 0. -1.
         -5    1    3    3    0  501 -0.19468899558E+02 -0.18495773950E+02  0.23093910535E+03  0.23249518723E+03  0.10000000000E+00 0. -1.
         21    1    1    2  504  503  0.49529792376E+02  0.60852643443E+02  0.61489666235E+03  0.61988236781E+03  0.00000000000E+00 0.  1.
<mgrwt>
<rscale>  1 0.14758476E+03</rscale>
<asrwt>0</asrwt>
<pdfrwt beam="1">  1       21 0.13589981E+00 0.14758476E+03</pdfrwt>
<pdfrwt beam="2">  1       21 0.35333984E-02 0.14758476E+03</pdfrwt>
<totfact> 0.18945400E+05</totfact>
</mgrwt>
</event>
<event>
 6    1  0.4180481E-002  0.1267497E+03  0.7546771E-02  0.1232360E+00
         21   -1    0    0  503  502  0.00000000000E+00  0.00000000000E+00  0.11227301791E+02  0.11227301791E+02  0.00000000000E+00 0.  1.
         21   -1    0    0  504  503 -0.00000000000E+00 -0.00000000000E+00 -0.52347437420E+03  0.52347437420E+03  0.00000000000E+00 0.  1.
         25    2    1    2    0    0 -0.97910562213E+01 -0.18575218891E+02 -0.37460828002E+03  0.39547042695E+03  0.12499836637E+03 0.  0.
          5    1    3    3  501    0  0.22340435850E+02  0.45744898579E+02 -0.20550249915E+03  0.21171437830E+03  0.10000000000E+00 0.  1.
         -5    1    3    3    0  501 -0.32131492071E+02 -0.64320117470E+02 -0.16910578087E+03  0.18375604866E+03  0.10000000000E+00 0.  1.
         21    1    1    2  504  502  0.97910562213E+01  0.18575218891E+02 -0.13763879239E+03  0.13923124904E+03  0.00000000000E+00 0.  1.
<mgrwt>
<rscale>  1 0.12674973E+03</rscale>
<asrwt>0</asrwt>
<pdfrwt beam="1">  1       21 0.17272774E-02 0.12674973E+03</pdfrwt>
<pdfrwt beam="2">  1       21 0.80534510E-01 0.12674973E+03</pdfrwt>
<totfact> 0.21093209E+06</totfact>
</mgrwt>
</event>
<event>
 6    1  0.4180481E-002  0.1261401E+03  0.7546771E-02  0.1233298E+00
         21   -1    0    0  504  502  0.00000000000E+00  0.00000000000E+00  0.19384533383E+02  0.19384533383E+02  0.00000000000E+00 0.  1.
         21   -1    0    0  502  503 -0.00000000000E+00 -0.00000000000E+00 -0.29552972320E+03  0.29552972320E+03  0.00000000000E+00 0.  1.
         25    2    1    2    0    0  0.85851458349E+01  0.14594428204E+02 -0.19660074604E+03  0.23358762749E+03  0.12499849723E+03 0.  0.
          5    1    3    3  501    0 -0.25343165886E+02  0.25244255230E+02 -0.20672469787E+01  0.35830601297E+02  0.10000000000E+00 0. -1.
         -5    1    3    3    0  501  0.33928311721E+02 -0.10649827026E+02 -0.19453349906E+03  0.19775702619E+03  0.10000000000E+00 0. -1.
         21    1    1    2  504  503 -0.85851458349E+01 -0.14594428204E+02 -0.79544443784E+02  0.81326629098E+02  0.00000000000E+00 0.  1.
<mgrwt>
<rscale>  1 0.12614011E+03</rscale>
<asrwt>0</asrwt>
<pdfrwt beam="1">  1       21 0.29822357E-02 0.12614011E+03</pdfrwt>
<pdfrwt beam="2">  1       21 0.45466114E-01 0.12614011E+03</pdfrwt>
<totfact> 0.29382485E+06</totfact>
</mgrwt>
</event>
<event>
 6    1  0.4180481E-002  0.1266743E+03  0.7546771E-02  0.1232476E+00
         21   -1    0    0  503  502  0.00000000000E+00  0.00000000000E+00  0.53859648536E+01  0.53859648536E+01  0.00000000000E+00 0.  1.
         21   -1    0    0  504  503 -0.00000000000E+00 -0.00000000000E+00 -0.10241146139E+04  0.10241146139E+04  0.00000000000E+00 0.  1.
         25    2    1    2    0    0 -0.19966893442E+02 -0.48537324363E+01 -0.82225655994E+03  0.83195686878E+03  0.12499658233E+03 0.  0.
          5    1    3    3  501    0 -0.29316226027E+02 -0.75386961980E+01 -0.82165302161E+03  0.82221041770E+03  0.10000000000E+00 0. -1.
         -5    1    3    3    0  501  0.93493325856E+01  0.26849637617E+01 -0.60353833018E+00  0.97464510830E+01  0.10000000000E+00 0. -1.
         21    1    1    2  504  502  0.19966893442E+02  0.48537324363E+01 -0.19647208908E+03  0.19754370995E+03  0.00000000000E+00 0.  1.
<mgrwt>
<rscale>  1 0.12667431E+03</rscale>
<asrwt>0</asrwt>
<pdfrwt beam="1">  1       21 0.82861081E-03 0.12667431E+03</pdfrwt>
<pdfrwt beam="2">  1       21 0.15755594E+00 0.12667431E+03</pdfrwt>
<totfact> 0.13392541E+06</totfact>
</mgrwt>
</event>
<event>
 6    1  0.4180481E-002  0.1271440E+03  0.7546771E-02  0.1231756E+00
         21   -1    0    0  503  502  0.00000000000E+00  0.00000000000E+00  0.38476395769E+02  0.38476395769E+02  0.00000000000E+00 0. -1.
         21   -1    0    0  504  503 -0.00000000000E+00 -0.00000000000E+00 -0.16514608291E+03  0.16514608291E+03  0.00000000000E+00 0. -1.
         25    2    1    2    0    0  0.23223630764E+02  0.10869510321E+01 -0.76644229599E+02  0.14845849685E+03  0.12500027548E+03 0.  0.
          5    1    3    3  501    0  0.27460439232E+02  0.59779727554E+02 -0.25708744021E+02  0.70630312674E+02  0.10000000000E+00 0. -1.
         -5    1    3    3    0  501 -0.42368084679E+01 -0.58692776522E+02 -0.50935485578E+02  0.77828184181E+02  0.10000000000E+00 0. -1.
         21    1    1    2  504  502 -0.23223630764E+02 -0.10869510321E+01 -0.50025457547E+02  0.55163981828E+02  0.00000000000E+00 0. -1.
<mgrwt>
<rscale>  1 0.12714396E+03</rscale>
<asrwt>0</asrwt>
<pdfrwt beam="1">  1       21 0.59194457E-02 0.12714396E+03</pdfrwt>
<pdfrwt beam="2">  1       21 0.25407089E-01 0.12714396E+03</pdfrwt>
<totfact> 0.29342800E+06</totfact>
</mgrwt>
</event>
<event>
 6    1  0.4180481E-002  0.1285797E+03  0.7546771E-02  0.1229579E+00
         21   -1    0    0  503  502  0.00000000000E+00  0.00000000000E+00  0.86082844032E+03  0.86082844032E+03  0.00000000000E+00 0. -1.
         21   -1    0    0  504  503 -0.00000000000E+00 -0.00000000000E+00 -0.21880927712E+02  0.21880927712E+02  0.00000000000E+00 0. -1.
         25    2    1    2    0    0  0.11468672884E+02 -0.27839649271E+02  0.84262266217E+03  0.85237649390E+03  0.12500463999E+03 0.  0.
          5    1    3    3  501    0 -0.41641430162E+02  0.29013967023E+02  0.32434373931E+03  0.32829055761E+03  0.10000000000E+00 0. -1.
         -5    1    3    3    0  501  0.53110103046E+02 -0.56853616294E+02  0.51827892286E+03  0.52408593629E+03  0.10000000000E+00 0. -1.
         21    1    1    2  504  502 -0.11468672884E+02  0.27839649271E+02 -0.36751495567E+01  0.30332874139E+02  0.00000000000E+00 0. -1.
<mgrwt>
<rscale>  1 0.12857969E+03</rscale>
<asrwt>0</asrwt>
<pdfrwt beam="1">  1       21 0.13243512E+00 0.12857969E+03</pdfrwt>
<pdfrwt beam="2">  1       21 0.33662972E-02 0.12857969E+03</pdfrwt>
<totfact> 0.22049827E+05</totfact>
</mgrwt>
</event>
<event>
 6    1  0.4180481E-002  0.1261011E+03  0.7546771E-02  0.1233358E+00
         21   -1    0    0  503  502  0.00000000000E+00  0.00000000000E+00  0.31442290210E+02  0.31442290210E+02  0.00000000000E+00 0. -1.
         21   -1    0    0  504  503 -0.00000000000E+00 -0.00000000000E+00 -0.13429547722E+04  0.13429547722E+04  0.00000000000E+00 0.  1.
         25    2    1    2    0    0  0.50729195437E+01 -0.15820896308E+02 -0.95277022258E+02  0.15804812860E+03  0.12500185883E+03 0.  0.
          5    1    3    3  501    0  0.56283331299E+02  0.11262264795E+02 -0.79411204813E+02  0.97983679459E+02  0.10000000000E+00 0. -1.
         -5    1    3    3    0  501 -0.51210411755E+02 -0.27083161102E+02 -0.15865817444E+02  0.60064449141E+02  0.10000000000E+00 0. -1.
         21    1    1    2  504  502 -0.50729195437E+01  0.15820896308E+02 -0.12162354597E+04  0.12163489338E+04  0.00000000000E+00 0.  1.
<mgrwt>
<rscale>  1 0.12610115E+03</rscale>
<asrwt>0</asrwt>
<pdfrwt beam="1">  1       21 0.48372749E-02 0.12610115E+03</pdfrwt>
<pdfrwt beam="2">  1       21 0.20660845E+00 0.12610115E+03</pdfrwt>
<totfact> 0.36544480E+04</totfact>
</mgrwt>
</event>
<event>
 6    1  0.4180481E-002  0.1341469E+03  0.7546771E-02  0.1221429E+00
         21   -1    0    0  504  502  0.00000000000E+00  0.00000000000E+00  0.35454127518E+02  0.35454127518E+02  0.00000000000E+00 0. -1.
         21   -1    0    0  502  503 -0.00000000000E+00 -0.00000000000E+00 -0.86050612242E+03  0.86050612242E+03  0.00000000000E+00 0. -1.
         25    2    1    2    0    0 -0.38124560270E+02 -0.30225221759E+02 -0.95214368360E+02  0.16450279578E+03  0.12501339029E+03 0.  0.
          5    1    3    3  501    0 -0.11872897180E+02  0.13306348326E+02  0.26874689897E+02  0.32253426954E+02  0.10000000000E+00 0. -1.
         -5    1    3    3    0  501 -0.26251663090E+02 -0.43531570085E+02 -0.12208905826E+03  0.13224936883E+03  0.10000000000E+00 0. -1.
         21    1    1    2  504  503  0.38124560270E+02  0.30225221759E+02 -0.72983762655E+03  0.73145745416E+03  0.00000000000E+00 0. -1.
<mgrwt>
<rscale>  1 0.13414691E+03</rscale>
<asrwt>0</asrwt>
<pdfrwt beam="1">  1       21 0.54544816E-02 0.13414691E+03</pdfrwt>
<pdfrwt beam="2">  1       21 0.13238555E+00 0.13414691E+03</pdfrwt>
<totfact> 0.98448229E+04</totfact>
</mgrwt>
</event>
<event>
 6    1  0.4180481E-002  0.1315932E+03  0.7546771E-02  0.1225111E+00
         21   -1    0    0  503  502  0.00000000000E+00  0.00000000000E+00  0.24470186030E+02  0.24470186030E+02  0.00000000000E+00 0.  1.
         21   -1    0    0  504  503 -0.00000000000E+00 -0.00000000000E+00 -0.32873563534E+03  0.32873563534E+03  0.00000000000E+00 0.  1.
         25    2    1    2    0    0  0.28186088427E+02 -0.29949866384E+02 -0.18484477468E+03  0.22690163456E+03  0.12500124384E+03 0.  0.
          5    1    3    3  501    0  0.42900000984E+02 -0.63377353178E+02 -0.61251001074E+02  0.98024456708E+02  0.10000000000E+00 0. -1.
         -5    1    3    3    0  501 -0.14713912557E+02  0.33427486794E+02 -0.12359377360E+03  0.12887717785E+03  0.10000000000E+00 0. -1.
         21    1    1    2  504  502 -0.28186088427E+02  0.29949866384E+02 -0.11942067463E+03  0.12630418681E+03  0.00000000000E+00 0.  1.
<mgrwt>
<rscale>  1 0.13159316E+03</rscale>
<asrwt>0</asrwt>
<pdfrwt beam="1">  1       21 0.37646444E-02 0.13159316E+03</pdfrwt>
<pdfrwt beam="2">  1       21 0.50574708E-01 0.13159316E+03</pdfrwt>
<totfact> 0.16106503E+06</totfact>
</mgrwt>
</event>
<event>
 6    1  0.4180481E-002  0.1269457E+03  0.7546771E-02  0.1232059E+00
         21   -1    0    0  503  502  0.00000000000E+00  0.00000000000E+00  0.84187440673E+02  0.84187440673E+02  0.00000000000E+00 0.  1.
         21   -1    0    0  504  503 -0.00000000000E+00 -0.00000000000E+00 -0.90981859818E+02  0.90981859818E+02  0.00000000000E+00 0.  1.
         25    2    1    2    0    0  0.21704864706E+02 -0.43270810568E+01  0.31629897887E+02  0.13082684993E+03  0.12500155775E+03 0.  0.
          5    1    3    3  501    0  0.18144011339E+02  0.55361224314E+02  0.39686760532E+02  0.70491980158E+02  0.10000000000E+00 0.  1.
         -5    1    3    3    0  501  0.35608533674E+01 -0.59688305371E+02 -0.80568626459E+01  0.60334869772E+02  0.10000000000E+00 0.  1.
         21    1    1    2  504  502 -0.21704864706E+02  0.43270810568E+01 -0.38424317031E+02  0.44342450560E+02  0.00000000000E+00 0.  1.
<mgrwt>
<rscale>  1 0.12694571E+03</rscale>
<asrwt>0</asrwt>
<pdfrwt beam="1">  1       21 0.12951914E-01 0.12694571E+03</pdfrwt>
<pdfrwt beam="2">  1       21 0.13997209E-01 0.12694571E+03</pdfrwt>
<totfact> 0.22584134E+06</totfact>
</mgrwt>
</event>
<event>
 6    1  0.4180481E-002  0.1348656E+03  0.7546771E-02  0.1220410E+00
         21   -1    0    0  504  502  0.00000000000E+00  0.00000000000E+00  0.22822506302E+03  0.22822506302E+03  0.00000000000E+00 0.  1.
         21   -1    0    0  502  503 -0.00000000000E+00 -0.00000000000E+00 -0.38512975398E+02  0.38512975398E+02  0.00000000000E+00 0.  1.
         25    2    1    2    0    0  0.33560339962E+02 -0.37901620916E+02  0.15443928626E+03  0.20503714862E+03  0.12500363949E+03 0.  0.
          5    1    3    3  501    0  0.35528456103E+02 -0.47455341088E+02  0.98200571266E+01  0.60089301151E+02  0.10000000000E+00 0.  1.
         -5    1    3    3    0  501 -0.19681161401E+01  0.95537201720E+01  0.14461922913E+03  0.14494784747E+03  0.10000000000E+00 0.  1.
         21    1    1    2  504  503 -0.33560339962E+02  0.37901620916E+02  0.35272801366E+02  0.61700889805E+02  0.00000000000E+00 0.  1.
<mgrwt>
<rscale>  1 0.13486563E+03</rscale>
<asrwt>0</asrwt>
<pdfrwt beam="1">  1       21 0.35111547E-01 0.13486563E+03</pdfrwt>
<pdfrwt beam="2">  1       21 0.59250733E-02 0.13486563E+03</pdfrwt>
<totfact> 0.15721313E+06</totfact>
</mgrwt>
</event>
<event>
 6    1  0.4180481E-002  0.1408514E+03  0.7546771E-02  0.1212188E+00
         21   -1    0    0  504  502  0.00000000000E+00  0.00000000000E+00  0.14607876342E+03  0.14607876342E+03  0.00000000000E+00 0. -1.
         21   -1    0    0  502  503 -0.00000000000E+00 -0.00000000000E+00 -0.10349121536E+03  0.10349121536E+03  0.00000000000E+00 0. -1.
         25    2    1    2    0    0  0.30235663479E+02 -0.57531332712E+02  0.91731689856E+02  0.16808871553E+03  0.12496024878E+03 0.  0.
          5    1    3    3  501    0  0.10423144740E+02 -0.29333868120E+02 -0.28993434099E+02  0.42541121118E+02  0.10000000000E+00 0. -1.
         -5    1    3    3    0  501  0.19812518739E+02 -0.28197464592E+02  0.12072512396E+03  0.12554759441E+03  0.10000000000E+00 0. -1.
         21    1    1    2  504  503 -0.30235663479E+02  0.57531332712E+02 -0.49144141795E+02  0.81481263260E+02  0.00000000000E+00 0. -1.
<mgrwt>
<rscale>  1 0.14085139E+03</rscale>
<asrwt>0</asrwt>
<pdfrwt beam="1">  1       21 0.22473656E-01 0.14085139E+03</pdfrwt>
<pdfrwt beam="2">  1       21 0.15921725E-01 0.14085139E+03</pdfrwt>
<totfact> 0.65556392E+05</totfact>
</mgrwt>
</event>
<event>
 6    1  0.4180481E-002  0.1259041E+03  0.7546771E-02  0.1233663E+00
         21   -1    0    0  504  502  0.00000000000E+00  0.00000000000E+00  0.16232934222E+03  0.16232934222E+03  0.00000000000E+00 0.  1.
         21   -1    0    0  502  503 -0.00000000000E+00 -0.00000000000E+00 -0.67620865779E+02  0.67620865779E+02  0.00000000000E+00 0.  1.
         25    2    1    2    0    0  0.39375607397E+00 -0.15050957297E+02  0.13639875904E+03  0.18562452670E+03  0.12500062835E+03 0.  0.
          5    1    3    3  501    0  0.41845789181E+02 -0.27519571828E+02  0.13310120967E+03  0.14221230229E+03  0.10000000000E+00 0. -1.
         -5    1    3    3    0  501 -0.41452033107E+02  0.12468614531E+02  0.32975493681E+01  0.43412224417E+02  0.10000000000E+00 0. -1.
         21    1    1    2  504  503 -0.39375607397E+00  0.15050957297E+02 -0.41690282597E+02  0.44325681297E+02  0.00000000000E+00 0.  1.
<mgrwt>
<rscale>  1 0.12590410E+03</rscale>
<asrwt>0</asrwt>
<pdfrwt beam="1">  1       21 0.24973745E-01 0.12590410E+03</pdfrwt>
<pdfrwt beam="2">  1       21 0.10403210E-01 0.12590410E+03</pdfrwt>
<totfact> 0.11476378E+06</totfact>
</mgrwt>
</event>
<event>
 6    1  0.4180481E-002  0.1312082E+03  0.7546771E-02  0.1225674E+00
         21   -1    0    0  503  502  0.00000000000E+00  0.00000000000E+00  0.52051858227E+03  0.52051858227E+03  0.00000000000E+00 0.  1.
         21   -1    0    0  504  503 -0.00000000000E+00 -0.00000000000E+00 -0.14330595390E+02  0.14330595390E+02  0.00000000000E+00 0.  1.
         25    2    1    2    0    0 -0.25869059836E+02 -0.30363237502E+02  0.41681233839E+03  0.43697609152E+03  0.12499777867E+03 0.  0.
          5    1    3    3  501    0 -0.42163529137E+02 -0.11868710025E+02  0.39875661503E+02  0.59234346854E+02  0.10000000000E+00 0.  1.
         -5    1    3    3    0  501  0.16294469301E+02 -0.18494527477E+02  0.37693667689E+03  0.37774174466E+03  0.10000000000E+00 0.  1.
         21    1    1    2  504  502  0.25869059836E+02  0.30363237502E+02  0.89375648486E+02  0.97873086141E+02  0.00000000000E+00 0.  1.
<mgrwt>
<rscale>  1 0.13120815E+03</rscale>
<asrwt>0</asrwt>
<pdfrwt beam="1">  1       21 0.80079767E-01 0.13120815E+03</pdfrwt>
<pdfrwt beam="2">  1       21 0.22047074E-02 0.13120815E+03</pdfrwt>
<totfact> 0.14421140E+06</totfact>
</mgrwt>
</event>
<event>
 6    1  0.4180481E-002  0.1273535E+03  0.7546771E-02  0.1231436E+00
         21   -1    0    0  503  502  0.00000000000E+00  0.00000000000E+00  0.23877487928E+02  0.23877487928E+02  0.00000000000E+00 0.  1.
         21   -1    0    0  504  503 -0.00000000000E+00 -0.00000000000E+00 -0.32763647736E+03  0.32763647736E+03  0.00000000000E+00 0.  1.
         25    2    1    2    0    0 -0.97779246496E+01  0.22296948899E+02 -0.15422391397E+03  0.20000983817E+03  0.12500463185E+03 0.  0.
          5    1    3    3  501    0  0.20963336974E+02 -0.35382644418E+01 -0.15823252717E+03  0.15965438756E+03  0.10000000000E+00 0.  1.
         -5    1    3    3    0  501 -0.30741261624E+02  0.25835213341E+02  0.40086131943E+01  0.40355450615E+02  0.10000000000E+00 0.  1.
         21    1    1    2  504  502  0.97779246496E+01 -0.22296948899E+02 -0.14953507545E+03  0.15150412711E+03  0.00000000000E+00 0.  1.
<mgrwt>
<rscale>  1 0.12735352E+03</rscale>
<asrwt>0</asrwt>
<pdfrwt beam="1">  1       21 0.36734598E-02 0.12735352E+03</pdfrwt>
<pdfrwt beam="2">  1       21 0.50405610E-01 0.12735352E+03</pdfrwt>
<totfact> 0.16879759E+06</totfact>
</mgrwt>
</event>
<event>
 6    1  0.4180481E-002  0.1268112E+03  0.7546771E-02  0.1232266E+00
         21   -1    0    0  503  502  0.00000000000E+00  0.00000000000E+00  0.20631027880E+02  0.20631027880E+02  0.00000000000E+00 0.  1.
         21   -1    0    0  504  503 -0.00000000000E+00 -0.00000000000E+00 -0.58136479958E+03  0.58136479958E+03  0.00000000000E+00 0.  1.
         25    2    1    2    0    0 -0.19285501348E+02 -0.92458515325E+01 -0.17738882513E+03  0.21805473250E+03  0.12499461890E+03 0.  0.
          5    1    3    3  501    0 -0.65281025001E+02 -0.26624726858E+02 -0.67220680738E+02  0.97412105122E+02  0.10000000000E+00 0.  1.
         -5    1    3    3    0  501  0.45995523652E+02  0.17378875325E+02 -0.11016814439E+03  0.12064262738E+03  0.10000000000E+00 0.  1.
         21    1    1    2  504  502  0.19285501348E+02  0.92458515325E+01 -0.38334494657E+03  0.38394109496E+03  0.00000000000E+00 0.  1.
<mgrwt>
<rscale>  1 0.12681116E+03</rscale>
<asrwt>0</asrwt>
<pdfrwt beam="1">  1       21 0.31740044E-02 0.12681116E+03</pdfrwt>
<pdfrwt beam="2">  1       21 0.89440737E-01 0.12681116E+03</pdfrwt>
<totfact> 0.61996087E+05</totfact>
</mgrwt>
</event>
<event>
 6    1  0.4180481E-002  0.1266035E+03  0.7546771E-02  0.1232584E+00
         21   -1    0    0  504  502  0.00000000000E+00  0.00000000000E+00  0.81347235432E+03  0.81347235432E+03  0.00000000000E+00 0.  1.
         21   -1    0    0  502  503 -0.00000000000E+00 -0.00000000000E+00 -0.67290226736E+01  0.67290226736E+01  0.00000000000E+00 0.  1.
         25    2    1    2    0    0  0.16683409536E+02  0.11136232670E+02  0.72901547310E+03  0.73992702352E+03  0.12500435305E+03 0.  0.
          5    1    3    3  501    0  0.26054715306E+02 -0.50275371900E+02  0.47783037793E+03  0.48117391999E+03  0.10000000000E+00 0.  1.
         -5    1    3    3    0  501 -0.93713057709E+01  0.61411604570E+02  0.25118509518E+03  0.25875310353E+03  0.10000000000E+00 0.  1.
         21    1    1    2  504  503 -0.16683409536E+02 -0.11136232670E+02  0.77727858547E+02  0.80274353476E+02  0.00000000000E+00 0. -1.
<mgrwt>
<rscale>  1 0.12660348E+03</rscale>
<asrwt>0</asrwt>
<pdfrwt beam="1">  1       21 0.12514952E+00 0.12660348E+03</pdfrwt>
<pdfrwt beam="2">  1       21 0.10352349E-02 0.12660348E+03</pdfrwt>
<totfact> 0.16947054E+06</totfact>
</mgrwt>
</event>
<event>
 6    1  0.4180481E-002  0.1283999E+03  0.7546771E-02  0.1229850E+00
         21   -1    0    0  503  502  0.00000000000E+00  0.00000000000E+00  0.77953178717E+03  0.77953178717E+03  0.00000000000E+00 0.  1.
         21   -1    0    0  504  503 -0.00000000000E+00 -0.00000000000E+00 -0.16601537692E+03  0.16601537692E+03  0.00000000000E+00 0.  1.
         25    2    1    2    0    0 -0.16672603672E+02  0.23930922239E+02  0.77291226208E+03  0.78350487845E+03  0.12504345216E+03 0.  0.
          5    1    3    3  501    0  0.95393116441E+01  0.37924749899E+02  0.73145124184E+03  0.73249588006E+03  0.10000000000E+00 0.  1.
         -5    1    3    3    0  501 -0.26211915316E+02 -0.13993827660E+02  0.41461020246E+02  0.51008998392E+02  0.10000000000E+00 0.  1.
         21    1    1    2  504  502  0.16672603672E+02 -0.23930922239E+02 -0.15939585184E+03  0.16204228564E+03  0.00000000000E+00 0.  1.
<mgrwt>
<rscale>  1 0.12839988E+03</rscale>
<asrwt>0</asrwt>
<pdfrwt beam="1">  1       21 0.11992797E+00 0.12839988E+03</pdfrwt>
<pdfrwt beam="2">  1       21 0.25540828E-01 0.12839988E+03</pdfrwt>
<totfact> 0.81186555E+03</totfact>
</mgrwt>
</event>
<event>
 6    1  0.4180481E-002  0.1353834E+03  0.7546771E-02  0.1219679E+00
         21   -1    0    0  504  502  0.00000000000E+00  0.00000000000E+00  0.86265882457E+02  0.86265882457E+02  0.00000000000E+00 0. -1.
         21   -1    0    0  502  503 -0.00000000000E+00 -0.00000000000E+00 -0.10287252813E+03  0.10287252813E+03  0.00000000000E+00 0. -1.
         25    2    1    2    0    0 -0.51833507660E+02  0.41045076882E+01 -0.31084011183E+01  0.13541912070E+03  0.12500046638E+03 0.  0.
          5    1    3    3  501    0 -0.89718610106E+02  0.83308670802E+00  0.18603626879E+02  0.91630933456E+02  0.10000000000E+00 0. -1.
         -5    1    3    3    0  501  0.37885102447E+02  0.32714209802E+01 -0.21712027997E+02  0.43788187247E+02  0.10000000000E+00 0. -1.
         21    1    1    2  504  503  0.51833507660E+02 -0.41045076882E+01 -0.13498244556E+02  0.53719289885E+02  0.00000000000E+00 0. -1.
<mgrwt>
<rscale>  1 0.13538344E+03</rscale>
<asrwt>0</asrwt>
<pdfrwt beam="1">  1       21 0.13271674E-01 0.13538344E+03</pdfrwt>
<pdfrwt beam="2">  1       21 0.15826543E-01 0.13538344E+03</pdfrwt>
<totfact> 0.17357920E+06</totfact>
</mgrwt>
</event>
<event>
 6    1  0.4180481E-002  0.1280557E+03  0.7546771E-02  0.1230370E+00
         21   -1    0    0  503  502  0.00000000000E+00  0.00000000000E+00  0.36013351515E+02  0.36013351515E+02  0.00000000000E+00 0. -1.
         21   -1    0    0  504  503 -0.00000000000E+00 -0.00000000000E+00 -0.16935625370E+03  0.16935625370E+03  0.00000000000E+00 0. -1.
         25    2    1    2    0    0 -0.27033566398E+02  0.66494722849E+01 -0.10450270797E+03  0.16528487001E+03  0.12499297215E+03 0.  0.
          5    1    3    3  501    0 -0.56100681199E+02  0.50035430922E+02 -0.53319268064E+02  0.92161733520E+02  0.10000000000E+00 0.  1.
         -5    1    3    3    0  501  0.29067114801E+02 -0.43385958637E+02 -0.51183439910E+02  0.73123136494E+02  0.10000000000E+00 0.  1.
         21    1    1    2  504  502  0.27033566398E+02 -0.66494722849E+01 -0.28840194207E+02  0.40084735197E+02  0.00000000000E+00 0. -1.
<mgrwt>
<rscale>  1 0.12805574E+03</rscale>
<asrwt>0</asrwt>
<pdfrwt beam="1">  1       21 0.55405156E-02 0.12805574E+03</pdfrwt>
<pdfrwt beam="2">  1       21 0.26054808E-01 0.12805574E+03</pdfrwt>
<totfact> 0.31295519E+06</totfact>
</mgrwt>
</event>
<event>
 6    1  0.4180481E-002  0.1271776E+03  0.7546771E-02  0.1231705E+00
         21   -1    0    0  503  502  0.00000000000E+00  0.00000000000E+00  0.22045694891E+02  0.22045694891E+02  0.00000000000E+00 0.  1.
         21   -1    0    0  504  503 -0.00000000000E+00 -0.00000000000E+00 -0.25729704292E+03  0.25729704292E+03  0.00000000000E+00 0.  1.
         25    2    1    2    0    0 -0.22911339736E+02  0.48090581536E+01 -0.19627155405E+03  0.23387317802E+03  0.12500433568E+03 0.  0.
          5    1    3    3  501    0  0.15828232110E+02 -0.18282399572E+02  0.73832776159E+01  0.25284419198E+02  0.10000000000E+00 0.  1.
         -5    1    3    3    0  501 -0.38739571845E+02  0.23091457726E+02 -0.20365483166E+03  0.20858875882E+03  0.10000000000E+00 0.  1.
         21    1    1    2  504  502  0.22911339736E+02 -0.48090581536E+01 -0.38979793983E+02  0.45469559793E+02  0.00000000000E+00 0.  1.
<mgrwt>
<rscale>  1 0.12717759E+03</rscale>
<asrwt>0</asrwt>
<pdfrwt beam="1">  1       21 0.33916452E-02 0.12717759E+03</pdfrwt>
<pdfrwt beam="2">  1       21 0.39584162E-01 0.12717759E+03</pdfrwt>
<totfact> 0.31448485E+06</totfact>
</mgrwt>
</event>
<event>
 6    1  0.4180481E-002  0.1263360E+03  0.7546771E-02  0.1232996E+00
         21   -1    0    0  503  502  0.00000000000E+00  0.00000000000E+00  0.81041271975E+02  0.81041271975E+02  0.00000000000E+00 0. -1.
         21   -1    0    0  504  503 -0.00000000000E+00 -0.00000000000E+00 -0.10011433916E+04  0.10011433916E+04  0.00000000000E+00 0.  1.
         25    2    1    2    0    0 -0.13445355027E+02 -0.12334034572E+02  0.31664026149E+02  0.13024364533E+03  0.12501156193E+03 0.  0.
          5    1    3    3  501    0  0.39120112485E+02 -0.32951812447E+02 -0.18820083659E+02  0.54501474231E+02  0.10000000000E+00 0. -1.
         -5    1    3    3    0  501 -0.52565467512E+02  0.20617777875E+02  0.50484109808E+02  0.75742171096E+02  0.10000000000E+00 0. -1.
         21    1    1    2  504  502  0.13445355027E+02  0.12334034572E+02 -0.95176614579E+03  0.95194101826E+03  0.00000000000E+00 0.  1.
<mgrwt>
<rscale>  1 0.12633605E+03</rscale>
<asrwt>0</asrwt>
<pdfrwt beam="1">  1       21 0.12467887E-01 0.12633605E+03</pdfrwt>
<pdfrwt beam="2">  1       21 0.15402207E+00 0.12633605E+03</pdfrwt>
<totfact> 0.16096719E+04</totfact>
</mgrwt>
</event>
<event>
 6    1  0.4180481E-002  0.1325151E+03  0.7546771E-02  0.1223771E+00
         21   -1    0    0  503  502  0.00000000000E+00  0.00000000000E+00  0.95897985058E+02  0.95897985058E+02  0.00000000000E+00 0. -1.
         21   -1    0    0  504  503 -0.00000000000E+00 -0.00000000000E+00 -0.81211107889E+02  0.81211107889E+02  0.00000000000E+00 0. -1.
         25    2    1    2    0    0  0.23336995230E+02  0.37281963414E+02  0.10885651154E+02  0.13296150568E+03  0.12500281776E+03 0.  0.
          5    1    3    3  501    0 -0.27560018268E+02 -0.33231312539E+02 -0.81595320340E+01  0.43937031113E+02  0.10000000000E+00 0. -1.
         -5    1    3    3    0  501  0.50897013499E+02  0.70513275954E+02  0.19045183188E+02  0.89024474565E+02  0.10000000000E+00 0. -1.
         21    1    1    2  504  502 -0.23336995230E+02 -0.37281963414E+02  0.38012260150E+01  0.44147587269E+02  0.00000000000E+00 0. -1.
<mgrwt>
<rscale>  1 0.13251515E+03</rscale>
<asrwt>0</asrwt>
<pdfrwt beam="1">  1       21 0.14753536E-01 0.13251515E+03</pdfrwt>
<pdfrwt beam="2">  1       21 0.12494017E-01 0.13251515E+03</pdfrwt>
<totfact> 0.21935145E+06</totfact>
</mgrwt>
</event>
<event>
 6    1  0.4180481E-002  0.1304879E+03  0.7546771E-02  0.1226734E+00
         21   -1    0    0  503  502  0.00000000000E+00  0.00000000000E+00  0.10695500643E+03  0.10695500643E+03  0.00000000000E+00 0. -1.
         21   -1    0    0  504  503 -0.00000000000E+00 -0.00000000000E+00 -0.73991914259E+02  0.73991914259E+02  0.00000000000E+00 0. -1.
         25    2    1    2    0    0 -0.12670069845E+02 -0.35238919603E+02  0.50086347946E+02  0.13977025238E+03  0.12499907629E+03 0.  0.
          5    1    3    3  501    0 -0.48502372268E+02 -0.23161957584E+02  0.76608467068E+02  0.93583244340E+02  0.10000000000E+00 0. -1.
         -5    1    3    3    0  501  0.35832302423E+02 -0.12076962019E+02 -0.26522119122E+02  0.46187008036E+02  0.10000000000E+00 0. -1.
         21    1    1    2  504  502  0.12670069845E+02  0.35238919603E+02 -0.17123255778E+02  0.41176668310E+02  0.00000000000E+00 0. -1.
<mgrwt>
<rscale>  1 0.13048786E+03</rscale>
<asrwt>0</asrwt>
<pdfrwt beam="1">  1       21 0.16454616E-01 0.13048786E+03</pdfrwt>
<pdfrwt beam="2">  1       21 0.11383371E-01 0.13048786E+03</pdfrwt>
<totfact> 0.21223657E+06</totfact>
</mgrwt>
</event>
<event>
 6    1  0.4180481E-002  0.1262806E+03  0.7546771E-02  0.1233081E+00
         21   -1    0    0  504  502  0.00000000000E+00  0.00000000000E+00  0.15242161317E+03  0.15242161317E+03  0.00000000000E+00 0.  1.
         21   -1    0    0  502  503 -0.00000000000E+00 -0.00000000000E+00 -0.34443355457E+02  0.34443355457E+02  0.00000000000E+00 0.  1.
         25    2    1    2    0    0 -0.14643728721E+02 -0.10407946664E+02  0.10882313212E+03  0.16670112799E+03  0.12499611131E+03 0.  0.
          5    1    3    3  501    0  0.43524545522E+02 -0.41561537224E+02  0.48376678888E+02  0.77214380134E+02  0.10000000000E+00 0. -1.
         -5    1    3    3    0  501 -0.58168274243E+02  0.31153590559E+02  0.60446453237E+02  0.89486747857E+02  0.10000000000E+00 0. -1.
         21    1    1    2  504  503  0.14643728721E+02  0.10407946664E+02  0.91551255890E+01  0.20163840636E+02  0.00000000000E+00 0.  1.
<mgrwt>
<rscale>  1 0.12628061E+03</rscale>
<asrwt>0</asrwt>
<pdfrwt beam="1">  1       21 0.23449479E-01 0.12628061E+03</pdfrwt>
<pdfrwt beam="2">  1       21 0.52989778E-02 0.12628061E+03</pdfrwt>
<totfact> 0.41132876E+06</totfact>
</mgrwt>
</event>
<event>
 6    1  0.4180481E-002  0.1435827E+03  0.7546771E-02  0.1208588E+00
         21   -1    0    0  504  502  0.00000000000E+00  0.00000000000E+00  0.25138051049E+03  0.25138051049E+03  0.00000000000E+00 0.  1.
         21   -1    0    0  502  503 -0.00000000000E+00 -0.00000000000E+00 -0.62288888045E+02  0.62288888045E+02  0.00000000000E+00 0.  1.
         25    2    1    2    0    0 -0.69463877239E+02  0.12668743647E+02  0.19573122871E+03  0.24274823330E+03  0.12502105251E+03 0.  0.
          5    1    3    3  501    0  0.55813386474E+01 -0.45456728967E+02  0.42393666143E+02  0.62407519406E+02  0.10000000000E+00 0.  1.
         -5    1    3    3    0  501 -0.75045215886E+02  0.58125472613E+02  0.15333756257E+03  0.18034071390E+03  0.10000000000E+00 0.  1.
         21    1    1    2  504  503  0.69463877239E+02 -0.12668743647E+02 -0.66396062657E+01  0.70921165233E+02  0.00000000000E+00 0.  1.
<mgrwt>
<rscale>  1 0.14358270E+03</rscale>
<asrwt>0</asrwt>
<pdfrwt beam="1">  1       21 0.38673924E-01 0.14358270E+03</pdfrwt>
<pdfrwt beam="2">  1       21 0.95829060E-02 0.14358270E+03</pdfrwt>
<totfact> 0.56744411E+05</totfact>
</mgrwt>
</event>
<event>
 6    1  0.4180481E-002  0.1259178E+03  0.7546771E-02  0.1233642E+00
         21   -1    0    0  504  502  0.00000000000E+00  0.00000000000E+00  0.72848609609E+02  0.72848609609E+02  0.00000000000E+00 0. -1.
         21   -1    0    0  502  503 -0.00000000000E+00 -0.00000000000E+00 -0.78303070430E+02  0.78303070430E+02  0.00000000000E+00 0. -1.
         25    2    1    2    0    0 -0.12168203766E+02 -0.91667032754E+01  0.13718642526E+02  0.12666287599E+03  0.12499275727E+03 0.  0.
          5    1    3    3  501    0 -0.16866524526E+01 -0.62761418652E+02 -0.15581819260E+02  0.64688820975E+02  0.10000000000E+00 0. -1.
         -5    1    3    3    0  501 -0.10481551314E+02  0.53594715377E+02  0.29300461785E+02  0.61974055015E+02  0.10000000000E+00 0. -1.
         21    1    1    2  504  503  0.12168203766E+02  0.91667032754E+01 -0.19173103346E+02  0.24488804049E+02  0.00000000000E+00 0. -1.
<mgrwt>
<rscale>  1 0.12591776E+03</rscale>
<asrwt>0</asrwt>
<pdfrwt beam="1">  1       21 0.11207478E-01 0.12591776E+03</pdfrwt>
<pdfrwt beam="2">  1       21 0.12046626E-01 0.12591776E+03</pdfrwt>
<totfact> 0.38110519E+06</totfact>
</mgrwt>
</event>
<event>
 6    1  0.4180481E-002  0.1878805E+03  0.7546771E-02  0.1160387E+00
         21   -1    0    0  503  502  0.00000000000E+00  0.00000000000E+00  0.61935308372E+02  0.61935308372E+02  0.00000000000E+00 0.  1.
         21   -1    0    0  504  503 -0.00000000000E+00 -0.00000000000E+00 -0.22415814357E+04  0.22415814357E+04  0.00000000000E+00 0.  1.
         25    2    1    2    0    0  0.16708298345E+02 -0.13926980783E+03 -0.88516406755E+02  0.20768784961E+03  0.12499536792E+03 0.  0.
          5    1    3    3  501    0 -0.28698030770E+02 -0.25555735341E+02  0.20668229991E+02  0.43633224839E+02  0.10000000000E+00 0.  1.
         -5    1    3    3    0  501  0.45406329115E+02 -0.11371407249E+03 -0.10918463675E+03  0.16405462477E+03  0.10000000000E+00 0.  1.
         21    1    1    2  504  502 -0.16708298345E+02  0.13926980783E+03 -0.20911297205E+04  0.20958288944E+04  0.00000000000E+00 0.  1.
<mgrwt>
<rscale>  1 0.18788052E+03</rscale>
<asrwt>0</asrwt>
<pdfrwt beam="1">  1       21 0.95285106E-02 0.18788052E+03</pdfrwt>
<pdfrwt beam="2">  1       21 0.34485862E+00 0.18788052E+03</pdfrwt>
<totfact> 0.16679622E+03</totfact>
</mgrwt>
</event>
<event>
 6    1  0.4180481E-002  0.1299112E+03  0.7546771E-02  0.1227588E+00
         21   -1    0    0  503  502  0.00000000000E+00  0.00000000000E+00  0.59696994457E+03  0.59696994457E+03  0.00000000000E+00 0. -1.
         21   -1    0    0  504  503 -0.00000000000E+00 -0.00000000000E+00 -0.12095067268E+02  0.12095067268E+02  0.00000000000E+00 0. -1.
         25    2    1    2    0    0  0.16490893594E+02 -0.31280369687E+02  0.50959768618E+03  0.52589610778E+03  0.12500601312E+03 0.  0.
          5    1    3    3  501    0 -0.46698221003E+02  0.41180820734E+01  0.10676401677E+03  0.11660294903E+03  0.10000000000E+00 0.  1.
         -5    1    3    3    0  501  0.63189114597E+02 -0.35398451761E+02  0.40283366940E+03  0.40929315874E+03  0.10000000000E+00 0.  1.
         21    1    1    2  504  502 -0.16490893594E+02  0.31280369687E+02  0.75277191121E+02  0.83168904059E+02  0.00000000000E+00 0. -1.
<mgrwt>
<rscale>  1 0.12991118E+03</rscale>
<asrwt>0</asrwt>
<pdfrwt beam="1">  1       21 0.91841507E-01 0.12991118E+03</pdfrwt>
<pdfrwt beam="2">  1       21 0.18607800E-02 0.12991118E+03</pdfrwt>
<totfact> 0.13901475E+06</totfact>
</mgrwt>
</event>
<event>
 6    1  0.4180481E-002  0.1265575E+03  0.7546771E-02  0.1232655E+00
         21   -1    0    0  504  502  0.00000000000E+00  0.00000000000E+00  0.27247282925E+02  0.27247282925E+02  0.00000000000E+00 0. -1.
         21   -1    0    0  502  503 -0.00000000000E+00 -0.00000000000E+00 -0.19705428904E+03  0.19705428904E+03  0.00000000000E+00 0. -1.
         25    2    1    2    0    0  0.11872883721E+02  0.15883411941E+02 -0.14305921341E+03  0.19100453670E+03  0.12499418529E+03 0.  0.
          5    1    3    3  501    0  0.95900637926E+01 -0.54791165232E+02 -0.57406273066E+02  0.79934543837E+02  0.10000000000E+00 0. -1.
         -5    1    3    3    0  501  0.22828199280E+01  0.70674577173E+02 -0.85652940346E+02  0.11106999287E+03  0.10000000000E+00 0. -1.
         21    1    1    2  504  503 -0.11872883721E+02 -0.15883411941E+02 -0.26747792702E+02  0.33297035261E+02  0.00000000000E+00 0. -1.
<mgrwt>
<rscale>  1 0.12655748E+03</rscale>
<asrwt>0</asrwt>
<pdfrwt beam="1">  1       21 0.41918898E-02 0.12655748E+03</pdfrwt>
<pdfrwt beam="2">  1       21 0.30316044E-01 0.12655748E+03</pdfrwt>
<totfact> 0.37359647E+06</totfact>
</mgrwt>
</event>
<event>
 6    1  0.4180481E-002  0.1262542E+03  0.7546771E-02  0.1233122E+00
         21   -1    0    0  504  502  0.00000000000E+00  0.00000000000E+00  0.18386674585E+03  0.18386674585E+03  0.00000000000E+00 0.  1.
         21   -1    0    0  502  503 -0.00000000000E+00 -0.00000000000E+00 -0.28315728267E+02  0.28315728267E+02  0.00000000000E+00 0.  1.
         25    2    1    2    0    0 -0.17561068167E+02 -0.27185003998E+01  0.14052370423E+03  0.18891014062E+03  0.12499739365E+03 0.  0.
          5    1    3    3  501    0 -0.69741284070E+02 -0.76133565938E-01  0.55558439939E+02  0.89166152483E+02  0.10000000000E+00 0.  1.
         -5    1    3    3    0  501  0.52180215904E+02 -0.26423668339E+01  0.84965264293E+02  0.99743988142E+02  0.10000000000E+00 0.  1.
         21    1    1    2  504  503  0.17561068167E+02  0.27185003998E+01  0.15027313351E+02  0.23272333491E+02  0.00000000000E+00 0.  1.
<mgrwt>
<rscale>  1 0.12625423E+03</rscale>
<asrwt>0</asrwt>
<pdfrwt beam="1">  1       21 0.28287191E-01 0.12625423E+03</pdfrwt>
<pdfrwt beam="2">  1       21 0.43562660E-02 0.12625423E+03</pdfrwt>
<totfact> 0.40028402E+06</totfact>
</mgrwt>
</event>
<event>
 6    1  0.4180481E-002  0.1285754E+03  0.7546771E-02  0.1229585E+00
         21   -1    0    0  503  502  0.00000000000E+00  0.00000000000E+00  0.69638932154E+02  0.69638932154E+02  0.00000000000E+00 0.  1.
         21   -1    0    0  504  503 -0.00000000000E+00 -0.00000000000E+00 -0.90679927733E+02  0.90679927733E+02  0.00000000000E+00 0.  1.
         25    2    1    2    0    0 -0.69139082919E+01 -0.29309038653E+02 -0.13548197371E+02  0.12928720025E+03  0.12499921849E+03 0.  0.
          5    1    3    3  501    0 -0.55028210124E+02 -0.41493297981E+02  0.17028666269E+02  0.70991430199E+02  0.10000000000E+00 0. -1.
         -5    1    3    3    0  501  0.48114301832E+02  0.12184259328E+02 -0.30576863641E+02  0.58295770055E+02  0.10000000000E+00 0. -1.
         21    1    1    2  504  502  0.69139082919E+01  0.29309038653E+02 -0.74927982069E+01  0.31031659633E+02  0.00000000000E+00 0.  1.
<mgrwt>
<rscale>  1 0.12857537E+03</rscale>
<asrwt>0</asrwt>
<pdfrwt beam="1">  1       21 0.10713682E-01 0.12857537E+03</pdfrwt>
<pdfrwt beam="2">  1       21 0.13950758E-01 0.12857537E+03</pdfrwt>
<totfact> 0.31793245E+06</totfact>
</mgrwt>
</event>
<event>
 6    1  0.4180481E-002  0.1407925E+03  0.7546771E-02  0.1212267E+00
         21   -1    0    0  503  502  0.00000000000E+00  0.00000000000E+00  0.12766032612E+03  0.12766032612E+03  0.00000000000E+00 0. -1.
         21   -1    0    0  504  503 -0.00000000000E+00 -0.00000000000E+00 -0.85608893778E+02  0.85608893778E+02  0.00000000000E+00 0. -1.
         25    2    1    2    0    0 -0.64036333765E+02 -0.98118114576E+01  0.10425120352E+02  0.14117797704E+03  0.12500245750E+03 0.  0.
          5    1    3    3  501    0 -0.48303987700E+02 -0.49178432305E+02  0.48427969837E+02  0.84244119642E+02  0.10000000000E+00 0.  1.
         -5    1    3    3    0  501 -0.15732346065E+02  0.39366620848E+02 -0.38002849485E+02  0.56933857402E+02  0.10000000000E+00 0.  1.
         21    1    1    2  504  502  0.64036333765E+02  0.98118114576E+01  0.31626311991E+02  0.72091242855E+02  0.00000000000E+00 0. -1.
<mgrwt>
<rscale>  1 0.14079254E+03</rscale>
<asrwt>0</asrwt>
<pdfrwt beam="1">  1       21 0.19640050E-01 0.14079254E+03</pdfrwt>
<pdfrwt beam="2">  1       21 0.13170599E-01 0.14079254E+03</pdfrwt>
<totfact> 0.11858801E+06</totfact>
</mgrwt>
</event>
<event>
 6    1  0.4180481E-002  0.1260524E+03  0.7546771E-02  0.1233434E+00
         21   -1    0    0  503  502  0.00000000000E+00  0.00000000000E+00  0.74551877062E+02  0.74551877062E+02  0.00000000000E+00 0.  1.
         21   -1    0    0  504  503 -0.00000000000E+00 -0.00000000000E+00 -0.78176050347E+02  0.78176050347E+02  0.00000000000E+00 0.  1.
         25    2    1    2    0    0  0.13060892369E+02 -0.95295538635E+01  0.16263778417E+02  0.12709728307E+03  0.12501123777E+03 0.  0.
          5    1    3    3  501    0  0.33324165269E+02 -0.61668781864E+02  0.10089899541E+02  0.70819169158E+02  0.10000000000E+00 0.  1.
         -5    1    3    3    0  501 -0.20263272900E+02  0.52139228001E+02  0.61738788757E+01  0.56278113912E+02  0.10000000000E+00 0.  1.
         21    1    1    2  504  502 -0.13060892369E+02  0.95295538635E+01 -0.19887951702E+02  0.25630644338E+02  0.00000000000E+00 0.  1.
<mgrwt>
<rscale>  1 0.12605241E+03</rscale>
<asrwt>0</asrwt>
<pdfrwt beam="1">  1       21 0.11469520E-01 0.12605241E+03</pdfrwt>
<pdfrwt beam="2">  1       21 0.12027085E-01 0.12605241E+03</pdfrwt>
<totfact> 0.36695740E+06</totfact>
</mgrwt>
</event>
<event>
 6    1  0.4180481E-002  0.1287529E+03  0.7546771E-02  0.1229318E+00
         21   -1    0    0  503  502  0.00000000000E+00  0.00000000000E+00  0.52629677286E+02  0.52629677286E+02  0.00000000000E+00 0. -1.
         21   -1    0    0  504  503 -0.00000000000E+00 -0.00000000000E+00 -0.12228155885E+03  0.12228155885E+03  0.00000000000E+00 0. -1.
         25    2    1    2    0    0 -0.30575005597E+02  0.45545255304E+01 -0.49135297280E+02  0.13780995717E+03  0.12498692806E+03 0.  0.
          5    1    3    3  501    0 -0.44590894841E+02 -0.38812674905E+02  0.13217516257E+02  0.60576269050E+02  0.10000000000E+00 0. -1.
         -5    1    3    3    0  501  0.14015889244E+02  0.43367200435E+02 -0.62352813537E+02  0.77233688122E+02  0.10000000000E+00 0. -1.
         21    1    1    2  504  502  0.30575005597E+02 -0.45545255304E+01 -0.20516584281E+02  0.37101278962E+02  0.00000000000E+00 0. -1.
<mgrwt>
<rscale>  1 0.12875289E+03</rscale>
<asrwt>0</asrwt>
<pdfrwt beam="1">  1       21 0.80968735E-02 0.12875289E+03</pdfrwt>
<pdfrwt beam="2">  1       21 0.18812547E-01 0.12875289E+03</pdfrwt>
<totfact> 0.30097128E+06</totfact>
</mgrwt>
</event>
<event>
 6    1  0.4180481E-002  0.1263774E+03  0.7546771E-02  0.1232932E+00
         21   -1    0    0  504  502  0.00000000000E+00  0.00000000000E+00  0.97494393361E+02  0.97494393361E+02  0.00000000000E+00 0.  1.
         21   -1    0    0  502  503 -0.00000000000E+00 -0.00000000000E+00 -0.75739200905E+02  0.75739200905E+02  0.00000000000E+00 0.  1.
         25    2    1    2    0    0 -0.14642333986E+02 -0.11484291142E+02  0.52860234851E+02  0.13698706961E+03  0.12499986369E+03 0.  0.
          5    1    3    3  501    0 -0.13736499653E+02 -0.80393974196E+00  0.93730156126E+02  0.94734839997E+02  0.10000000000E+00 0.  1.
         -5    1    3    3    0  501 -0.90583433349E+00 -0.10680351400E+02 -0.40869921275E+02  0.42252229608E+02  0.10000000000E+00 0.  1.
         21    1    1    2  504  503  0.14642333986E+02  0.11484291142E+02 -0.31105042396E+02  0.36246524661E+02  0.00000000000E+00 0.  1.
<mgrwt>
<rscale>  1 0.12637742E+03</rscale>
<asrwt>0</asrwt>
<pdfrwt beam="1">  1       21 0.14999137E-01 0.12637742E+03</pdfrwt>
<pdfrwt beam="2">  1       21 0.11652185E-01 0.12637742E+03</pdfrwt>
<totfact> 0.24057265E+06</totfact>
</mgrwt>
</event>
<event>
 6    1  0.4180481E-002  0.1272595E+03  0.7546771E-02  0.1231580E+00
         21   -1    0    0  503  502  0.00000000000E+00  0.00000000000E+00  0.94063874614E+03  0.94063874614E+03  0.00000000000E+00 0.  1.
         21   -1    0    0  504  503 -0.00000000000E+00 -0.00000000000E+00 -0.45920766040E+02  0.45920766040E+02  0.00000000000E+00 0. -1.
         25    2    1    2    0    0  0.21697964923E+02 -0.94219756478E+01  0.93295630864E+03  0.94159569254E+03  0.12504158938E+03 0.  0.
          5    1    3    3  501    0 -0.47307313881E+02 -0.27579757163E+02  0.46868080744E+03  0.47186897992E+03  0.10000000000E+00 0. -1.
         -5    1    3    3    0  501  0.69005278803E+02  0.18157781516E+02  0.46427550121E+03  0.46972671262E+03  0.10000000000E+00 0. -1.
         21    1    1    2  504  502 -0.21697964923E+02  0.94219756478E+01 -0.38238328540E+02  0.44963819638E+02  0.00000000000E+00 0. -1.
<mgrwt>
<rscale>  1 0.12725948E+03</rscale>
<asrwt>0</asrwt>
<pdfrwt beam="1">  1       21 0.14471364E+00 0.12725948E+03</pdfrwt>
<pdfrwt beam="2">  1       21 0.70647339E-02 0.12725948E+03</pdfrwt>
<totfact> 0.50823922E+04</totfact>
</mgrwt>
</event>
<event>
 6    1  0.4180481E-002  0.1354116E+03  0.7546771E-02  0.1219640E+00
         21   -1    0    0  503  502  0.00000000000E+00  0.00000000000E+00  0.18312026195E+02  0.18312026195E+02  0.00000000000E+00 0.  1.
         21   -1    0    0  504  503 -0.00000000000E+00 -0.00000000000E+00 -0.48116656507E+03  0.48116656507E+03  0.00000000000E+00 0.  1.
         25    2    1    2    0    0  0.43766164777E+01  0.51863383597E+02 -0.34616930887E+03  0.37171158367E+03  0.12500938243E+03 0.  0.
          5    1    3    3  501    0  0.46981144792E+02 -0.95812232034E+01 -0.21902139247E+03  0.22420840342E+03  0.10000000000E+00 0. -1.
         -5    1    3    3    0  501 -0.42604528314E+02  0.61444606801E+02 -0.12714791641E+03  0.14750318025E+03  0.10000000000E+00 0. -1.
         21    1    1    2  504  502 -0.43766164777E+01 -0.51863383597E+02 -0.11668523000E+03  0.12776700760E+03  0.00000000000E+00 0.  1.
<mgrwt>
<rscale>  1 0.13541164E+03</rscale>
<asrwt>0</asrwt>
<pdfrwt beam="1">  1       21 0.28172349E-02 0.13541164E+03</pdfrwt>
<pdfrwt beam="2">  1       21 0.74025622E-01 0.13541164E+03</pdfrwt>
<totfact> 0.11520797E+06</totfact>
</mgrwt>
</event>
<event>
 6    1  0.4180481E-002  0.1707561E+03  0.7546771E-02  0.1177062E+00
         21   -1    0    0  504  502  0.00000000000E+00  0.00000000000E+00  0.15309189295E+03  0.15309189295E+03  0.00000000000E+00 0. -1.
         21   -1    0    0  502  503 -0.00000000000E+00 -0.00000000000E+00 -0.13877695152E+03  0.13877695152E+03  0.00000000000E+00 0. -1.
         25    2    1    2    0    0  0.73295762540E+02  0.90347779182E+02  0.33348802989E+02  0.17398212811E+03  0.12499059257E+03 0.  0.
          5    1    3    3  501    0  0.10174807723E+03  0.98008771614E+02  0.26690139792E+02  0.14377330801E+03  0.10000000000E+00 0. -1.
         -5    1    3    3    0  501 -0.28452314692E+02 -0.76609924315E+01  0.66586631971E+01  0.30208820102E+02  0.10000000000E+00 0. -1.
         21    1    1    2  504  503 -0.73295762540E+02 -0.90347779182E+02 -0.19033861561E+02  0.11788671637E+03  0.00000000000E+00 0. -1.
<mgrwt>
<rscale>  1 0.17075608E+03</rscale>
<asrwt>0</asrwt>
<pdfrwt beam="1">  1       21 0.23552599E-01 0.17075608E+03</pdfrwt>
<pdfrwt beam="2">  1       21 0.21350300E-01 0.17075608E+03</pdfrwt>
<totfact> 0.34814136E+05</totfact>
</mgrwt>
</event>
<event>
 6    1  0.4180481E-002  0.1465475E+03  0.7546771E-02  0.1204781E+00
         21   -1    0    0  504  502  0.00000000000E+00  0.00000000000E+00  0.59811133506E+02  0.59811133506E+02  0.00000000000E+00 0. -1.
         21   -1    0    0  502  503 -0.00000000000E+00 -0.00000000000E+00 -0.41521063298E+03  0.41521063298E+03  0.00000000000E+00 0. -1.
         25    2    1    2    0    0 -0.72797340328E+02 -0.23441877643E+02 -0.42030997440E+02  0.15245581594E+03  0.12500878641E+03 0.  0.
          5    1    3    3  501    0 -0.95423135191E+02  0.20369649771E+01  0.35917493641E+01  0.95512484103E+02  0.10000000000E+00 0.  1.
         -5    1    3    3    0  501  0.22625794863E+02 -0.25478842620E+02 -0.45622746804E+02  0.56943331834E+02  0.10000000000E+00 0.  1.
         21    1    1    2  504  503  0.72797340328E+02  0.23441877643E+02 -0.31336850203E+03  0.32256595054E+03  0.00000000000E+00 0. -1.
<mgrwt>
<rscale>  1 0.14654750E+03</rscale>
<asrwt>0</asrwt>
<pdfrwt beam="1">  1       21 0.92017126E-02 0.14654750E+03</pdfrwt>
<pdfrwt beam="2">  1       21 0.63878560E-01 0.14654750E+03</pdfrwt>
<totfact> 0.21544585E+05</totfact>
</mgrwt>
</event>
<event>
 6    1  0.4180481E-002  0.1315853E+03  0.7546771E-02  0.1225122E+00
         21   -1    0    0  503  502  0.00000000000E+00  0.00000000000E+00  0.12349908592E+03  0.12349908592E+03  0.00000000000E+00 0. -1.
         21   -1    0    0  504  503 -0.00000000000E+00 -0.00000000000E+00 -0.60708646749E+02  0.60708646749E+02  0.00000000000E+00 0. -1.
         25    2    1    2    0    0  0.27649342746E+02 -0.30408521475E+02  0.41843499085E+02  0.13807814746E+03  0.12500212821E+03 0.  0.
          5    1    3    3  501    0  0.50484467588E+02 -0.47795542219E+02 -0.17908770563E+02  0.71790176116E+02  0.10000000000E+00 0. -1.
         -5    1    3    3    0  501 -0.22835124842E+02  0.17387020744E+02  0.59752269648E+02  0.66287971345E+02  0.10000000000E+00 0. -1.
         21    1    1    2  504  502 -0.27649342746E+02  0.30408521475E+02  0.20946940086E+02  0.46129585209E+02  0.00000000000E+00 0. -1.
<mgrwt>
<rscale>  1 0.13158532E+03</rscale>
<asrwt>0</asrwt>
<pdfrwt beam="1">  1       21 0.18999859E-01 0.13158532E+03</pdfrwt>
<pdfrwt beam="2">  1       21 0.93397918E-02 0.13158532E+03</pdfrwt>
<totfact> 0.23090232E+06</totfact>
</mgrwt>
</event>
<event>
 6    1  0.4180481E-002  0.1444553E+03  0.7546771E-02  0.1207457E+00
         21   -1    0    0  503  502  0.00000000000E+00  0.00000000000E+00  0.13432259792E+03  0.13432259792E+03  0.00000000000E+00 0.  1.
         21   -1    0    0  504  503 -0.00000000000E+00 -0.00000000000E+00 -0.12919218180E+03  0.12919218180E+03  0.00000000000E+00 0.  1.
         25    2    1    2    0    0 -0.27791189999E+02 -0.66852764467E+02  0.75116831814E+02  0.16281850005E+03  0.12500273268E+03 0.  0.
          5    1    3    3  501    0 -0.59692262434E+02 -0.49467526483E+02 -0.20223450158E+01  0.77551932601E+02  0.10000000000E+00 0. -1.
         -5    1    3    3    0  501  0.31901072435E+02 -0.17385237984E+02  0.77139176829E+02  0.85266567447E+02  0.10000000000E+00 0. -1.
         21    1    1    2  504  502  0.27791189999E+02  0.66852764467E+02 -0.69986415693E+02  0.10069627967E+03  0.00000000000E+00 0.  1.
<mgrwt>
<rscale>  1 0.14445527E+03</rscale>
<asrwt>0</asrwt>
<pdfrwt beam="1">  1       21 0.20665015E-01 0.14445527E+03</pdfrwt>
<pdfrwt beam="2">  1       21 0.19875720E-01 0.14445527E+03</pdfrwt>
<totfact> 0.51038685E+05</totfact>
</mgrwt>
</event>
<event>
 6    1  0.4180481E-002  0.1279147E+03  0.7546771E-02  0.1230583E+00
         21   -1    0    0  503  502  0.00000000000E+00  0.00000000000E+00  0.27373632320E+03  0.27373632320E+03  0.00000000000E+00 0. -1.
         21   -1    0    0  504  503 -0.00000000000E+00 -0.00000000000E+00 -0.68588539799E+02  0.68588539799E+02  0.00000000000E+00 0. -1.
         25    2    1    2    0    0 -0.10616816907E+01 -0.27154835418E+02  0.25514804477E+03  0.28541670548E+03  0.12499463494E+03 0.  0.
          5    1    3    3  501    0 -0.24150244753E+02 -0.21332126957E+02  0.32393797863E+01  0.32385143871E+02  0.10000000000E+00 0. -1.
         -5    1    3    3    0  501  0.23088563062E+02 -0.58227084610E+01  0.25190866498E+03  0.25303156161E+03  0.10000000000E+00 0. -1.
         21    1    1    2  504  502  0.10616816907E+01  0.27154835418E+02 -0.50000261370E+02  0.56908157514E+02  0.00000000000E+00 0. -1.
<mgrwt>
<rscale>  1 0.12791470E+03</rscale>
<asrwt>0</asrwt>
<pdfrwt beam="1">  1       21 0.42113280E-01 0.12791470E+03</pdfrwt>
<pdfrwt beam="2">  1       21 0.10552083E-01 0.12791470E+03</pdfrwt>
<totfact> 0.40467399E+05</totfact>
</mgrwt>
</event>
<event>
 6    1  0.4180481E-002  0.1259403E+03  0.7546771E-02  0.1233607E+00
         21   -1    0    0  504  502  0.00000000000E+00  0.00000000000E+00  0.31949043972E+02  0.31949043972E+02  0.00000000000E+00 0. -1.
         21   -1    0    0  502  503 -0.00000000000E+00 -0.00000000000E+00 -0.37478871381E+03  0.37478871381E+03  0.00000000000E+00 0. -1.
         25    2    1    2    0    0 -0.25830613611E+01  0.15164504389E+02 -0.93326253327E+02  0.15675059928E+03  0.12499730563E+03 0.  0.
          5    1    3    3  501    0  0.25269879734E+01  0.62025230793E+02 -0.90215236310E+02  0.10950942327E+03  0.10000000000E+00 0.  1.
         -5    1    3    3    0  501 -0.51100493346E+01 -0.46860726403E+02 -0.31110170179E+01  0.47241176003E+02  0.10000000000E+00 0.  1.
         21    1    1    2  504  503  0.25830613611E+01 -0.15164504389E+02 -0.24951341652E+03  0.24998715851E+03  0.00000000000E+00 0. -1.
<mgrwt>
<rscale>  1 0.12594031E+03</rscale>
<asrwt>0</asrwt>
<pdfrwt beam="1">  1       21 0.49152377E-02 0.12594031E+03</pdfrwt>
<pdfrwt beam="2">  1       21 0.57659801E-01 0.12594031E+03</pdfrwt>
<totfact> 0.78506068E+05</totfact>
</mgrwt>
</event>
<event>
 6    1  0.4180481E-002  0.1284152E+03  0.7546771E-02  0.1229826E+00
         21   -1    0    0  504  502  0.00000000000E+00  0.00000000000E+00  0.14058546955E+02  0.14058546955E+02  0.00000000000E+00 0. -1.
         21   -1    0    0  502  503 -0.00000000000E+00 -0.00000000000E+00 -0.45149094286E+03  0.45149094286E+03  0.00000000000E+00 0. -1.
         25    2    1    2    0    0 -0.17032277637E+02 -0.23979130141E+02 -0.32825262347E+03  0.35247730104E+03  0.12500146309E+03 0.  0.
          5    1    3    3  501    0  0.30752015630E+02 -0.29410987457E+02 -0.28384934264E+03  0.28702116989E+03  0.10000000000E+00 0.  1.
         -5    1    3    3    0  501 -0.47784293267E+02  0.54318573163E+01 -0.44403280821E+02  0.65456131146E+02  0.10000000000E+00 0.  1.
         21    1    1    2  504  503  0.17032277637E+02  0.23979130141E+02 -0.10917977244E+03  0.11307218877E+03  0.00000000000E+00 0. -1.
<mgrwt>
<rscale>  1 0.12841520E+03</rscale>
<asrwt>0</asrwt>
<pdfrwt beam="1">  1       21 0.21628528E-02 0.12841520E+03</pdfrwt>
<pdfrwt beam="2">  1       21 0.69460162E-01 0.12841520E+03</pdfrwt>
<totfact> 0.20353062E+06</totfact>
</mgrwt>
</event>
<event>
 6    1  0.4180481E-002  0.1487014E+03  0.7546771E-02  0.1202078E+00
         21   -1    0    0  503  502  0.00000000000E+00  0.00000000000E+00  0.25472029381E+03  0.25472029381E+03  0.00000000000E+00 0.  1.
         21   -1    0    0  504  503 -0.00000000000E+00 -0.00000000000E+00 -0.26532339790E+03  0.26532339790E+03  0.00000000000E+00 0.  1.
         25    2    1    2    0    0 -0.73171962205E+02  0.33672304428E+02  0.22576020133E+03  0.27033271421E+03  0.12499659088E+03 0.  0.
          5    1    3    3  501    0 -0.58495276496E+02  0.66090712186E+02  0.21614544900E+03  0.23347065068E+03  0.10000000000E+00 0. -1.
         -5    1    3    3    0  501 -0.14676685709E+02 -0.32418407758E+02  0.96147523298E+01  0.36862063525E+02  0.10000000000E+00 0. -1.
         21    1    1    2  504  502  0.73171962205E+02 -0.33672304428E+02 -0.23636330541E+03  0.24971097750E+03  0.00000000000E+00 0.  1.
<mgrwt>
<rscale>  1 0.14870141E+03</rscale>
<asrwt>0</asrwt>
<pdfrwt beam="1">  1       21 0.39187737E-01 0.14870141E+03</pdfrwt>
<pdfrwt beam="2">  1       21 0.40818985E-01 0.14870141E+03</pdfrwt>
<totfact> 0.37157345E+04</totfact>
</mgrwt>
</event>
<event>
 6    1  0.4180481E-002  0.1372645E+03  0.7546771E-02  0.1217058E+00
         21   -1    0    0  504  502  0.00000000000E+00  0.00000000000E+00  0.38439723772E+02  0.38439723772E+02  0.00000000000E+00 0. -1.
         21   -1    0    0  502  503 -0.00000000000E+00 -0.00000000000E+00 -0.27694533317E+03  0.27694533317E+03  0.00000000000E+00 0. -1.
         25    2    1    2    0    0  0.52603391135E+02 -0.21198727074E+02 -0.11348603437E+03  0.17810287700E+03  0.12500020804E+03 0.  0.
          5    1    3    3  501    0 -0.23750421973E+02  0.18528052264E+02  0.61287899990E+01  0.30739930570E+02  0.10000000000E+00 0.  1.
         -5    1    3    3    0  501  0.76353813108E+02 -0.39726779337E+02 -0.11961482437E+03  0.14736294643E+03  0.10000000000E+00 0.  1.
         21    1    1    2  504  503 -0.52603391135E+02  0.21198727074E+02 -0.12501957503E+03  0.13728217994E+03  0.00000000000E+00 0. -1.
<mgrwt>
<rscale>  1 0.13726454E+03</rscale>
<asrwt>0</asrwt>
<pdfrwt beam="1">  1       21 0.59138038E-02 0.13726454E+03</pdfrwt>
<pdfrwt beam="2">  1       21 0.42606973E-01 0.13726454E+03</pdfrwt>
<totfact> 0.10727448E+06</totfact>
</mgrwt>
</event>
<event>
 6    1  0.4180481E-002  0.1261345E+03  0.7546771E-02  0.1233307E+00
         21   -1    0    0  503  502  0.00000000000E+00  0.00000000000E+00  0.12794154753E+03  0.12794154753E+03  0.00000000000E+00 0. -1.
         21   -1    0    0  504  503 -0.00000000000E+00 -0.00000000000E+00 -0.73710406947E+02  0.73710406947E+02  0.00000000000E+00 0. -1.
         25    2    1    2    0    0 -0.84107413799E+01 -0.14559613086E+02  0.94766501436E+02  0.15776757932E+03  0.12500878524E+03 0.  0.
          5    1    3    3  501    0  0.33127853004E+02  0.42780080159E+02  0.52031358941E+02  0.75065719315E+02  0.10000000000E+00 0.  1.
         -5    1    3    3    0  501 -0.41538594384E+02 -0.57339693245E+02  0.42735142496E+02  0.82701860009E+02  0.10000000000E+00 0.  1.
         21    1    1    2  504  502  0.84107413799E+01  0.14559613086E+02 -0.40535360849E+02  0.43884375157E+02  0.00000000000E+00 0. -1.
<mgrwt>
<rscale>  1 0.12613453E+03</rscale>
<asrwt>0</asrwt>
<pdfrwt beam="1">  1       21 0.19683315E-01 0.12613453E+03</pdfrwt>
<pdfrwt beam="2">  1       21 0.11340063E-01 0.12613453E+03</pdfrwt>
<totfact> 0.15378828E+06</totfact>
</mgrwt>
</event>
<event>
 6    1  0.4180481E-002  0.1277554E+03  0.7546771E-02  0.1230825E+00
         21   -1    0    0  503  502  0.00000000000E+00  0.00000000000E+00  0.73938669199E+02  0.73938669199E+02  0.00000000000E+00 0.  1.
         21   -1    0    0  504  503 -0.00000000000E+00 -0.00000000000E+00 -0.46333859054E+03  0.46333859054E+03  0.00000000000E+00 0.  1.
         25    2    1    2    0    0  0.13842847009E+02  0.22436777591E+02  0.18007038536E+02  0.12901819449E+03  0.12500563056E+03 0.  0.
          5    1    3    3  501    0 -0.47443495114E+02  0.25846269245E+01  0.38779506493E+02  0.61330462649E+02  0.10000000000E+00 0. -1.
         -5    1    3    3    0  501  0.61286342122E+02  0.19852150666E+02 -0.20772467956E+02  0.67687731841E+02  0.10000000000E+00 0. -1.
         21    1    1    2  504  502 -0.13842847009E+02 -0.22436777591E+02 -0.40740695988E+03  0.40825906525E+03  0.00000000000E+00 0.  1.
<mgrwt>
<rscale>  1 0.12775540E+03</rscale>
<asrwt>0</asrwt>
<pdfrwt beam="1">  1       21 0.11375180E-01 0.12775540E+03</pdfrwt>
<pdfrwt beam="2">  1       21 0.71282861E-01 0.12775540E+03</pdfrwt>
<totfact> 0.11775351E+05</totfact>
</mgrwt>
</event>
<event>
 6    1  0.4180481E-002  0.1425940E+03  0.7546771E-02  0.1209881E+00
         21   -1    0    0  503  502  0.00000000000E+00  0.00000000000E+00  0.10079146191E+03  0.10079146191E+03  0.00000000000E+00 0. -1.
         21   -1    0    0  504  503 -0.00000000000E+00 -0.00000000000E+00 -0.18638978057E+03  0.18638978057E+03  0.00000000000E+00 0. -1.
         25    2    1    2    0    0 -0.65931839978E+02  0.18935996032E+02 -0.13984709397E+03  0.19972548743E+03  0.12500992428E+03 0.  0.
          5    1    3    3  501    0  0.24203389770E+02  0.41141050637E+02 -0.64058003604E+02  0.79886343949E+02  0.10000000000E+00 0. -1.
         -5    1    3    3    0  501 -0.90135229748E+02 -0.22205054605E+02 -0.75789090371E+02  0.11983914348E+03  0.10000000000E+00 0. -1.
         21    1    1    2  504  502  0.65931839978E+02 -0.18935996032E+02  0.54248775306E+02  0.87455755047E+02  0.00000000000E+00 0. -1.
<mgrwt>
<rscale>  1 0.14259404E+03</rscale>
<asrwt>0</asrwt>
<pdfrwt beam="1">  1       21 0.15506379E-01 0.14259404E+03</pdfrwt>
<pdfrwt beam="2">  1       21 0.28675351E-01 0.14259404E+03</pdfrwt>
<totfact> 0.43301659E+05</totfact>
</mgrwt>
</event>
<event>
 6    1  0.4180481E-002  0.1260575E+03  0.7546771E-02  0.1233426E+00
         21   -1    0    0  503  502  0.00000000000E+00  0.00000000000E+00  0.26653102805E+03  0.26653102805E+03  0.00000000000E+00 0.  1.
         21   -1    0    0  504  503 -0.00000000000E+00 -0.00000000000E+00 -0.23348128133E+02  0.23348128133E+02  0.00000000000E+00 0.  1.
         25    2    1    2    0    0  0.15519574254E+02  0.47523066724E+01  0.24288132538E+03  0.27364547050E+03  0.12500825452E+03 0.  0.
          5    1    3    3  501    0  0.12088673068E+02  0.63157485536E+02  0.15770659413E+03  0.17031260619E+03  0.10000000000E+00 0.  1.
         -5    1    3    3    0  501  0.34309011854E+01 -0.58405178864E+02  0.85174731259E+02  0.10333286431E+03  0.10000000000E+00 0.  1.
         21    1    1    2  504  502 -0.15519574254E+02 -0.47523066724E+01  0.30157453046E+00  0.16233685685E+02  0.00000000000E+00 0.  1.
<mgrwt>
<rscale>  1 0.12605755E+03</rscale>
<asrwt>0</asrwt>
<pdfrwt beam="1">  1       21 0.41004771E-01 0.12605755E+03</pdfrwt>
<pdfrwt beam="2">  1       21 0.35920199E-02 0.12605755E+03</pdfrwt>
<totfact> 0.26650123E+06</totfact>
</mgrwt>
</event>
<event>
 6    1  0.4180481E-002  0.1291203E+03  0.7546771E-02  0.1228767E+00
         21   -1    0    0  504  502  0.00000000000E+00  0.00000000000E+00  0.14427619369E+03  0.14427619369E+03  0.00000000000E+00 0. -1.
         21   -1    0    0  502  503 -0.00000000000E+00 -0.00000000000E+00 -0.45342283548E+02  0.45342283548E+02  0.00000000000E+00 0. -1.
         25    2    1    2    0    0 -0.40601254506E+01 -0.32110846681E+02  0.83441364168E+02  0.15373519319E+03  0.12499782909E+03 0.  0.
          5    1    3    3  501    0  0.56352994034E+02  0.53533106386E+00  0.56985498471E+02  0.80145514858E+02  0.10000000000E+00 0. -1.
         -5    1    3    3    0  501 -0.60413119484E+02 -0.32646177745E+02  0.26455865697E+02  0.73589678331E+02  0.10000000000E+00 0. -1.
         21    1    1    2  504  503  0.40601254506E+01  0.32110846681E+02  0.15492545972E+02  0.35883284046E+02  0.00000000000E+00 0. -1.
<mgrwt>
<rscale>  1 0.12912029E+03</rscale>
<asrwt>0</asrwt>
<pdfrwt beam="1">  1       21 0.22196337E-01 0.12912029E+03</pdfrwt>
<pdfrwt beam="2">  1       21 0.69757360E-02 0.12912029E+03</pdfrwt>
<totfact> 0.28619506E+06</totfact>
</mgrwt>
</event>
<event>
 6    1  0.4180481E-002  0.1280422E+03  0.7546771E-02  0.1230390E+00
         21   -1    0    0  503  502  0.00000000000E+00  0.00000000000E+00  0.16288614701E+03  0.16288614701E+03  0.00000000000E+00 0.  1.
         21   -1    0    0  504  503 -0.00000000000E+00 -0.00000000000E+00 -0.38470847148E+02  0.38470847148E+02  0.00000000000E+00 0.  1.
         25    2    1    2    0    0 -0.26224559868E+02 -0.90736933796E+01  0.11485261280E+03  0.17200559835E+03  0.12499897498E+03 0.  0.
          5    1    3    3  501    0  0.26126548954E+02 -0.46693513268E+02  0.86205858960E+02  0.10146103124E+03  0.10000000000E+00 0. -1.
         -5    1    3    3    0  501 -0.52351108821E+02  0.37619819888E+02  0.28646753838E+02  0.70544567110E+02  0.10000000000E+00 0. -1.
         21    1    1    2  504  502  0.26224559868E+02  0.90736933796E+01  0.95626870599E+01  0.29351395803E+02  0.00000000000E+00 0. -1.
<mgrwt>
<rscale>  1 0.12804219E+03</rscale>
<asrwt>0</asrwt>
<pdfrwt beam="1">  1       21 0.25059407E-01 0.12804219E+03</pdfrwt>
<pdfrwt beam="2">  1       21 0.59185920E-02 0.12804219E+03</pdfrwt>
<totfact> 0.30132774E+06</totfact>
</mgrwt>
</event>
<event>
 6    1  0.4180481E-002  0.1337526E+03  0.7546771E-02  0.1221991E+00
         21   -1    0    0  504  502  0.00000000000E+00  0.00000000000E+00  0.10801727357E+02  0.10801727357E+02  0.00000000000E+00 0.  1.
         21   -1    0    0  502  503 -0.00000000000E+00 -0.00000000000E+00 -0.79566737975E+03  0.79566737975E+03  0.00000000000E+00 0.  1.
         25    2    1    2    0    0  0.42402126502E+02 -0.21546078656E+02 -0.64547904626E+03  0.65919113928E+03  0.12501034001E+03 0.  0.
          5    1    3    3  501    0 -0.58649627088E+01  0.82901407303E+01  0.10199982486E+01  0.10206596756E+02  0.10000000000E+00 0. -1.
         -5    1    3    3    0  501  0.48267089210E+02 -0.29836219386E+02 -0.64649904451E+03  0.64898454253E+03  0.10000000000E+00 0. -1.
         21    1    1    2  504  503 -0.42402126502E+02  0.21546078656E+02 -0.13938660613E+03  0.14727796782E+03  0.00000000000E+00 0.  1.
<mgrwt>
<rscale>  1 0.13375260E+03</rscale>
<asrwt>0</asrwt>
<pdfrwt beam="1">  1       21 0.16618039E-02 0.13375260E+03</pdfrwt>
<pdfrwt beam="2">  1       21 0.12241039E+00 0.13375260E+03</pdfrwt>
<totfact> 0.84296315E+05</totfact>
</mgrwt>
</event>
<event>
 6    1  0.4180481E-002  0.1262482E+03  0.7546771E-02  0.1233131E+00
         21   -1    0    0  504  502  0.00000000000E+00  0.00000000000E+00  0.72741378031E+02  0.72741378031E+02  0.00000000000E+00 0.  1.
         21   -1    0    0  502  503 -0.00000000000E+00 -0.00000000000E+00 -0.86622948867E+02  0.86622948867E+02  0.00000000000E+00 0.  1.
         25    2    1    2    0    0 -0.16905620348E+02 -0.57594444548E+01  0.13186686537E+02  0.12693499208E+03  0.12497852740E+03 0.  0.
          5    1    3    3  501    0 -0.11302595342E+02  0.69420354164E+01 -0.55395655426E+02  0.56961646371E+02  0.10000000000E+00 0. -1.
         -5    1    3    3    0  501 -0.56030250062E+01 -0.12701479871E+02  0.68582341963E+02  0.69973345706E+02  0.10000000000E+00 0. -1.
         21    1    1    2  504  503  0.16905620348E+02  0.57594444548E+01 -0.27068257373E+02  0.32429334822E+02  0.00000000000E+00 0.  1.
<mgrwt>
<rscale>  1 0.12624818E+03</rscale>
<asrwt>0</asrwt>
<pdfrwt beam="1">  1       21 0.11190981E-01 0.12624818E+03</pdfrwt>
<pdfrwt beam="2">  1       21 0.13326608E-01 0.12624818E+03</pdfrwt>
<totfact> 0.31934409E+06</totfact>
</mgrwt>
</event>
<event>
 6    1  0.4180481E-002  0.1336311E+03  0.7546771E-02  0.1222165E+00
         21   -1    0    0  503  502  0.00000000000E+00  0.00000000000E+00  0.60423804714E+02  0.60423804714E+02  0.00000000000E+00 0.  1.
         21   -1    0    0  504  503 -0.00000000000E+00 -0.00000000000E+00 -0.35875993297E+03  0.35875993297E+03  0.00000000000E+00 0. -1.
         25    2    1    2    0    0  0.18217225550E+02  0.43596999891E+02 -0.17934827398E+02  0.13482928418E+03  0.12499884852E+03 0.  0.
          5    1    3    3  501    0 -0.18540207076E+02  0.63026477644E+02 -0.49806053114E+02  0.82442277318E+02  0.10000000000E+00 0. -1.
         -5    1    3    3    0  501  0.36757432626E+02 -0.19429477754E+02  0.31871225716E+02  0.52387006859E+02  0.10000000000E+00 0. -1.
         21    1    1    2  504  502 -0.18217225550E+02 -0.43596999891E+02 -0.28040130086E+03  0.28435445350E+03  0.00000000000E+00 0. -1.
<mgrwt>
<rscale>  1 0.13363113E+03</rscale>
<asrwt>0</asrwt>
<pdfrwt beam="1">  1       21 0.92959697E-02 0.13363113E+03</pdfrwt>
<pdfrwt beam="2">  1       21 0.55193837E-01 0.13363113E+03</pdfrwt>
<totfact> 0.28957766E+05</totfact>
</mgrwt>
</event>
<event>
 6    1  0.4180481E-002  0.1262032E+03  0.7546771E-02  0.1233201E+00
         21   -1    0    0  504  502  0.00000000000E+00  0.00000000000E+00  0.28481427093E+02  0.28481427093E+02  0.00000000000E+00 0.  1.
         21   -1    0    0  502  503 -0.00000000000E+00 -0.00000000000E+00 -0.64080032921E+03  0.64080032921E+03  0.00000000000E+00 0.  1.
         25    2    1    2    0    0 -0.15810554541E+02 -0.72486322068E+01 -0.11221960394E+03  0.16888009330E+03  0.12499892039E+03 0.  0.
          5    1    3    3  501    0 -0.57477376400E+02 -0.22374593898E+02 -0.10797497580E+03  0.12434981563E+03  0.10000000000E+00 0.  1.
         -5    1    3    3    0  501  0.41666821858E+02  0.15125961691E+02 -0.42446281484E+01  0.44530277665E+02  0.10000000000E+00 0.  1.
         21    1    1    2  504  503  0.15810554541E+02  0.72486322068E+01 -0.50009929818E+03  0.50040166301E+03  0.00000000000E+00 0.  1.
<mgrwt>
<rscale>  1 0.12620319E+03</rscale>
<asrwt>0</asrwt>
<pdfrwt beam="1">  1       21 0.43817586E-02 0.12620319E+03</pdfrwt>
<pdfrwt beam="2">  1       21 0.98584653E-01 0.12620319E+03</pdfrwt>
<totfact> 0.29051080E+05</totfact>
</mgrwt>
</event>
<event>
 6    1  0.4180481E-002  0.1341811E+03  0.7546771E-02  0.1221380E+00
         21   -1    0    0  504  502  0.00000000000E+00  0.00000000000E+00  0.17836431669E+02  0.17836431669E+02  0.00000000000E+00 0.  1.
         21   -1    0    0  502  503 -0.00000000000E+00 -0.00000000000E+00 -0.16973303967E+04  0.16973303967E+04  0.00000000000E+00 0. -1.
         25    2    1    2    0    0 -0.33569793264E+02 -0.35329374888E+02 -0.24090919985E+03  0.27575680257E+03  0.12501790209E+03 0.  0.
          5    1    3    3  501    0 -0.58782084893E+02 -0.46609131403E+01 -0.40699355251E+02  0.71648483121E+02  0.10000000000E+00 0.  1.
         -5    1    3    3    0  501  0.25212291629E+02 -0.30668461748E+02 -0.20020984460E+03  0.20410831945E+03  0.10000000000E+00 0.  1.
         21    1    1    2  504  503  0.33569793264E+02  0.35329374888E+02 -0.14385847652E+04  0.14394100258E+04  0.00000000000E+00 0. -1.
<mgrwt>
<rscale>  1 0.13418111E+03</rscale>
<asrwt>0</asrwt>
<pdfrwt beam="1">  1       21 0.27440667E-02 0.13418111E+03</pdfrwt>
<pdfrwt beam="2">  1       21 0.26112773E+00 0.13418111E+03</pdfrwt>
<totfact> 0.44245169E+04</totfact>
</mgrwt>
</event>
<event>
 6    1  0.4180481E-002  0.1370402E+03  0.7546771E-02  0.1217368E+00
         21   -1    0    0  503  502  0.00000000000E+00  0.00000000000E+00  0.48114851936E+02  0.48114851936E+02  0.00000000000E+00 0.  1.
         21   -1    0    0  504  503 -0.00000000000E+00 -0.00000000000E+00 -0.39730438139E+03  0.39730438139E+03  0.00000000000E+00 0.  1.
         25    2    1    2    0    0 -0.23848139382E+02 -0.50847891638E+02 -0.57908168915E+02  0.14877285659E+03  0.12500305994E+03 0.  0.
          5    1    3    3  501    0  0.20995233337E+02 -0.42246405914E+02 -0.83884399476E+02  0.96240122147E+02  0.10000000000E+00 0. -1.
         -5    1    3    3    0  501 -0.44843372718E+02 -0.86014857232E+01  0.25976230561E+02  0.52532734438E+02  0.10000000000E+00 0. -1.
         21    1    1    2  504  502  0.23848139382E+02  0.50847891638E+02 -0.29128136054E+03  0.29664637674E+03  0.00000000000E+00 0.  1.
<mgrwt>
<rscale>  1 0.13704017E+03</rscale>
<asrwt>0</asrwt>
<pdfrwt beam="1">  1       21 0.74022849E-02 0.13704017E+03</pdfrwt>
<pdfrwt beam="2">  1       21 0.61123751E-01 0.13704017E+03</pdfrwt>
<totfact> 0.34586344E+05</totfact>
</mgrwt>
</event>
<event>
 6    1  0.4180481E-002  0.1306768E+03  0.7546771E-02  0.1226455E+00
         21   -1    0    0  504  502  0.00000000000E+00  0.00000000000E+00  0.26811409074E+03  0.26811409074E+03  0.00000000000E+00 0.  1.
         21   -1    0    0  502  503 -0.00000000000E+00 -0.00000000000E+00 -0.26946058337E+02  0.26946058337E+02  0.00000000000E+00 0.  1.
         25    2    1    2    0    0 -0.12663262764E+02 -0.35933146012E+02  0.20057581904E+03  0.23938899864E+03  0.12499953711E+03 0.  0.
          5    1    3    3  501    0  0.29766445569E+02 -0.13815868377E+02  0.18671007896E+03  0.18957210524E+03  0.10000000000E+00 0. -1.
         -5    1    3    3    0  501 -0.42429708334E+02 -0.22117277635E+02  0.13865740084E+02  0.49816893393E+02  0.10000000000E+00 0. -1.
         21    1    1    2  504  503  0.12663262764E+02  0.35933146012E+02  0.40592213361E+02  0.55671150443E+02  0.00000000000E+00 0.  1.
<mgrwt>
<rscale>  1 0.13067683E+03</rscale>
<asrwt>0</asrwt>
<pdfrwt beam="1">  1       21 0.41248320E-01 0.13067683E+03</pdfrwt>
<pdfrwt beam="2">  1       21 0.41455476E-02 0.13067683E+03</pdfrwt>
<totfact> 0.20786962E+06</totfact>
</mgrwt>
</event>
<event>
 6    1  0.4180481E-002  0.1296220E+03  0.7546771E-02  0.1228018E+00
         21   -1    0    0  504  502  0.00000000000E+00  0.00000000000E+00  0.78730118766E+01  0.78730118766E+01  0.00000000000E+00 0. -1.
         21   -1    0    0  502  503 -0.00000000000E+00 -0.00000000000E+00 -0.10379583941E+04  0.10379583941E+04  0.00000000000E+00 0. -1.
         25    2    1    2    0    0  0.14147085655E+02  0.31281190538E+02 -0.57391180856E+03  0.58836776565E+03  0.12499284273E+03 0.  0.
          5    1    3    3  501    0  0.48767833537E+02  0.14227873996E+02 -0.51767812648E+03  0.52016476873E+03  0.10000000000E+00 0.  1.
         -5    1    3    3    0  501 -0.34620747882E+02  0.17053316542E+02 -0.56233682078E+02  0.68202996921E+02  0.10000000000E+00 0.  1.
         21    1    1    2  504  503 -0.14147085655E+02 -0.31281190538E+02 -0.45617357368E+03  0.45746364034E+03  0.00000000000E+00 0. -1.
<mgrwt>
<rscale>  1 0.12962200E+03</rscale>
<asrwt>0</asrwt>
<pdfrwt beam="1">  1       21 0.12112322E-02 0.12962200E+03</pdfrwt>
<pdfrwt beam="2">  1       21 0.15968596E+00 0.12962200E+03</pdfrwt>
<totfact> 0.71029123E+05</totfact>
</mgrwt>
</event>
<event>
 6    1  0.4180481E-002  0.1260109E+03  0.7546771E-02  0.1233498E+00
         21   -1    0    0  504  502  0.00000000000E+00  0.00000000000E+00  0.33767201923E+02  0.33767201923E+02  0.00000000000E+00 0. -1.
         21   -1    0    0  502  503 -0.00000000000E+00 -0.00000000000E+00 -0.15420314079E+03  0.15420314079E+03  0.00000000000E+00 0. -1.
         25    2    1    2    0    0 -0.68355521778E+01 -0.14391831721E+02 -0.94409725836E+02  0.15745455404E+03  0.12499956264E+03 0.  0.
          5    1    3    3  501    0 -0.35484527456E+01 -0.13646989565E+01  0.31047681842E+02  0.31279745329E+02  0.10000000000E+00 0.  1.
         -5    1    3    3    0  501 -0.32870994323E+01 -0.13027132764E+02 -0.12545740768E+03  0.12617480871E+03  0.10000000000E+00 0.  1.
         21    1    1    2  504  503  0.68355521778E+01  0.14391831721E+02 -0.26026213029E+02  0.30515788675E+02  0.00000000000E+00 0. -1.
<mgrwt>
<rscale>  1 0.12601087E+03</rscale>
<asrwt>0</asrwt>
<pdfrwt beam="1">  1       21 0.51949541E-02 0.12601087E+03</pdfrwt>
<pdfrwt beam="2">  1       21 0.23723560E-01 0.12601087E+03</pdfrwt>
<totfact> 0.41606365E+06</totfact>
</mgrwt>
</event>
<event>
 6    1  0.4180481E-002  0.1402874E+03  0.7546771E-02  0.1212943E+00
         21   -1    0    0  504  502  0.00000000000E+00  0.00000000000E+00  0.23744028394E+03  0.23744028394E+03  0.00000000000E+00 0. -1.
         21   -1    0    0  502  503 -0.00000000000E+00 -0.00000000000E+00 -0.68273062972E+02  0.68273062972E+02  0.00000000000E+00 0.  1.
         25    2    1    2    0    0  0.52170097451E+02 -0.36508555475E+02  0.19224133523E+03  0.23798588985E+03  0.12500383638E+03 0.  0.
          5    1    3    3  501    0  0.54148936966E+02 -0.67203101357E+02  0.18809465287E+03  0.20694920306E+03  0.10000000000E+00 0.  1.
         -5    1    3    3    0  501 -0.19788395146E+01  0.30694545883E+02  0.41466823507E+01  0.31036686796E+02  0.10000000000E+00 0.  1.
         21    1    1    2  504  503 -0.52170097451E+02  0.36508555475E+02 -0.23074114257E+02  0.67727457059E+02  0.00000000000E+00 0.  1.
<mgrwt>
<rscale>  1 0.14028739E+03</rscale>
<asrwt>0</asrwt>
<pdfrwt beam="1">  1       21 0.36529274E-01 0.14028739E+03</pdfrwt>
<pdfrwt beam="2">  1       21 0.10503548E-01 0.14028739E+03</pdfrwt>
<totfact> 0.54123337E+05</totfact>
</mgrwt>
</event>
<event>
 6    1  0.4180481E-002  0.1262287E+03  0.7546771E-02  0.1233161E+00
         21   -1    0    0  504  502  0.00000000000E+00  0.00000000000E+00  0.44874751643E+02  0.44874751643E+02  0.00000000000E+00 0.  1.
         21   -1    0    0  502  503 -0.00000000000E+00 -0.00000000000E+00 -0.11806603689E+03  0.11806603689E+03  0.00000000000E+00 0.  1.
         25    2    1    2    0    0  0.98255565626E+01  0.14648444337E+02 -0.55280278545E+02  0.13780271692E+03  0.12499024406E+03 0.  0.
          5    1    3    3  501    0 -0.45074662714E+02  0.28931444858E+02 -0.60539158754E+02  0.80831636523E+02  0.10000000000E+00 0.  1.
         -5    1    3    3    0  501  0.54900219276E+02 -0.14283000521E+02  0.52588802096E+01  0.56971080396E+02  0.10000000000E+00 0.  1.
         21    1    1    2  504  503 -0.98255565626E+01 -0.14648444337E+02 -0.17911006698E+02  0.25138071609E+02  0.00000000000E+00 0. -1.
<mgrwt>
<rscale>  1 0.12622868E+03</rscale>
<asrwt>0</asrwt>
<pdfrwt beam="1">  1       21 0.69038079E-02 0.12622868E+03</pdfrwt>
<pdfrwt beam="2">  1       21 0.18164006E-01 0.12622868E+03</pdfrwt>
<totfact> 0.42164145E+06</totfact>
</mgrwt>
</event>
<event>
 6    1  0.4180481E-002  0.1546710E+03  0.7546771E-02  0.1194848E+00
         21   -1    0    0  504  502  0.00000000000E+00  0.00000000000E+00  0.84193689988E+02  0.84193689988E+02  0.00000000000E+00 0. -1.
         21   -1    0    0  502  503 -0.00000000000E+00 -0.00000000000E+00 -0.20143818607E+03  0.20143818607E+03  0.00000000000E+00 0. -1.
         25    2    1    2    0    0  0.70053949378E+02  0.58235284172E+02 -0.26268342784E+02  0.15688575140E+03  0.12499683601E+03 0.  0.
          5    1    3    3  501    0  0.45491183650E+02 -0.34943388708E+02 -0.14588931119E+01  0.57381413136E+02  0.10000000000E+00 0. -1.
         -5    1    3    3    0  501  0.24562765728E+02  0.93178672881E+02 -0.24809449673E+02  0.99504338263E+02  0.10000000000E+00 0. -1.
         21    1    1    2  504  503 -0.70053949378E+02 -0.58235284172E+02 -0.90976153299E+02  0.12874612466E+03  0.00000000000E+00 0. -1.
<mgrwt>
<rscale>  1 0.15467098E+03</rscale>
<asrwt>0</asrwt>
<pdfrwt beam="1">  1       21 0.12952875E-01 0.15467098E+03</pdfrwt>
<pdfrwt beam="2">  1       21 0.30990490E-01 0.15467098E+03</pdfrwt>
<totfact> 0.51466936E+05</totfact>
</mgrwt>
</event>
<event>
 6    1  0.4180481E-002  0.1260153E+03  0.7546771E-02  0.1233491E+00
         21   -1    0    0  503  502  0.00000000000E+00  0.00000000000E+00  0.42524254114E+03  0.42524254114E+03  0.00000000000E+00 0. -1.
         21   -1    0    0  504  503 -0.00000000000E+00 -0.00000000000E+00 -0.13442221301E+02  0.13442221301E+02  0.00000000000E+00 0. -1.
         25    2    1    2    0    0 -0.15953984057E+02 -0.20850849762E+00  0.39838115846E+03  0.41783657366E+03  0.12500112717E+03 0.  0.
          5    1    3    3  501    0  0.10440507162E+02 -0.43967993694E+02  0.57435961785E+02  0.73082750122E+02  0.10000000000E+00 0.  1.
         -5    1    3    3    0  501 -0.26394491219E+02  0.43759485197E+02  0.34094519667E+03  0.34475382354E+03  0.10000000000E+00 0.  1.
         21    1    1    2  504  502  0.15953984057E+02  0.20850849762E+00  0.13419161378E+02  0.20848188774E+02  0.00000000000E+00 0. -1.
<mgrwt>
<rscale>  1 0.12601530E+03</rscale>
<asrwt>0</asrwt>
<pdfrwt beam="1">  1       21 0.65421919E-01 0.12601530E+03</pdfrwt>
<pdfrwt beam="2">  1       21 0.20680344E-02 0.12601530E+03</pdfrwt>
<totfact> 0.24901889E+06</totfact>
</mgrwt>
</event>
<event>
 6    1  0.4180481E-002  0.1260802E+03  0.7546771E-02  0.1233391E+00
         21   -1    0    0  503  502  0.00000000000E+00  0.00000000000E+00  0.92067584041E+03  0.92067584041E+03  0.00000000000E+00 0. -1.
         21   -1    0    0  504  503 -0.00000000000E+00 -0.00000000000E+00 -0.95544647949E+02  0.95544647949E+02  0.00000000000E+00 0.  1.
         25    2    1    2    0    0 -0.96259203878E+01 -0.13464306840E+02  0.91560511975E+03  0.92424507088E+03  0.12498907889E+03 0.  0.
          5    1    3    3  501    0 -0.42322491409E+02 -0.30188882806E+02  0.82275160433E+03  0.82439236675E+03  0.10000000000E+00 0. -1.
         -5    1    3    3    0  501  0.32696571021E+02  0.16724575966E+02  0.92853515414E+02  0.99852704132E+02  0.10000000000E+00 0. -1.
         21    1    1    2  504  502  0.96259203878E+01  0.13464306840E+02 -0.90473927285E+02  0.91975417478E+02  0.00000000000E+00 0.  1.
<mgrwt>
<rscale>  1 0.12608020E+03</rscale>
<asrwt>0</asrwt>
<pdfrwt beam="1">  1       21 0.14164243E+00 0.12608020E+03</pdfrwt>
<pdfrwt beam="2">  1       21 0.14699177E-01 0.12608020E+03</pdfrwt>
<totfact> 0.14887555E+04</totfact>
</mgrwt>
</event>
<event>
 6    1  0.4180481E-002  0.1494506E+03  0.7546771E-02  0.1201150E+00
         21   -1    0    0  503  502  0.00000000000E+00  0.00000000000E+00  0.17952511016E+02  0.17952511016E+02  0.00000000000E+00 0. -1.
         21   -1    0    0  504  503 -0.00000000000E+00 -0.00000000000E+00 -0.12462892893E+04  0.12462892893E+04  0.00000000000E+00 0. -1.
         25    2    1    2    0    0  0.41201241751E+02  0.70808049377E+02 -0.33102801686E+03  0.36320110450E+03  0.12499668871E+03 0.  0.
          5    1    3    3  501    0  0.48820429933E+02  0.46813726501E+02 -0.33118908447E+03  0.33802541183E+03  0.10000000000E+00 0. -1.
         -5    1    3    3    0  501 -0.76191881820E+01  0.23994322876E+02  0.16106761610E+00  0.25175692674E+02  0.10000000000E+00 0. -1.
         21    1    1    2  504  502 -0.41201241751E+02 -0.70808049377E+02 -0.89730876146E+03  0.90104069585E+03  0.00000000000E+00 0. -1.
<mgrwt>
<rscale>  1 0.14945064E+03</rscale>
<asrwt>0</asrwt>
<pdfrwt beam="1">  1       21 0.27619237E-02 0.14945064E+03</pdfrwt>
<pdfrwt beam="2">  1       21 0.19173689E+00 0.14945064E+03</pdfrwt>
<totfact> 0.11292212E+05</totfact>
</mgrwt>
</event>
<event>
 6    1  0.4180481E-002  0.1265051E+03  0.7546771E-02  0.1232736E+00
         21   -1    0    0  504  502  0.00000000000E+00  0.00000000000E+00  0.45496435821E+03  0.45496435821E+03  0.00000000000E+00 0.  1.
         21   -1    0    0  502  503 -0.00000000000E+00 -0.00000000000E+00 -0.20133720611E+02  0.20133720611E+02  0.00000000000E+00 0.  1.
         25    2    1    2    0    0  0.62081967771E+01 -0.18442378842E+02  0.43753092195E+03  0.45545235205E+03  0.12499949713E+03 0.  0.
          5    1    3    3  501    0  0.47856045193E+02 -0.41764617886E+02  0.35033101997E+03  0.35604257880E+03  0.10000000000E+00 0. -1.
         -5    1    3    3    0  501 -0.41647848416E+02  0.23322239043E+02  0.87199901978E+02  0.99409773245E+02  0.10000000000E+00 0. -1.
         21    1    1    2  504  503 -0.62081967771E+01  0.18442378842E+02 -0.27002843532E+01  0.19645726766E+02  0.00000000000E+00 0.  1.
<mgrwt>
<rscale>  1 0.12650509E+03</rscale>
<asrwt>0</asrwt>
<pdfrwt beam="1">  1       21 0.69994509E-01 0.12650509E+03</pdfrwt>
<pdfrwt beam="2">  1       21 0.30974958E-02 0.12650509E+03</pdfrwt>
<totfact> 0.11145686E+06</totfact>
</mgrwt>
</event>
<event>
 6    1  0.4180481E-002  0.1279888E+03  0.7546771E-02  0.1230471E+00
         21   -1    0    0  504  502  0.00000000000E+00  0.00000000000E+00  0.64698600013E+02  0.64698600013E+02  0.00000000000E+00 0. -1.
         21   -1    0    0  502  503 -0.00000000000E+00 -0.00000000000E+00 -0.14860590714E+03  0.14860590714E+03  0.00000000000E+00 0. -1.
         25    2    1    2    0    0  0.77676069966E+01 -0.26377187475E+02 -0.31860557729E+01  0.12802841345E+03  0.12500012784E+03 0.  0.
          5    1    3    3  501    0  0.35403622258E+02 -0.65515330806E+02 -0.20241636229E+02  0.77171295679E+02  0.10000000000E+00 0. -1.
         -5    1    3    3    0  501 -0.27636015261E+02  0.39138143331E+02  0.17055580456E+02  0.50857117767E+02  0.10000000000E+00 0. -1.
         21    1    1    2  504  503 -0.77676069966E+01  0.26377187475E+02 -0.80721251351E+02  0.85276093702E+02  0.00000000000E+00 0. -1.
<mgrwt>
<rscale>  1 0.12798876E+03</rscale>
<asrwt>0</asrwt>
<pdfrwt beam="1">  1       21 0.99536309E-02 0.12798876E+03</pdfrwt>
<pdfrwt beam="2">  1       21 0.22862447E-01 0.12798876E+03</pdfrwt>
<totfact> 0.14643416E+06</totfact>
</mgrwt>
</event>
<event>
 6    1  0.4180481E-002  0.2348036E+03  0.7546771E-02  0.1123304E+00
         21   -1    0    0  503  502  0.00000000000E+00  0.00000000000E+00  0.17036952054E+03  0.17036952054E+03  0.00000000000E+00 0.  1.
         21   -1    0    0  504  503 -0.00000000000E+00 -0.00000000000E+00 -0.36797078498E+03  0.36797078498E+03  0.00000000000E+00 0.  1.
         25    2    1    2    0    0 -0.16958952675E+03  0.10367489309E+03  0.29373926068E+02  0.23663377899E+03  0.12499450703E+03 0.  0.
          5    1    3    3  501    0  0.16705723546E+01  0.31241143403E+02 -0.28051738025E+02  0.42020350538E+02  0.10000000000E+00 0.  1.
         -5    1    3    3    0  501 -0.17126009910E+03  0.72433749689E+02  0.57425664093E+02  0.19461342845E+03  0.10000000000E+00 0.  1.
         21    1    1    2  504  502  0.16958952675E+03 -0.10367489309E+03 -0.22697519051E+03  0.30170652652E+03  0.00000000000E+00 0.  1.
<mgrwt>
<rscale>  1 0.23480357E+03</rscale>
<asrwt>0</asrwt>
<pdfrwt beam="1">  1       21 0.26210696E-01 0.23480357E+03</pdfrwt>
<pdfrwt beam="2">  1       21 0.56610890E-01 0.23480357E+03</pdfrwt>
<totfact> 0.39769872E+04</totfact>
</mgrwt>
</event>
<event>
 6    1  0.4180481E-002  0.1379736E+03  0.7546771E-02  0.1216082E+00
         21   -1    0    0  504  502  0.00000000000E+00  0.00000000000E+00  0.33953744579E+03  0.33953744579E+03  0.00000000000E+00 0.  1.
         21   -1    0    0  502  503 -0.00000000000E+00 -0.00000000000E+00 -0.47542805482E+02  0.47542805482E+02  0.00000000000E+00 0.  1.
         25    2    1    2    0    0  0.38749381955E+02  0.43722351012E+02  0.29795942685E+03  0.32835430080E+03  0.12499427277E+03 0.  0.
          5    1    3    3  501    0 -0.35919755787E+02 -0.17203465216E+02  0.64765156835E+02  0.76031070038E+02  0.10000000000E+00 0. -1.
         -5    1    3    3    0  501  0.74669137742E+02  0.60925816229E+02  0.23319427002E+03  0.25232323076E+03  0.10000000000E+00 0. -1.
         21    1    1    2  504  503 -0.38749381955E+02 -0.43722351012E+02 -0.59647865454E+01  0.58725950469E+02  0.00000000000E+00 0.  1.
<mgrwt>
<rscale>  1 0.13797365E+03</rscale>
<asrwt>0</asrwt>
<pdfrwt beam="1">  1       21 0.52236529E-01 0.13797365E+03</pdfrwt>
<pdfrwt beam="2">  1       21 0.73142780E-02 0.13797365E+03</pdfrwt>
<totfact> 0.49149057E+05</totfact>
</mgrwt>
</event>
<event>
 6    1  0.4180481E-002  0.1294205E+03  0.7546771E-02  0.1228318E+00
         21   -1    0    0  503  502  0.00000000000E+00  0.00000000000E+00  0.58949957661E+01  0.58949957661E+01  0.00000000000E+00 0. -1.
         21   -1    0    0  504  503 -0.00000000000E+00 -0.00000000000E+00 -0.12376719822E+04  0.12376719822E+04  0.00000000000E+00 0. -1.
         25    2    1    2    0    0 -0.19000498549E+02 -0.27645509009E+02 -0.79123270291E+03  0.80174737806E+03  0.12499749982E+03 0.  0.
          5    1    3    3  501    0 -0.54833991250E+01  0.34808711161E+02 -0.77210905512E+02  0.84871950423E+02  0.10000000000E+00 0.  1.
         -5    1    3    3    0  501 -0.13517099424E+02 -0.62454220169E+02 -0.71402179740E+03  0.71687542764E+03  0.10000000000E+00 0.  1.
         21    1    1    2  504  502  0.19000498549E+02  0.27645509009E+02 -0.44054428357E+03  0.44181959995E+03  0.00000000000E+00 0. -1.
<mgrwt>
<rscale>  1 0.12942051E+03</rscale>
<asrwt>0</asrwt>
<pdfrwt beam="1">  1       21 0.90692135E-03 0.12942051E+03</pdfrwt>
<pdfrwt beam="2">  1       21 0.19041130E+00 0.12942051E+03</pdfrwt>
<totfact> 0.69314892E+05</totfact>
</mgrwt>
</event>
<event>
 6    1  0.4180481E-002  0.1263380E+03  0.7546771E-02  0.1232993E+00
         21   -1    0    0  503  502  0.00000000000E+00  0.00000000000E+00  0.25621444412E+01  0.25621444412E+01  0.00000000000E+00 0.  1.
         21   -1    0    0  504  503 -0.00000000000E+00 -0.00000000000E+00 -0.20733678353E+04  0.20733678353E+04  0.00000000000E+00 0.  1.
         25    2    1    2    0    0  0.11456921095E+02  0.14182087170E+02 -0.17077559678E+04  0.17124227665E+04  0.12501557169E+03 0.  0.
          5    1    3    3  501    0 -0.25701014189E+02  0.16604787465E+02 -0.10846595091E+03  0.11269930613E+03  0.10000000000E+00 0.  1.
         -5    1    3    3    0  501  0.37157935285E+02 -0.24227002949E+01 -0.15992900168E+04  0.15997234604E+04  0.10000000000E+00 0.  1.
         21    1    1    2  504  502 -0.11456921095E+02 -0.14182087170E+02 -0.36304972310E+03  0.36350721324E+03  0.00000000000E+00 0.  1.
<mgrwt>
<rscale>  1 0.12633798E+03</rscale>
<asrwt>0</asrwt>
<pdfrwt beam="1">  1       21 0.39417501E-03 0.12633798E+03</pdfrwt>
<pdfrwt beam="2">  1       21 0.31898052E+00 0.12633798E+03</pdfrwt>
<totfact> 0.45184186E+05</totfact>
</mgrwt>
</event>
<event>
 6    1  0.4180481E-002  0.1305412E+03  0.7546771E-02  0.1226655E+00
         21   -1    0    0  503  502  0.00000000000E+00  0.00000000000E+00  0.73191095516E+02  0.73191095516E+02  0.00000000000E+00 0. -1.
         21   -1    0    0  504  503 -0.00000000000E+00 -0.00000000000E+00 -0.23745483807E+03  0.23745483807E+03  0.00000000000E+00 0. -1.
         25    2    1    2    0    0 -0.24375988946E+02 -0.28646837725E+02  0.11364515874E+02  0.13103492249E+03  0.12500467408E+03 0.  0.
          5    1    3    3  501    0  0.35343109146E+02  0.18543821890E+02 -0.24565460870E+02  0.46866625248E+02  0.10000000000E+00 0.  1.
         -5    1    3    3    0  501 -0.59719098092E+02 -0.47190659615E+02  0.35929976744E+02  0.84168297242E+02  0.10000000000E+00 0.  1.
         21    1    1    2  504  502  0.24375988946E+02  0.28646837725E+02 -0.17562825843E+03  0.17961101110E+03  0.00000000000E+00 0. -1.
<mgrwt>
<rscale>  1 0.13054118E+03</rscale>
<asrwt>0</asrwt>
<pdfrwt beam="1">  1       21 0.11260168E-01 0.13054118E+03</pdfrwt>
<pdfrwt beam="2">  1       21 0.36531514E-01 0.13054118E+03</pdfrwt>
<totfact> 0.47916252E+05</totfact>
</mgrwt>
</event>
<event>
 6    1  0.4180481E-002  0.1278799E+03  0.7546771E-02  0.1230636E+00
         21   -1    0    0  504  502  0.00000000000E+00  0.00000000000E+00  0.40943244592E+03  0.40943244592E+03  0.00000000000E+00 0.  1.
         21   -1    0    0  502  503 -0.00000000000E+00 -0.00000000000E+00 -0.16362549492E+02  0.16362549492E+02  0.00000000000E+00 0.  1.
         25    2    1    2    0    0 -0.13003886751E+02 -0.23590928129E+02  0.36560640578E+03  0.38732583531E+03  0.12501050271E+03 0.  0.
          5    1    3    3  501    0  0.24504805487E+02 -0.66918407408E+01  0.33521903618E+03  0.33618012797E+03  0.10000000000E+00 0.  1.
         -5    1    3    3    0  501 -0.37508692238E+02 -0.16899087388E+02  0.30387369603E+02  0.51145707340E+02  0.10000000000E+00 0.  1.
         21    1    1    2  504  503  0.13003886751E+02  0.23590928129E+02  0.27463490649E+02  0.38469160105E+02  0.00000000000E+00 0. -1.
<mgrwt>
<rscale>  1 0.12787986E+03</rscale>
<asrwt>0</asrwt>
<pdfrwt beam="1">  1       21 0.62989599E-01 0.12787986E+03</pdfrwt>
<pdfrwt beam="2">  1       21 0.25173156E-02 0.12787986E+03</pdfrwt>
<totfact> 0.19646689E+06</totfact>
</mgrwt>
</event>
<event>
 6    1  0.4180481E-002  0.2029756E+03  0.7546771E-02  0.1147252E+00
         21   -1    0    0  503  502  0.00000000000E+00  0.00000000000E+00  0.10387722889E+04  0.10387722889E+04  0.00000000000E+00 0. -1.
         21   -1    0    0  504  503 -0.00000000000E+00 -0.00000000000E+00 -0.56215184061E+02  0.56215184061E+02  0.00000000000E+00 0. -1.
         25    2    1    2    0    0  0.13696483736E+03  0.82550385671E+02  0.88429875463E+03  0.90729454228E+03  0.12500066468E+03 0.  0.
          5    1    3    3  501    0  0.53039008749E+02  0.91975022273E+01  0.59235585113E+03  0.59479676770E+03  0.10000000000E+00 0.  1.
         -5    1    3    3    0  501  0.83925828608E+02  0.73352883443E+02  0.29194290350E+03  0.31249777458E+03  0.10000000000E+00 0.  1.
         21    1    1    2  504  502 -0.13696483736E+03 -0.82550385671E+02  0.98258350245E+02  0.18769293071E+03  0.00000000000E+00 0. -1.
<mgrwt>
<rscale>  1 0.20297561E+03</rscale>
<asrwt>0</asrwt>
<pdfrwt beam="1">  1       21 0.15981111E+00 0.20297561E+03</pdfrwt>
<pdfrwt beam="2">  1       21 0.86484907E-02 0.20297561E+03</pdfrwt>
<totfact> 0.26268678E+04</totfact>
</mgrwt>
</event>
<event>
 6    1  0.4180481E-002  0.1261816E+03  0.7546771E-02  0.1233234E+00
         21   -1    0    0  503  502  0.00000000000E+00  0.00000000000E+00  0.58119348076E+02  0.58119348076E+02  0.00000000000E+00 0.  1.
         21   -1    0    0  504  503 -0.00000000000E+00 -0.00000000000E+00 -0.90680253924E+02  0.90680253924E+02  0.00000000000E+00 0.  1.
         25    2    1    2    0    0 -0.12100564412E+01  0.17238761209E+02 -0.20770988000E+02  0.12787972419E+03  0.12499260295E+03 0.  0.
          5    1    3    3  501    0 -0.16697404508E+02  0.42629699075E+02 -0.61981839633E+02  0.77057465601E+02  0.10000000000E+00 0.  1.
         -5    1    3    3    0  501  0.15487348067E+02 -0.25390937866E+02  0.41210851634E+02  0.50822258591E+02  0.10000000000E+00 0.  1.
         21    1    1    2  504  502  0.12100564412E+01 -0.17238761209E+02 -0.11789917849E+02  0.20919877808E+02  0.00000000000E+00 0.  1.
<mgrwt>
<rscale>  1 0.12618158E+03</rscale>
<asrwt>0</asrwt>
<pdfrwt beam="1">  1       21 0.89414382E-02 0.12618158E+03</pdfrwt>
<pdfrwt beam="2">  1       21 0.13950808E-01 0.12618158E+03</pdfrwt>
<totfact> 0.43562344E+06</totfact>
</mgrwt>
</event>
<event>
 6    1  0.4180481E-002  0.1260542E+03  0.7546771E-02  0.1233431E+00
         21   -1    0    0  503  502  0.00000000000E+00  0.00000000000E+00  0.72737432699E+03  0.72737432699E+03  0.00000000000E+00 0.  1.
         21   -1    0    0  504  503 -0.00000000000E+00 -0.00000000000E+00 -0.29089913859E+03  0.29089913859E+03  0.00000000000E+00 0.  1.
         25    2    1    2    0    0 -0.36316571534E+01  0.15867441671E+02  0.72167920522E+03  0.73260530871E+03  0.12499879384E+03 0.  0.
          5    1    3    3  501    0  0.37728622726E+02 -0.38861968040E+02  0.40319088393E+03  0.40681273385E+03  0.10000000000E+00 0. -1.
         -5    1    3    3    0  501 -0.41360279880E+02  0.54729409711E+02  0.31848832129E+03  0.32579257486E+03  0.10000000000E+00 0. -1.
         21    1    1    2  504  502  0.36316571534E+01 -0.15867441671E+02 -0.28520401682E+03  0.28566815687E+03  0.00000000000E+00 0.  1.
<mgrwt>
<rscale>  1 0.12605421E+03</rscale>
<asrwt>0</asrwt>
<pdfrwt beam="1">  1       21 0.11190374E+00 0.12605421E+03</pdfrwt>
<pdfrwt beam="2">  1       21 0.44753714E-01 0.12605421E+03</pdfrwt>
<totfact> 0.32085416E+03</totfact>
</mgrwt>
</event>
<event>
 6    1  0.4180481E-002  0.1466239E+03  0.7546771E-02  0.1204684E+00
         21   -1    0    0  503  502  0.00000000000E+00  0.00000000000E+00  0.86224785725E+03  0.86224785725E+03  0.00000000000E+00 0.  1.
         21   -1    0    0  504  503 -0.00000000000E+00 -0.00000000000E+00 -0.25566480700E+02  0.25566480700E+02  0.00000000000E+00 0.  1.
         25    2    1    2    0    0  0.40817887469E+02  0.64867945368E+02  0.77689908763E+03  0.79061417158E+03  0.12499850268E+03 0.  0.
          5    1    3    3  501    0  0.16437816844E+02 -0.30192310069E+02  0.83421493764E+02  0.90227119159E+02  0.10000000000E+00 0.  1.
         -5    1    3    3    0  501  0.24380070625E+02  0.95060255437E+02  0.69347759386E+03  0.70038705242E+03  0.10000000000E+00 0.  1.
         21    1    1    2  504  502 -0.40817887469E+02 -0.64867945368E+02  0.59782288923E+02  0.97200166371E+02  0.00000000000E+00 0.  1.
<mgrwt>
<rscale>  1 0.14662393E+03</rscale>
<asrwt>0</asrwt>
<pdfrwt beam="1">  1       21 0.13265349E+00 0.14662393E+03</pdfrwt>
<pdfrwt beam="2">  1       21 0.39333054E-02 0.14662393E+03</pdfrwt>
<totfact> 0.16855294E+05</totfact>
</mgrwt>
</event>
<event>
 6    1  0.4180481E-002  0.1278057E+03  0.7546771E-02  0.1230748E+00
         21   -1    0    0  503  502  0.00000000000E+00  0.00000000000E+00  0.75114683175E+03  0.75114683175E+03  0.00000000000E+00 0. -1.
         21   -1    0    0  504  503 -0.00000000000E+00 -0.00000000000E+00 -0.80059308832E+01  0.80059308832E+01  0.00000000000E+00 0. -1.
         25    2    1    2    0    0 -0.25462290965E+02  0.77922422079E+01  0.58639050882E+03  0.60015674788E+03  0.12500098357E+03 0.  0.
          5    1    3    3  501    0  0.12156812396E+02  0.14560020362E+02  0.53872296808E+03  0.53905679535E+03  0.10000000000E+00 0. -1.
         -5    1    3    3    0  501 -0.37619103361E+02 -0.67677781542E+01  0.47667540745E+02  0.61099952533E+02  0.10000000000E+00 0. -1.
         21    1    1    2  504  502  0.25462290965E+02 -0.77922422079E+01  0.15675039204E+03  0.15899601475E+03  0.00000000000E+00 0. -1.
<mgrwt>
<rscale>  1 0.12780569E+03</rscale>
<asrwt>0</asrwt>
<pdfrwt beam="1">  1       21 0.11556100E+00 0.12780569E+03</pdfrwt>
<pdfrwt beam="2">  1       21 0.12316823E-02 0.12780569E+03</pdfrwt>
<totfact> 0.15640147E+06</totfact>
</mgrwt>
</event>
<event>
 6    1  0.4180481E-002  0.1271620E+03  0.7546771E-02  0.1231729E+00
         21   -1    0    0  503  502  0.00000000000E+00  0.00000000000E+00  0.41458824895E+01  0.41458824895E+01  0.00000000000E+00 0. -1.
         21   -1    0    0  504  503 -0.00000000000E+00 -0.00000000000E+00 -0.14176219243E+04  0.14176219243E+04  0.00000000000E+00 0. -1.
         25    2    1    2    0    0  0.20162821895E+02  0.11936919177E+02 -0.10779301474E+04  0.10854047935E+04  0.12498453400E+03 0.  0.
          5    1    3    3  501    0 -0.41032172273E+02 -0.31133591903E+02 -0.50132593189E+03  0.50396491911E+03  0.10000000000E+00 0. -1.
         -5    1    3    3    0  501  0.61194994168E+02  0.43070511080E+02 -0.57660421550E+03  0.58143987442E+03  0.10000000000E+00 0. -1.
         21    1    1    2  504  502 -0.20162821895E+02 -0.11936919177E+02 -0.33554589443E+03  0.33636301327E+03  0.00000000000E+00 0. -1.
<mgrwt>
<rscale>  1 0.12716196E+03</rscale>
<asrwt>0</asrwt>
<pdfrwt beam="1">  1       21 0.63782763E-03 0.12716196E+03</pdfrwt>
<pdfrwt beam="2">  1       21 0.21809583E+00 0.12716196E+03</pdfrwt>
<totfact> 0.80868001E+05</totfact>
</mgrwt>
</event>
<event>
 6    1  0.4180481E-002  0.1468648E+03  0.7546771E-02  0.1204379E+00
         21   -1    0    0  503  502  0.00000000000E+00  0.00000000000E+00  0.23693654037E+02  0.23693654037E+02  0.00000000000E+00 0. -1.
         21   -1    0    0  504  503 -0.00000000000E+00 -0.00000000000E+00 -0.16138673417E+04  0.16138673417E+04  0.00000000000E+00 0. -1.
         25    2    1    2    0    0 -0.76162246113E+02  0.11945569995E+02 -0.21584379394E+03  0.26107051588E+03  0.12500354595E+03 0.  0.
          5    1    3    3  501    0 -0.57768763539E+02  0.57740260940E+02 -0.18663267715E+03  0.20372268885E+03  0.10000000000E+00 0. -1.
         -5    1    3    3    0  501 -0.18393482573E+02 -0.45794690945E+02 -0.29211116799E+02  0.57347827026E+02  0.10000000000E+00 0. -1.
         21    1    1    2  504  502  0.76162246113E+02 -0.11945569995E+02 -0.13743298937E+04  0.13764904799E+04  0.00000000000E+00 0. -1.
<mgrwt>
<rscale>  1 0.14686480E+03</rscale>
<asrwt>0</asrwt>
<pdfrwt beam="1">  1       21 0.36451779E-02 0.14686480E+03</pdfrwt>
<pdfrwt beam="2">  1       21 0.24828726E+00 0.14686480E+03</pdfrwt>
<totfact> 0.32441723E+04</totfact>
</mgrwt>
</event>
<event>
 6    1  0.4180481E-002  0.1456498E+03  0.7546771E-02  0.1205923E+00
         21   -1    0    0  504  502  0.00000000000E+00  0.00000000000E+00  0.22289531437E+03  0.22289531437E+03  0.00000000000E+00 0. -1.
         21   -1    0    0  502  503 -0.00000000000E+00 -0.00000000000E+00 -0.11158429619E+03  0.11158429619E+03  0.00000000000E+00 0. -1.
         25    2    1    2    0    0  0.45465752199E+02 -0.59363169381E+02  0.18095949124E+03  0.23229335757E+03  0.12499098369E+03 0.  0.
          5    1    3    3  501    0  0.25148220662E+02  0.37134238276E+02  0.76222248228E+02  0.88437694338E+02  0.10000000000E+00 0.  1.
         -5    1    3    3    0  501  0.20317531537E+02 -0.96497407657E+02  0.10473724301E+03  0.14385566324E+03  0.10000000000E+00 0.  1.
         21    1    1    2  504  503 -0.45465752199E+02  0.59363169381E+02 -0.69648473056E+02  0.10218625299E+03  0.00000000000E+00 0. -1.
<mgrwt>
<rscale>  1 0.14564981E+03</rscale>
<asrwt>0</asrwt>
<pdfrwt beam="1">  1       21 0.34291587E-01 0.14564981E+03</pdfrwt>
<pdfrwt beam="2">  1       21 0.17166815E-01 0.14564981E+03</pdfrwt>
<totfact> 0.25398793E+05</totfact>
</mgrwt>
</event>
<event>
 6    1  0.4180481E-002  0.1334684E+03  0.7546771E-02  0.1222398E+00
         21   -1    0    0  503  502  0.00000000000E+00  0.00000000000E+00  0.10664071154E+03  0.10664071154E+03  0.00000000000E+00 0.  1.
         21   -1    0    0  504  503 -0.00000000000E+00 -0.00000000000E+00 -0.78803472454E+02  0.78803472454E+02  0.00000000000E+00 0.  1.
         25    2    1    2    0    0 -0.45269036020E+02  0.11359438191E+02  0.35590299027E+02  0.13813210946E+03  0.12504194425E+03 0.  0.
          5    1    3    3  501    0  0.40998941281E+02 -0.14273691855E+02  0.96470919998E+01  0.44471652200E+02  0.10000000000E+00 0.  1.
         -5    1    3    3    0  501 -0.86267977301E+02  0.25633130046E+02  0.25943207027E+02  0.93660457261E+02  0.10000000000E+00 0.  1.
         21    1    1    2  504  502  0.45269036020E+02 -0.11359438191E+02 -0.77530599402E+01  0.47312074533E+02  0.00000000000E+00 0.  1.
<mgrwt>
<rscale>  1 0.13346839E+03</rscale>
<asrwt>0</asrwt>
<pdfrwt beam="1">  1       21 0.16406263E-01 0.13346839E+03</pdfrwt>
<pdfrwt beam="2">  1       21 0.12123611E-01 0.13346839E+03</pdfrwt>
<totfact> 0.19097878E+06</totfact>
</mgrwt>
</event>
<event>
 6    1  0.4180481E-002  0.1265252E+03  0.7546771E-02  0.1232705E+00
         21   -1    0    0  503  502  0.00000000000E+00  0.00000000000E+00  0.14698974919E+03  0.14698974919E+03  0.00000000000E+00 0.  1.
         21   -1    0    0  504  503 -0.00000000000E+00 -0.00000000000E+00 -0.10905147352E+03  0.10905147352E+03  0.00000000000E+00 0.  1.
         25    2    1    2    0    0  0.10851480503E+01 -0.19544469369E+02  0.11836928392E+03  0.17326253634E+03  0.12500182116E+03 0.  0.
          5    1    3    3  501    0  0.42683518475E+02 -0.31681235127E+02  0.68197324042E+01  0.53591997151E+02  0.10000000000E+00 0. -1.
         -5    1    3    3    0  501 -0.41598370424E+02  0.12136765757E+02  0.11154955152E+03  0.11967053919E+03  0.10000000000E+00 0. -1.
         21    1    1    2  504  502 -0.10851480503E+01  0.19544469369E+02 -0.80431008249E+02  0.82778686370E+02  0.00000000000E+00 0.  1.
<mgrwt>
<rscale>  1 0.12652517E+03</rscale>
<asrwt>0</asrwt>
<pdfrwt beam="1">  1       21 0.22613808E-01 0.12652517E+03</pdfrwt>
<pdfrwt beam="2">  1       21 0.16777150E-01 0.12652517E+03</pdfrwt>
<totfact> 0.58950127E+05</totfact>
</mgrwt>
</event>
<event>
 6    1  0.4180481E-002  0.1423014E+03  0.7546771E-02  0.1210265E+00
         21   -1    0    0  503  502  0.00000000000E+00  0.00000000000E+00  0.62649869130E+02  0.62649869130E+02  0.00000000000E+00 0. -1.
         21   -1    0    0  504  503 -0.00000000000E+00 -0.00000000000E+00 -0.25300681134E+03  0.25300681134E+03  0.00000000000E+00 0. -1.
         25    2    1    2    0    0 -0.66751803156E+02 -0.13070364692E+02 -0.35712489226E+02  0.14671425094E+03  0.12499220729E+03 0.  0.
          5    1    3    3  501    0 -0.31658554228E+02  0.55964952278E+02 -0.97426271284E+01  0.65032828038E+02  0.10000000000E+00 0.  1.
         -5    1    3    3    0  501 -0.35093248928E+02 -0.69035316970E+02 -0.25969862098E+02  0.81681422899E+02  0.10000000000E+00 0.  1.
         21    1    1    2  504  502  0.66751803156E+02  0.13070364692E+02 -0.15464445298E+03  0.16894242953E+03  0.00000000000E+00 0. -1.
<mgrwt>
<rscale>  1 0.14230140E+03</rscale>
<asrwt>0</asrwt>
<pdfrwt beam="1">  1       21 0.96384416E-02 0.14230140E+03</pdfrwt>
<pdfrwt beam="2">  1       21 0.38924124E-01 0.14230140E+03</pdfrwt>
<totfact> 0.55460576E+05</totfact>
</mgrwt>
</event>
<event>
 6    1  0.4180481E-002  0.1443714E+03  0.7546771E-02  0.1207565E+00
         21   -1    0    0  504  502  0.00000000000E+00  0.00000000000E+00  0.10655258829E+02  0.10655258829E+02  0.00000000000E+00 0.  1.
         21   -1    0    0  502  503 -0.00000000000E+00 -0.00000000000E+00 -0.12634039151E+04  0.12634039151E+04  0.00000000000E+00 0.  1.
         25    2    1    2    0    0 -0.42908919232E+02  0.58164118170E+02 -0.59114757305E+03  0.60852162178E+03  0.12497548186E+03 0.  0.
          5    1    3    3  501    0  0.41403778795E+02  0.15057074531E+02 -0.27467448176E+03  0.27818531471E+03  0.10000000000E+00 0.  1.
         -5    1    3    3    0  501 -0.84312698027E+02  0.43107043639E+02 -0.31647309129E+03  0.33033630707E+03  0.10000000000E+00 0.  1.
         21    1    1    2  504  503  0.42908919232E+02 -0.58164118170E+02 -0.66160108325E+03  0.66553755217E+03  0.00000000000E+00 0.  1.
<mgrwt>
<rscale>  1 0.14437143E+03</rscale>
<asrwt>0</asrwt>
<pdfrwt beam="1">  1       21 0.16392710E-02 0.14437143E+03</pdfrwt>
<pdfrwt beam="2">  1       21 0.19436979E+00 0.14437143E+03</pdfrwt>
<totfact> 0.25380168E+05</totfact>
</mgrwt>
</event>
<event>
 6    1  0.4180481E-002  0.1269280E+03  0.7546771E-02  0.1232087E+00
         21   -1    0    0  504  502  0.00000000000E+00  0.00000000000E+00  0.13453178426E+02  0.13453178426E+02  0.00000000000E+00 0.  1.
         21   -1    0    0  502  503 -0.00000000000E+00 -0.00000000000E+00 -0.88179200788E+03  0.88179200788E+03  0.00000000000E+00 0.  1.
         25    2    1    2    0    0  0.13777981670E+02 -0.17230565830E+02 -0.29090483358E+03  0.31738988888E+03  0.12499597666E+03 0.  0.
          5    1    3    3  501    0 -0.28402499954E+02 -0.46378640231E+02 -0.60506500280E+02  0.81355558196E+02  0.10000000000E+00 0. -1.
         -5    1    3    3    0  501  0.42180481624E+02  0.29148074402E+02 -0.23039833330E+03  0.23603433068E+03  0.10000000000E+00 0. -1.
         21    1    1    2  504  503 -0.13777981670E+02  0.17230565830E+02 -0.57743399587E+03  0.57785529743E+03  0.00000000000E+00 0.  1.
<mgrwt>
<rscale>  1 0.12692801E+03</rscale>
<asrwt>0</asrwt>
<pdfrwt beam="1">  1       21 0.20697193E-02 0.12692801E+03</pdfrwt>
<pdfrwt beam="2">  1       21 0.13566034E+00 0.12692801E+03</pdfrwt>
<totfact> 0.45923794E+05</totfact>
</mgrwt>
</event>
<event>
 6    1  0.4180481E-002  0.1271591E+03  0.7546771E-02  0.1231733E+00
         21   -1    0    0  504  502  0.00000000000E+00  0.00000000000E+00  0.20315191488E+04  0.20315191488E+04  0.00000000000E+00 0.  1.
         21   -1    0    0  502  503 -0.00000000000E+00 -0.00000000000E+00 -0.52317642046E+02  0.52317642046E+02  0.00000000000E+00 0.  1.
         25    2    1    2    0    0  0.30438187170E+01  0.23102617937E+02  0.20268292475E+04  0.20308141780E+04  0.12500572506E+03 0.  0.
          5    1    3    3  501    0  0.35537805975E+02  0.62937640754E+02  0.14077332212E+04  0.14095874980E+04  0.10000000000E+00 0.  1.
         -5    1    3    3    0  501 -0.32493987258E+02 -0.39835022817E+02  0.61909602627E+03  0.62122668004E+03  0.10000000000E+00 0.  1.
         21    1    1    2  504  503 -0.30438187170E+01 -0.23102617937E+02 -0.47627740724E+02  0.53022612859E+02  0.00000000000E+00 0.  1.
<mgrwt>
<rscale>  1 0.12715906E+03</rscale>
<asrwt>0</asrwt>
<pdfrwt beam="1">  1       21 0.31254135E+00 0.12715906E+03</pdfrwt>
<pdfrwt beam="2">  1       21 0.80488696E-02 0.12715906E+03</pdfrwt>
<totfact> 0.37754278E+03</totfact>
</mgrwt>
</event>
<event>
 6    1  0.4180481E-002  0.1774310E+03  0.7546771E-02  0.1170313E+00
         21   -1    0    0  503  502  0.00000000000E+00  0.00000000000E+00  0.61619287832E+03  0.61619287832E+03  0.00000000000E+00 0.  1.
         21   -1    0    0  504  503 -0.00000000000E+00 -0.00000000000E+00 -0.55690161700E+02  0.55690161700E+02  0.00000000000E+00 0.  1.
         25    2    1    2    0    0  0.15665726320E+02 -0.12494621756E+03  0.50313987135E+03  0.53350866277E+03  0.12499916334E+03 0.  0.
          5    1    3    3  501    0 -0.23397040578E+02 -0.33180392410E+02  0.31357589805E+02  0.51299789343E+02  0.10000000000E+00 0. -1.
         -5    1    3    3    0  501  0.39062766898E+02 -0.91765825152E+02  0.47178228155E+03  0.48220887342E+03  0.10000000000E+00 0. -1.
         21    1    1    2  504  502 -0.15665726320E+02  0.12494621756E+03  0.57362845269E+02  0.13837437726E+03  0.00000000000E+00 0.  1.
<mgrwt>
<rscale>  1 0.17743101E+03</rscale>
<asrwt>0</asrwt>
<pdfrwt beam="1">  1       21 0.94798900E-01 0.17743101E+03</pdfrwt>
<pdfrwt beam="2">  1       21 0.85677176E-02 0.17743101E+03</pdfrwt>
<totfact> 0.99741838E+04</totfact>
</mgrwt>
</event>
<event>
 6    1  0.4180481E-002  0.1277464E+03  0.7546771E-02  0.1230838E+00
         21   -1    0    0  503  502  0.00000000000E+00  0.00000000000E+00  0.36783599282E+02  0.36783599282E+02  0.00000000000E+00 0. -1.
         21   -1    0    0  504  503 -0.00000000000E+00 -0.00000000000E+00 -0.16362676598E+03  0.16362676598E+03  0.00000000000E+00 0. -1.
         25    2    1    2    0    0 -0.15006943806E+02 -0.21567430112E+02 -0.11376695509E+03  0.17106160525E+03  0.12501516035E+03 0.  0.
          5    1    3    3  501    0  0.24683500502E+02 -0.98483178475E+01 -0.12531024869E+03  0.12809735746E+03  0.10000000000E+00 0.  1.
         -5    1    3    3    0  501 -0.39690444308E+02 -0.11719112264E+02  0.11543293596E+02  0.42964247796E+02  0.10000000000E+00 0.  1.
         21    1    1    2  504  502  0.15006943806E+02  0.21567430112E+02 -0.13076211606E+02  0.29348760008E+02  0.00000000000E+00 0. -1.
<mgrwt>
<rscale>  1 0.12774644E+03</rscale>
<asrwt>0</asrwt>
<pdfrwt beam="1">  1       21 0.56590154E-02 0.12774644E+03</pdfrwt>
<pdfrwt beam="2">  1       21 0.25173348E-01 0.12774644E+03</pdfrwt>
<totfact> 0.32227625E+06</totfact>
</mgrwt>
</event>
<event>
 6    1  0.4180481E-002  0.1364162E+03  0.7546771E-02  0.1218234E+00
         21   -1    0    0  503  502  0.00000000000E+00  0.00000000000E+00  0.32467377056E+02  0.32467377056E+02  0.00000000000E+00 0. -1.
         21   -1    0    0  504  503 -0.00000000000E+00 -0.00000000000E+00 -0.28145856796E+03  0.28145856796E+03  0.00000000000E+00 0. -1.
         25    2    1    2    0    0  0.41457473189E+02 -0.35575055858E+02 -0.17222518712E+03  0.21970638219E+03  0.12500029045E+03 0.  0.
          5    1    3    3  501    0 -0.44891626968E+02 -0.17413316837E+02 -0.58722489542E+02  0.75939598057E+02  0.10000000000E+00 0.  1.
         -5    1    3    3    0  501  0.86349100157E+02 -0.18161739021E+02 -0.11350269758E+03  0.14376678413E+03  0.10000000000E+00 0.  1.
         21    1    1    2  504  502 -0.41457473189E+02  0.35575055858E+02 -0.76766003787E+02  0.94219562831E+02  0.00000000000E+00 0. -1.
<mgrwt>
<rscale>  1 0.13641620E+03</rscale>
<asrwt>0</asrwt>
<pdfrwt beam="1">  1       21 0.49949812E-02 0.13641620E+03</pdfrwt>
<pdfrwt beam="2">  1       21 0.43301317E-01 0.13641620E+03</pdfrwt>
<totfact> 0.13808507E+06</totfact>
</mgrwt>
</event>
<event>
 6    1  0.4180481E-002  0.1278563E+03  0.7546771E-02  0.1230672E+00
         21   -1    0    0  503  502  0.00000000000E+00  0.00000000000E+00  0.62919419610E+03  0.62919419610E+03  0.00000000000E+00 0.  1.
         21   -1    0    0  504  503 -0.00000000000E+00 -0.00000000000E+00 -0.23163464112E+02  0.23163464112E+02  0.00000000000E+00 0. -1.
         25    2    1    2    0    0  0.25825062292E+02  0.74114121063E+01  0.61168247731E+03  0.62490214898E+03  0.12500151953E+03 0.  0.
          5    1    3    3  501    0 -0.12799424227E+01 -0.55045087407E+02  0.19223074966E+03  0.19996067367E+03  0.10000000000E+00 0.  1.
         -5    1    3    3    0  501  0.27105004715E+02  0.62456499513E+02  0.41945172765E+03  0.42494147531E+03  0.10000000000E+00 0.  1.
         21    1    1    2  504  502 -0.25825062292E+02 -0.74114121063E+01 -0.56517453191E+01  0.27455511231E+02  0.00000000000E+00 0. -1.
<mgrwt>
<rscale>  1 0.12785634E+03</rscale>
<asrwt>0</asrwt>
<pdfrwt beam="1">  1       21 0.96799094E-01 0.12785634E+03</pdfrwt>
<pdfrwt beam="2">  1       21 0.35636103E-02 0.12785634E+03</pdfrwt>
<totfact> 0.42700470E+05</totfact>
</mgrwt>
</event>
<event>
 6    1  0.4180481E-002  0.1264100E+03  0.7546771E-02  0.1232882E+00
         21   -1    0    0  504  502  0.00000000000E+00  0.00000000000E+00  0.36415068837E+02  0.36415068837E+02  0.00000000000E+00 0.  1.
         21   -1    0    0  502  503 -0.00000000000E+00 -0.00000000000E+00 -0.15301720798E+03  0.15301720798E+03  0.00000000000E+00 0.  1.
         25    2    1    2    0    0  0.14651314255E+01 -0.18758648045E+02 -0.83950107268E+02  0.15174688612E+03  0.12500185378E+03 0.  0.
          5    1    3    3  501    0 -0.36829539576E+02  0.78942678504E-01 -0.99677469639E+02  0.10626395989E+03  0.10000000000E+00 0. -1.
         -5    1    3    3    0  501  0.38294671001E+02 -0.18837590723E+02  0.15727362371E+02  0.45482926230E+02  0.10000000000E+00 0. -1.
         21    1    1    2  504  503 -0.14651314255E+01  0.18758648045E+02 -0.32652031871E+02  0.37685390695E+02  0.00000000000E+00 0.  1.
<mgrwt>
<rscale>  1 0.12641003E+03</rscale>
<asrwt>0</asrwt>
<pdfrwt beam="1">  1       21 0.56023182E-02 0.12641003E+03</pdfrwt>
<pdfrwt beam="2">  1       21 0.23541109E-01 0.12641003E+03</pdfrwt>
<totfact> 0.37176630E+06</totfact>
</mgrwt>
</event>
<event>
 6    1  0.4180481E-002  0.1313036E+03  0.7546771E-02  0.1225534E+00
         21   -1    0    0  504  502  0.00000000000E+00  0.00000000000E+00  0.53099117764E+01  0.53099117764E+01  0.00000000000E+00 0. -1.
         21   -1    0    0  502  503 -0.00000000000E+00 -0.00000000000E+00 -0.14682594427E+04  0.14682594427E+04  0.00000000000E+00 0.  1.
         25    2    1    2    0    0  0.40050782073E+02  0.36133323159E+01 -0.94767722630E+03  0.95673024099E+03  0.12499402972E+03 0.  0.
          5    1    3    3  501    0  0.26582695825E+02  0.61857049944E+02 -0.61996515723E+03  0.62361024729E+03  0.10000000000E+00 0.  1.
         -5    1    3    3    0  501  0.13468086247E+02 -0.58243717628E+02 -0.32771206907E+03  0.33311999371E+03  0.10000000000E+00 0.  1.
         21    1    1    2  504  503 -0.40050782073E+02 -0.36133323159E+01 -0.51527230462E+03  0.51683911348E+03  0.00000000000E+00 0.  1.
<mgrwt>
<rscale>  1 0.13130357E+03</rscale>
<asrwt>0</asrwt>
<pdfrwt beam="1">  1       21 0.81690885E-03 0.13130357E+03</pdfrwt>
<pdfrwt beam="2">  1       21 0.22588625E+00 0.13130357E+03</pdfrwt>
<totfact> 0.49277058E+05</totfact>
</mgrwt>
</event>
<event>
 6    1  0.4180481E-002  0.1275453E+03  0.7546771E-02  0.1231144E+00
         21   -1    0    0  504  502  0.00000000000E+00  0.00000000000E+00  0.16764683731E+03  0.16764683731E+03  0.00000000000E+00 0.  1.
         21   -1    0    0  502  503 -0.00000000000E+00 -0.00000000000E+00 -0.50815371919E+02  0.50815371919E+02  0.00000000000E+00 0.  1.
         25    2    1    2    0    0 -0.97713530043E+01  0.23411775006E+02  0.13616121964E+03  0.18656816672E+03  0.12499685016E+03 0.  0.
          5    1    3    3  501    0 -0.29661608110E+02 -0.36973631432E+02  0.14962954959E+02  0.49706744392E+02  0.10000000000E+00 0.  1.
         -5    1    3    3    0  501  0.19890255106E+02  0.60385406438E+02  0.12119826468E+03  0.13686142233E+03  0.10000000000E+00 0.  1.
         21    1    1    2  504  503  0.97713530043E+01 -0.23411775006E+02 -0.19329754250E+02  0.31894042513E+02  0.00000000000E+00 0.  1.
<mgrwt>
<rscale>  1 0.12754530E+03</rscale>
<asrwt>0</asrwt>
<pdfrwt beam="1">  1       21 0.25791821E-01 0.12754530E+03</pdfrwt>
<pdfrwt beam="2">  1       21 0.78177496E-02 0.12754530E+03</pdfrwt>
<totfact> 0.17739077E+06</totfact>
</mgrwt>
</event>
<event>
 6    1  0.4180481E-002  0.1275723E+03  0.7546771E-02  0.1231103E+00
         21   -1    0    0  503  502  0.00000000000E+00  0.00000000000E+00  0.58241064155E+03  0.58241064155E+03  0.00000000000E+00 0.  1.
         21   -1    0    0  504  503 -0.00000000000E+00 -0.00000000000E+00 -0.13300710411E+03  0.13300710411E+03  0.00000000000E+00 0. -1.
         25    2    1    2    0    0 -0.25518124910E+02 -0.98862064301E+00  0.57411527750E+03  0.58811821629E+03  0.12499012921E+03 0.  0.
          5    1    3    3  501    0 -0.24152751762E+01 -0.50481123970E+01  0.56141658679E+03  0.56144448605E+03  0.10000000000E+00 0.  1.
         -5    1    3    3    0  501 -0.23102849734E+02  0.40594917540E+01  0.12698690714E+02  0.26673730241E+02  0.10000000000E+00 0.  1.
         21    1    1    2  504  502  0.25518124910E+02  0.98862064301E+00 -0.12471174006E+03  0.12729952937E+03  0.00000000000E+00 0. -1.
<mgrwt>
<rscale>  1 0.12757227E+03</rscale>
<asrwt>0</asrwt>
<pdfrwt beam="1">  1       21 0.89601636E-01 0.12757227E+03</pdfrwt>
<pdfrwt beam="2">  1       21 0.20462632E-01 0.12757227E+03</pdfrwt>
<totfact> 0.24470727E+04</totfact>
</mgrwt>
</event>
<event>
 6    1  0.4180481E-002  0.1286513E+03  0.7546771E-02  0.1229471E+00
         21   -1    0    0  504  502  0.00000000000E+00  0.00000000000E+00  0.58153094891E+03  0.58153094891E+03  0.00000000000E+00 0.  1.
         21   -1    0    0  502  503 -0.00000000000E+00 -0.00000000000E+00 -0.13566948686E+02  0.13566948686E+02  0.00000000000E+00 0.  1.
         25    2    1    2    0    0  0.10944035132E+02  0.28384359441E+02  0.53496124892E+03  0.55021331941E+03  0.12500286092E+03 0.  0.
          5    1    3    3  501    0  0.19827386148E+02  0.25391924867E+02  0.26635492188E+02  0.41801130774E+02  0.10000000000E+00 0. -1.
         -5    1    3    3    0  501 -0.88833510156E+01  0.29924345735E+01  0.50832575673E+03  0.50841218863E+03  0.10000000000E+00 0. -1.
         21    1    1    2  504  503 -0.10944035132E+02 -0.28384359441E+02  0.33002751301E+02  0.44884578190E+02  0.00000000000E+00 0.  1.
<mgrwt>
<rscale>  1 0.12865131E+03</rscale>
<asrwt>0</asrwt>
<pdfrwt beam="1">  1       21 0.89466280E-01 0.12865131E+03</pdfrwt>
<pdfrwt beam="2">  1       21 0.20872233E-02 0.12865131E+03</pdfrwt>
<totfact> 0.12264933E+06</totfact>
</mgrwt>
</event>
<event>
 6    1  0.4180481E-002  0.1297507E+03  0.7546771E-02  0.1227826E+00
         21   -1    0    0  503  502  0.00000000000E+00  0.00000000000E+00  0.22301938077E+03  0.22301938077E+03  0.00000000000E+00 0. -1.
         21   -1    0    0  504  503 -0.00000000000E+00 -0.00000000000E+00 -0.30662145186E+02  0.30662145186E+02  0.00000000000E+00 0. -1.
         25    2    1    2    0    0  0.12762346457E+02 -0.32291215348E+02  0.16204037119E+03  0.20758692386E+03  0.12501859456E+03 0.  0.
          5    1    3    3  501    0  0.24656562377E+02 -0.68213140134E+02  0.46867403547E+02  0.86357061497E+02  0.10000000000E+00 0. -1.
         -5    1    3    3    0  501 -0.11894215920E+02  0.35921924786E+02  0.11517296764E+03  0.12122986236E+03  0.10000000000E+00 0. -1.
         21    1    1    2  504  502 -0.12762346457E+02  0.32291215348E+02  0.30316864393E+02  0.46094602096E+02  0.00000000000E+00 0. -1.
<mgrwt>
<rscale>  1 0.12975072E+03</rscale>
<asrwt>0</asrwt>
<pdfrwt beam="1">  1       21 0.34310673E-01 0.12975072E+03</pdfrwt>
<pdfrwt beam="2">  1       21 0.47172533E-02 0.12975072E+03</pdfrwt>
<totfact> 0.24134210E+06</totfact>
</mgrwt>
</event>
<event>
 6    1  0.4180481E-002  0.1260584E+03  0.7546771E-02  0.1233424E+00
         21   -1    0    0  504  502  0.00000000000E+00  0.00000000000E+00  0.30869309015E+03  0.30869309015E+03  0.00000000000E+00 0.  1.
         21   -1    0    0  502  503 -0.00000000000E+00 -0.00000000000E+00 -0.18357079502E+02  0.18357079502E+02  0.00000000000E+00 0.  1.
         25    2    1    2    0    0  0.17156054269E+01  0.16239538817E+02  0.20885608221E+03  0.24394996110E+03  0.12499621803E+03 0.  0.
          5    1    3    3  501    0  0.18771386979E+02  0.28470744509E+02  0.21829080366E+03  0.22093852816E+03  0.10000000000E+00 0.  1.
         -5    1    3    3    0  501 -0.17055781552E+02 -0.12231205692E+02 -0.94347214536E+01  0.23011432940E+02  0.10000000000E+00 0.  1.
         21    1    1    2  504  503 -0.17156054269E+01 -0.16239538817E+02  0.81479928440E+02  0.83100208553E+02  0.00000000000E+00 0.  1.
<mgrwt>
<rscale>  1 0.12605840E+03</rscale>
<asrwt>0</asrwt>
<pdfrwt beam="1">  1       21 0.47491241E-01 0.12605840E+03</pdfrwt>
<pdfrwt beam="2">  1       21 0.28241663E-02 0.12605840E+03</pdfrwt>
<totfact> 0.29388888E+06</totfact>
</mgrwt>
</event>
<event>
 6    1  0.4180481E-002  0.1267170E+03  0.7546771E-02  0.1232410E+00
         21   -1    0    0  504  502  0.00000000000E+00  0.00000000000E+00  0.11222276641E+02  0.11222276641E+02  0.00000000000E+00 0. -1.
         21   -1    0    0  502  503 -0.00000000000E+00 -0.00000000000E+00 -0.48368802368E+03  0.48368802368E+03  0.00000000000E+00 0. -1.
         25    2    1    2    0    0  0.10529827366E+02 -0.17724355539E+02 -0.40364678197E+03  0.42306964333E+03  0.12502867059E+03 0.  0.
          5    1    3    3  501    0 -0.10370256832E+02 -0.69807865470E+02 -0.22879529630E+03  0.23943261665E+03  0.10000000000E+00 0. -1.
         -5    1    3    3    0  501  0.20900084198E+02  0.52083509931E+02 -0.17485148567E+03  0.18363702668E+03  0.10000000000E+00 0. -1.
         21    1    1    2  504  503 -0.10529827366E+02  0.17724355539E+02 -0.68818965063E+02  0.71840656985E+02  0.00000000000E+00 0. -1.
<mgrwt>
<rscale>  1 0.12671700E+03</rscale>
<asrwt>0</asrwt>
<pdfrwt beam="1">  1       21 0.17265040E-02 0.12671700E+03</pdfrwt>
<pdfrwt beam="2">  1       21 0.74413548E-01 0.12671700E+03</pdfrwt>
<totfact> 0.25155954E+06</totfact>
</mgrwt>
</event>
<event>
 6    1  0.4180481E-002  0.1272587E+03  0.7546771E-02  0.1231581E+00
         21   -1    0    0  503  502  0.00000000000E+00  0.00000000000E+00  0.11513067930E+04  0.11513067930E+04  0.00000000000E+00 0. -1.
         21   -1    0    0  504  503 -0.00000000000E+00 -0.00000000000E+00 -0.50765656642E+01  0.50765656642E+01  0.00000000000E+00 0. -1.
         25    2    1    2    0    0  0.23342478707E+02 -0.50225081461E+01  0.10206966979E+04  0.10285993068E+04  0.12499875170E+03 0.  0.
          5    1    3    3  501    0  0.93200857769E+00  0.55764517359E+02  0.31184168740E+03  0.31678983260E+03  0.10000000000E+00 0.  1.
         -5    1    3    3    0  501  0.22410470130E+02 -0.60787025505E+02  0.70885501052E+03  0.71180947421E+03  0.10000000000E+00 0.  1.
         21    1    1    2  504  502 -0.23342478707E+02  0.50225081461E+01  0.12553352937E+03  0.12778405181E+03  0.00000000000E+00 0. -1.
<mgrwt>
<rscale>  1 0.12725873E+03</rscale>
<asrwt>0</asrwt>
<pdfrwt beam="1">  1       21 0.17712391E+00 0.12725873E+03</pdfrwt>
<pdfrwt beam="2">  1       21 0.78101102E-03 0.12725873E+03</pdfrwt>
<totfact> 0.10724961E+06</totfact>
</mgrwt>
</event>
<event>
 6    1  0.4180481E-002  0.1667130E+03  0.7546771E-02  0.1181320E+00
         21   -1    0    0  503  502  0.00000000000E+00  0.00000000000E+00  0.22340634509E+03  0.22340634509E+03  0.00000000000E+00 0. -1.
         21   -1    0    0  504  503 -0.00000000000E+00 -0.00000000000E+00 -0.62160523567E+03  0.62160523567E+03  0.00000000000E+00 0. -1.
         25    2    1    2    0    0 -0.74149304681E+02  0.81670746133E+02  0.18641158026E+03  0.25008500312E+03  0.12500000549E+03 0.  0.
          5    1    3    3  501    0 -0.55664404675E+00  0.14066097443E+02  0.13858551904E+03  0.13929867565E+03  0.10000000000E+00 0.  1.
         -5    1    3    3    0  501 -0.73592660635E+02  0.67604648691E+02  0.47826061225E+02  0.11078632748E+03  0.10000000000E+00 0.  1.
         21    1    1    2  504  502  0.74149304681E+02 -0.81670746133E+02 -0.58461047085E+03  0.59492657764E+03  0.00000000000E+00 0. -1.
<mgrwt>
<rscale>  1 0.16671302E+03</rscale>
<asrwt>0</asrwt>
<pdfrwt beam="1">  1       21 0.34370207E-01 0.16671302E+03</pdfrwt>
<pdfrwt beam="2">  1       21 0.95631575E-01 0.16671302E+03</pdfrwt>
<totfact> 0.75909368E+03</totfact>
</mgrwt>
</event>
<event>
 6    1  0.4180481E-002  0.1266413E+03  0.7546771E-02  0.1232526E+00
         21   -1    0    0  503  502  0.00000000000E+00  0.00000000000E+00  0.40637513398E+01  0.40637513398E+01  0.00000000000E+00 0.  1.
         21   -1    0    0  504  503 -0.00000000000E+00 -0.00000000000E+00 -0.13837350833E+04  0.13837350833E+04  0.00000000000E+00 0.  1.
         25    2    1    2    0    0 -0.15213350898E+02 -0.13516155333E+02 -0.10718465581E+04  0.10793021184E+04  0.12499554500E+03 0.  0.
          5    1    3    3  501    0  0.35073271303E+02 -0.49172292654E+02 -0.67491515957E+03  0.67761237543E+03  0.10000000000E+00 0. -1.
         -5    1    3    3    0  501 -0.50286622201E+02  0.35656137321E+02 -0.39693139852E+03  0.40168974300E+03  0.10000000000E+00 0. -1.
         21    1    1    2  504  502  0.15213350898E+02  0.13516155333E+02 -0.30782477385E+03  0.30849671619E+03  0.00000000000E+00 0.  1.
<mgrwt>
<rscale>  1 0.12664130E+03</rscale>
<asrwt>0</asrwt>
<pdfrwt beam="1">  1       21 0.62519226E-03 0.12664130E+03</pdfrwt>
<pdfrwt beam="2">  1       21 0.21288241E+00 0.12664130E+03</pdfrwt>
<totfact> 0.89728497E+05</totfact>
</mgrwt>
</event>
<event>
 6    1  0.4180481E-002  0.1398440E+03  0.7546771E-02  0.1213539E+00
         21   -1    0    0  504  502  0.00000000000E+00  0.00000000000E+00  0.31345924820E+02  0.31345924820E+02  0.00000000000E+00 0.  1.
         21   -1    0    0  502  503 -0.00000000000E+00 -0.00000000000E+00 -0.46886366394E+03  0.46886366394E+03  0.00000000000E+00 0.  1.
         25    2    1    2    0    0  0.62269836531E+02  0.71635828537E+01 -0.14654826019E+03  0.20256535964E+03  0.12500993121E+03 0.  0.
          5    1    3    3  501    0  0.10071945781E+02  0.62212781665E+02 -0.78384414409E+02  0.10057833125E+03  0.10000000000E+00 0. -1.
         -5    1    3    3    0  501  0.52197890750E+02 -0.55049198811E+02 -0.68163845785E+02  0.10198702839E+03  0.10000000000E+00 0. -1.
         21    1    1    2  504  503 -0.62269836531E+02 -0.71635828537E+01 -0.29096947892E+03  0.29764422912E+03  0.00000000000E+00 0.  1.
<mgrwt>
<rscale>  1 0.13984396E+03</rscale>
<asrwt>0</asrwt>
<pdfrwt beam="1">  1       21 0.48224503E-02 0.13984396E+03</pdfrwt>
<pdfrwt beam="2">  1       21 0.72132867E-01 0.13984396E+03</pdfrwt>
<totfact> 0.50017524E+05</totfact>
</mgrwt>
</event>
<event>
 6    1  0.4180481E-002  0.1293330E+03  0.7546771E-02  0.1228449E+00
         21   -1    0    0  504  502  0.00000000000E+00  0.00000000000E+00  0.17775317618E+04  0.17775317618E+04  0.00000000000E+00 0. -1.
         21   -1    0    0  502  503 -0.00000000000E+00 -0.00000000000E+00 -0.15767513677E+02  0.15767513677E+02  0.00000000000E+00 0. -1.
         25    2    1    2    0    0 -0.25503450501E+02  0.21252184107E+02  0.17545710585E+04  0.17593313009E+04  0.12499978291E+03 0.  0.
          5    1    3    3  501    0 -0.14552142393E+02  0.35928051480E+02  0.15906309865E+03  0.16371826130E+03  0.10000000000E+00 0. -1.
         -5    1    3    3    0  501 -0.10951308108E+02 -0.14675867373E+02  0.15955079598E+04  0.15956130396E+04  0.10000000000E+00 0. -1.
         21    1    1    2  504  503  0.25503450501E+02 -0.21252184107E+02  0.71931895801E+01  0.33967974522E+02  0.00000000000E+00 0. -1.
<mgrwt>
<rscale>  1 0.12933301E+03</rscale>
<asrwt>0</asrwt>
<pdfrwt beam="1">  1       21 0.27346627E+00 0.12933301E+03</pdfrwt>
<pdfrwt beam="2">  1       21 0.24257727E-02 0.12933301E+03</pdfrwt>
<totfact> 0.46294750E+04</totfact>
</mgrwt>
</event>
<event>
 6    1  0.4180481E-002  0.1328625E+03  0.7546771E-02  0.1223269E+00
         21   -1    0    0  503  502  0.00000000000E+00  0.00000000000E+00  0.49991361064E+03  0.49991361064E+03  0.00000000000E+00 0. -1.
         21   -1    0    0  504  503 -0.00000000000E+00 -0.00000000000E+00 -0.17714356209E+02  0.17714356209E+02  0.00000000000E+00 0. -1.
         25    2    1    2    0    0  0.26328860969E+02  0.36539993453E+02  0.42216200167E+03  0.44257564003E+03  0.12499624577E+03 0.  0.
          5    1    3    3  501    0  0.37111337145E+02  0.78198692091E+02  0.23240889141E+03  0.24800441447E+03  0.10000000000E+00 0. -1.
         -5    1    3    3    0  501 -0.10782476176E+02 -0.41658698638E+02  0.18975311026E+03  0.19457122556E+03  0.10000000000E+00 0. -1.
         21    1    1    2  504  502 -0.26328860969E+02 -0.36539993453E+02  0.60037252763E+02  0.75052326818E+02  0.00000000000E+00 0. -1.
<mgrwt>
<rscale>  1 0.13286249E+03</rscale>
<asrwt>0</asrwt>
<pdfrwt beam="1">  1       21 0.76909775E-01 0.13286249E+03</pdfrwt>
<pdfrwt beam="2">  1       21 0.27252860E-02 0.13286249E+03</pdfrwt>
<totfact> 0.11176557E+06</totfact>
</mgrwt>
</event>
<event>
 6    1  0.4180481E-002  0.1317361E+03  0.7546771E-02  0.1224902E+00
         21   -1    0    0  504  502  0.00000000000E+00  0.00000000000E+00  0.14368828150E+02  0.14368828150E+02  0.00000000000E+00 0. -1.
         21   -1    0    0  502  503 -0.00000000000E+00 -0.00000000000E+00 -0.53572131687E+03  0.53572131687E+03  0.00000000000E+00 0. -1.
         25    2    1    2    0    0  0.35212942276E+00  0.41600212836E+02 -0.35624565303E+03  0.37982279966E+03  0.12499476844E+03 0.  0.
          5    1    3    3  501    0 -0.99623525136E+01  0.37851264092E+02 -0.21039244907E+02  0.44436769541E+02  0.10000000000E+00 0. -1.
         -5    1    3    3    0  501  0.10314481936E+02  0.37489487437E+01 -0.33520640812E+03  0.33538603012E+03  0.10000000000E+00 0. -1.
         21    1    1    2  504  503 -0.35212942276E+00 -0.41600212836E+02 -0.16510683569E+03  0.17026734535E+03  0.00000000000E+00 0. -1.
<mgrwt>
<rscale>  1 0.13173608E+03</rscale>
<asrwt>0</asrwt>
<pdfrwt beam="1">  1       21 0.22105887E-02 0.13173608E+03</pdfrwt>
<pdfrwt beam="2">  1       21 0.82418674E-01 0.13173608E+03</pdfrwt>
<totfact> 0.13461974E+06</totfact>
</mgrwt>
</event>
<event>
 6    1  0.4180481E-002  0.1259538E+03  0.7546771E-02  0.1233586E+00
         21   -1    0    0  504  502  0.00000000000E+00  0.00000000000E+00  0.12833239433E+03  0.12833239433E+03  0.00000000000E+00 0. -1.
         21   -1    0    0  502  503 -0.00000000000E+00 -0.00000000000E+00 -0.69208138595E+03  0.69208138595E+03  0.00000000000E+00 0. -1.
         25    2    1    2    0    0 -0.15249570901E+01  0.15397426164E+02  0.97315210054E+02  0.15916852701E+03  0.12499985463E+03 0.  0.
          5    1    3    3  501    0 -0.26307014398E+02  0.39526930804E+02  0.11195620381E+03  0.12160854755E+03  0.10000000000E+00 0.  1.
         -5    1    3    3    0  501  0.24782057308E+02 -0.24129504640E+02 -0.14640993761E+02  0.37559979458E+02  0.10000000000E+00 0.  1.
         21    1    1    2  504  503  0.15249570901E+01 -0.15397426164E+02 -0.66106420167E+03  0.66124525326E+03  0.00000000000E+00 0. -1.
<mgrwt>
<rscale>  1 0.12595384E+03</rscale>
<asrwt>0</asrwt>
<pdfrwt beam="1">  1       21 0.19743446E-01 0.12595384E+03</pdfrwt>
<pdfrwt beam="2">  1       21 0.10647406E+00 0.12595384E+03</pdfrwt>
<totfact> 0.17517893E+04</totfact>
</mgrwt>
</event>
<event>
 6    1  0.4180481E-002  0.1286242E+03  0.7546771E-02  0.1229512E+00
         21   -1    0    0  503  502  0.00000000000E+00  0.00000000000E+00  0.18896466583E+03  0.18896466583E+03  0.00000000000E+00 0.  1.
         21   -1    0    0  504  503 -0.00000000000E+00 -0.00000000000E+00 -0.66394965861E+03  0.66394965861E+03  0.00000000000E+00 0.  1.
         25    2    1    2    0    0 -0.46055680757E+01 -0.29892517664E+02  0.16667919167E+03  0.21053772191E+03  0.12501762092E+03 0.  0.
          5    1    3    3  501    0 -0.39382732071E+02 -0.66480157661E+02  0.11257271431E+03  0.13654023933E+03  0.10000000000E+00 0. -1.
         -5    1    3    3    0  501  0.34777163996E+02  0.36587639997E+02  0.54106477354E+02  0.73997482577E+02  0.10000000000E+00 0. -1.
         21    1    1    2  504  502  0.46055680757E+01  0.29892517664E+02 -0.64166418445E+03  0.64237660253E+03  0.00000000000E+00 0.  1.
<mgrwt>
<rscale>  1 0.12862418E+03</rscale>
<asrwt>0</asrwt>
<pdfrwt beam="1">  1       21 0.29071487E-01 0.12862418E+03</pdfrwt>
<pdfrwt beam="2">  1       21 0.10214610E+00 0.12862418E+03</pdfrwt>
<totfact> 0.93080974E+03</totfact>
</mgrwt>
</event>
<event>
 6    1  0.4180481E-002  0.1361559E+03  0.7546771E-02  0.1218597E+00
         21   -1    0    0  503  502  0.00000000000E+00  0.00000000000E+00  0.24116197340E+02  0.24116197340E+02  0.00000000000E+00 0.  1.
         21   -1    0    0  504  503 -0.00000000000E+00 -0.00000000000E+00 -0.67705247519E+03  0.67705247519E+03  0.00000000000E+00 0.  1.
         25    2    1    2    0    0 -0.34283026295E+02  0.41706140196E+02 -0.18275883808E+03  0.22790177860E+03  0.12499479897E+03 0.  0.
          5    1    3    3  501    0 -0.63634412709E+02  0.17895791214E+02 -0.17791457355E+03  0.18979779584E+03  0.10000000000E+00 0.  1.
         -5    1    3    3    0  501  0.29351386414E+02  0.23810348982E+02 -0.48442645250E+01  0.38103982755E+02  0.10000000000E+00 0.  1.
         21    1    1    2  504  502  0.34283026295E+02 -0.41706140196E+02 -0.47017743977E+03  0.47326689393E+03  0.00000000000E+00 0.  1.
<mgrwt>
<rscale>  1 0.13615590E+03</rscale>
<asrwt>0</asrwt>
<pdfrwt beam="1">  1       21 0.37101844E-02 0.13615590E+03</pdfrwt>
<pdfrwt beam="2">  1       21 0.10416191E+00 0.13615590E+03</pdfrwt>
<totfact> 0.33575351E+05</totfact>
</mgrwt>
</event>
<event>
 6    1  0.4180481E-002  0.1312830E+03  0.7546771E-02  0.1225564E+00
         21   -1    0    0  503  502  0.00000000000E+00  0.00000000000E+00  0.96138281163E+01  0.96138281163E+01  0.00000000000E+00 0.  1.
         21   -1    0    0  504  503 -0.00000000000E+00 -0.00000000000E+00 -0.16062473856E+04  0.16062473856E+04  0.00000000000E+00 0. -1.
         25    2    1    2    0    0 -0.20926265831E+02  0.34203078263E+02 -0.45597375762E+03  0.47449688179E+03  0.12500985572E+03 0.  0.
          5    1    3    3  501    0  0.48850460647E+02 -0.78093082557E+01 -0.18972572656E+03  0.19606941149E+03  0.10000000000E+00 0.  1.
         -5    1    3    3    0  501 -0.69776726477E+02  0.42012386519E+02 -0.26624803106E+03  0.27842747031E+03  0.10000000000E+00 0.  1.
         21    1    1    2  504  502  0.20926265831E+02 -0.34203078263E+02 -0.11406597999E+04  0.11413643320E+04  0.00000000000E+00 0. -1.
<mgrwt>
<rscale>  1 0.13128299E+03</rscale>
<asrwt>0</asrwt>
<pdfrwt beam="1">  1       21 0.14790502E-02 0.13128299E+03</pdfrwt>
<pdfrwt beam="2">  1       21 0.24711503E+00 0.13128299E+03</pdfrwt>
<totfact> 0.14484234E+05</totfact>
</mgrwt>
</event>
<event>
 6    1  0.4180481E-002  0.1262849E+03  0.7546771E-02  0.1233075E+00
         21   -1    0    0  504  502  0.00000000000E+00  0.00000000000E+00  0.30179532729E+03  0.30179532729E+03  0.00000000000E+00 0.  1.
         21   -1    0    0  502  503 -0.00000000000E+00 -0.00000000000E+00 -0.19014422400E+02  0.19014422400E+02  0.00000000000E+00 0.  1.
         25    2    1    2    0    0  0.15754948727E+02 -0.86611716142E+01  0.20337183802E+03  0.23939086857E+03  0.12499859658E+03 0.  0.
          5    1    3    3  501    0 -0.45656040828E+02 -0.32600475923E+02  0.12482965849E+03  0.13685656262E+03  0.10000000000E+00 0. -1.
         -5    1    3    3    0  501  0.61410989555E+02  0.23939304309E+02  0.78542179535E+02  0.10253430594E+03  0.10000000000E+00 0. -1.
         21    1    1    2  504  503 -0.15754948727E+02  0.86611716142E+01  0.79409066865E+02  0.81418881124E+02  0.00000000000E+00 0.  1.
<mgrwt>
<rscale>  1 0.12628493E+03</rscale>
<asrwt>0</asrwt>
<pdfrwt beam="1">  1       21 0.46430047E-01 0.12628493E+03</pdfrwt>
<pdfrwt beam="2">  1       21 0.29252960E-02 0.12628493E+03</pdfrwt>
<totfact> 0.29057896E+06</totfact>
</mgrwt>
</event>
<event>
 6    1  0.4180481E-002  0.1425795E+03  0.7546771E-02  0.1209900E+00
         21   -1    0    0  504  502  0.00000000000E+00  0.00000000000E+00  0.13850756994E+04  0.13850756994E+04  0.00000000000E+00 0. -1.
         21   -1    0    0  502  503 -0.00000000000E+00 -0.00000000000E+00 -0.92189487222E+01  0.92189487222E+01  0.00000000000E+00 0. -1.
         25    2    1    2    0    0 -0.19135396117E+02 -0.65855276516E+02  0.11331586034E+04  0.11420933961E+04  0.12500329644E+03 0.  0.
          5    1    3    3  501    0  0.10785353049E+02 -0.26374134657E+02  0.99351212788E+03  0.99392065934E+03  0.10000000000E+00 0.  1.
         -5    1    3    3    0  501 -0.29920749166E+02 -0.39481141860E+02  0.13964647554E+03  0.14817273678E+03  0.10000000000E+00 0.  1.
         21    1    1    2  504  503  0.19135396117E+02  0.65855276516E+02  0.24269814721E+03  0.25220125196E+03  0.00000000000E+00 0. -1.
<mgrwt>
<rscale>  1 0.14257947E+03</rscale>
<asrwt>0</asrwt>
<pdfrwt beam="1">  1       21 0.21308840E+00 0.14257947E+03</pdfrwt>
<pdfrwt beam="2">  1       21 0.14183009E-02 0.14257947E+03</pdfrwt>
<totfact> 0.24453342E+05</totfact>
</mgrwt>
</event>
<event>
 6    1  0.4180481E-002  0.1305008E+03  0.7546771E-02  0.1226715E+00
         21   -1    0    0  504  502  0.00000000000E+00  0.00000000000E+00  0.18989909894E+03  0.18989909894E+03  0.00000000000E+00 0.  1.
         21   -1    0    0  502  503 -0.00000000000E+00 -0.00000000000E+00 -0.40308400463E+02  0.40308400463E+02  0.00000000000E+00 0.  1.
         25    2    1    2    0    0 -0.27219533000E+00 -0.37491410253E+02  0.85688262913E+02  0.15611835577E+03  0.12499913070E+03 0.  0.
          5    1    3    3  501    0  0.46011691269E+02  0.24780541245E+02  0.26927541966E+02  0.58789909629E+02  0.10000000000E+00 0. -1.
         -5    1    3    3    0  501 -0.46283886599E+02 -0.62271951498E+02  0.58760720947E+02  0.97328446142E+02  0.10000000000E+00 0. -1.
         21    1    1    2  504  503  0.27219533000E+00  0.37491410253E+02  0.63902435561E+02  0.74089143629E+02  0.00000000000E+00 0.  1.
<mgrwt>
<rscale>  1 0.13050081E+03</rscale>
<asrwt>0</asrwt>
<pdfrwt beam="1">  1       21 0.29215245E-01 0.13050081E+03</pdfrwt>
<pdfrwt beam="2">  1       21 0.62012925E-02 0.13050081E+03</pdfrwt>
<totfact> 0.20791830E+06</totfact>
</mgrwt>
</event>
<event>
 6    1  0.4180481E-002  0.1284502E+03  0.7546771E-02  0.1229774E+00
         21   -1    0    0  504  502  0.00000000000E+00  0.00000000000E+00  0.24750885913E+03  0.24750885913E+03  0.00000000000E+00 0. -1.
         21   -1    0    0  502  503 -0.00000000000E+00 -0.00000000000E+00 -0.38860153910E+02  0.38860153910E+02  0.00000000000E+00 0. -1.
         25    2    1    2    0    0  0.19485801016E+02 -0.22219484181E+02  0.21996472701E+03  0.25472325080E+03  0.12500420573E+03 0.  0.
          5    1    3    3  501    0  0.58823469527E+02 -0.48602149897E+02  0.16737443551E+03  0.18394722396E+03  0.10000000000E+00 0.  1.
         -5    1    3    3    0  501 -0.39337668511E+02  0.26382665715E+02  0.52590291501E+02  0.70776026834E+02  0.10000000000E+00 0.  1.
         21    1    1    2  504  503 -0.19485801016E+02  0.22219484181E+02 -0.11316021793E+02  0.31645762240E+02  0.00000000000E+00 0. -1.
<mgrwt>
<rscale>  1 0.12845020E+03</rscale>
<asrwt>0</asrwt>
<pdfrwt beam="1">  1       21 0.38078285E-01 0.12845020E+03</pdfrwt>
<pdfrwt beam="2">  1       21 0.59784854E-02 0.12845020E+03</pdfrwt>
<totfact> 0.13180165E+06</totfact>
</mgrwt>
</event>
<event>
 6    1  0.4180481E-002  0.1271159E+03  0.7546771E-02  0.1231799E+00
         21   -1    0    0  503  502  0.00000000000E+00  0.00000000000E+00  0.43350521933E+03  0.43350521933E+03  0.00000000000E+00 0. -1.
         21   -1    0    0  504  503 -0.00000000000E+00 -0.00000000000E+00 -0.13770609501E+03  0.13770609501E+03  0.00000000000E+00 0. -1.
         25    2    1    2    0    0  0.21979550176E+02 -0.71160077431E+01  0.42312483798E+03  0.44180661754E+03  0.12499888235E+03 0.  0.
          5    1    3    3  501    0 -0.67915992527E+01  0.56703344339E+02  0.19139883446E+03  0.19973712453E+03  0.10000000000E+00 0. -1.
         -5    1    3    3    0  501  0.28771149428E+02 -0.63819352082E+02  0.23172600352E+03  0.24206949301E+03  0.10000000000E+00 0. -1.
         21    1    1    2  504  502 -0.21979550176E+02  0.71160077431E+01 -0.12732571367E+03  0.12940469680E+03  0.00000000000E+00 0. -1.
<mgrwt>
<rscale>  1 0.12711593E+03</rscale>
<asrwt>0</asrwt>
<pdfrwt beam="1">  1       21 0.66693110E-01 0.12711593E+03</pdfrwt>
<pdfrwt beam="2">  1       21 0.21185553E-01 0.12711593E+03</pdfrwt>
<totfact> 0.44207617E+04</totfact>
</mgrwt>
</event>
<event>
 6    1  0.4180481E-002  0.1259052E+03  0.7546771E-02  0.1233661E+00
         21   -1    0    0  504  502  0.00000000000E+00  0.00000000000E+00  0.50249564631E+02  0.50249564631E+02  0.00000000000E+00 0.  1.
         21   -1    0    0  502  503 -0.00000000000E+00 -0.00000000000E+00 -0.13338485671E+03  0.13338485671E+03  0.00000000000E+00 0.  1.
         25    2    1    2    0    0 -0.13307335288E+02  0.70588108214E+01 -0.31415188337E+02  0.12976531040E+03  0.12500083896E+03 0.  0.
          5    1    3    3  501    0  0.16497686668E+02  0.51802423340E+02  0.17466856908E+02  0.57103115672E+02  0.10000000000E+00 0. -1.
         -5    1    3    3    0  501 -0.29805021956E+02 -0.44743612518E+02 -0.48882045244E+02  0.72662194725E+02  0.10000000000E+00 0. -1.
         21    1    1    2  504  503  0.13307335288E+02 -0.70588108214E+01 -0.51720103745E+02  0.53869110946E+02  0.00000000000E+00 0.  1.
<mgrwt>
<rscale>  1 0.12590521E+03</rscale>
<asrwt>0</asrwt>
<pdfrwt beam="1">  1       21 0.77307023E-02 0.12590521E+03</pdfrwt>
<pdfrwt beam="2">  1       21 0.20520747E-01 0.12590521E+03</pdfrwt>
<totfact> 0.27740787E+06</totfact>
</mgrwt>
</event>
<event>
 6    1  0.4180481E-002  0.1510771E+03  0.7546771E-02  0.1199156E+00
         21   -1    0    0  503  502  0.00000000000E+00  0.00000000000E+00  0.25172603785E+03  0.25172603785E+03  0.00000000000E+00 0. -1.
         21   -1    0    0  504  503 -0.00000000000E+00 -0.00000000000E+00 -0.59773249466E+02  0.59773249466E+02  0.00000000000E+00 0. -1.
         25    2    1    2    0    0 -0.75902069582E+02  0.37928618053E+02  0.16200758676E+03  0.22151918210E+03  0.12499834254E+03 0.  0.
          5    1    3    3  501    0 -0.10732893939E+03  0.24275402516E+02  0.91443844455E+02  0.14307614437E+03  0.10000000000E+00 0.  1.
         -5    1    3    3    0  501  0.31426869811E+02  0.13653215537E+02  0.70563742310E+02  0.78443037737E+02  0.10000000000E+00 0.  1.
         21    1    1    2  504  502  0.75902069582E+02 -0.37928618053E+02  0.29945201622E+02  0.89980105214E+02  0.00000000000E+00 0. -1.
<mgrwt>
<rscale>  1 0.15107710E+03</rscale>
<asrwt>0</asrwt>
<pdfrwt beam="1">  1       21 0.38727082E-01 0.15107710E+03</pdfrwt>
<pdfrwt beam="2">  1       21 0.91958847E-02 0.15107710E+03</pdfrwt>
<totfact> 0.60788787E+05</totfact>
</mgrwt>
</event>
<event>
 6    1  0.4180481E-002  0.1266135E+03  0.7546771E-02  0.1232569E+00
         21   -1    0    0  503  502  0.00000000000E+00  0.00000000000E+00  0.28518269168E+03  0.28518269168E+03  0.00000000000E+00 0.  1.
         21   -1    0    0  504  503 -0.00000000000E+00 -0.00000000000E+00 -0.59903836993E+02  0.59903836993E+02  0.00000000000E+00 0.  1.
         25    2    1    2    0    0 -0.38485297782E+01  0.19768169487E+02  0.26880254083E+03  0.29712922513E+03  0.12500151504E+03 0.  0.
          5    1    3    3  501    0  0.38870784982E+01 -0.51970474855E+01  0.27083606634E+03  0.27091383042E+03  0.10000000000E+00 0. -1.
         -5    1    3    3    0  501 -0.77356082764E+01  0.24965216972E+02 -0.20335255078E+01  0.26215394711E+02  0.10000000000E+00 0. -1.
         21    1    1    2  504  502  0.38485297782E+01 -0.19768169487E+02 -0.43523686151E+02  0.47957303537E+02  0.00000000000E+00 0.  1.
<mgrwt>
<rscale>  1 0.12661347E+03</rscale>
<asrwt>0</asrwt>
<pdfrwt beam="1">  1       21 0.43874260E-01 0.12661347E+03</pdfrwt>
<pdfrwt beam="2">  1       21 0.92159751E-02 0.12661347E+03</pdfrwt>
<totfact> 0.47204643E+05</totfact>
</mgrwt>
</event>
<event>
 6    1  0.4180481E-002  0.1933003E+03  0.7546771E-02  0.1155518E+00
         21   -1    0    0  503  502  0.00000000000E+00  0.00000000000E+00  0.50473739609E+02  0.50473739609E+02  0.00000000000E+00 0. -1.
         21   -1    0    0  504  503 -0.00000000000E+00 -0.00000000000E+00 -0.57909961388E+03  0.57909961388E+03  0.00000000000E+00 0. -1.
         25    2    1    2    0    0 -0.50451775372E+02 -0.13854699750E+03 -0.32557476908E+03  0.37863431015E+03  0.12499743359E+03 0.  0.
          5    1    3    3  501    0 -0.51654309486E+02 -0.63403926041E+02 -0.56853595292E+02  0.99602042265E+02  0.10000000000E+00 0. -1.
         -5    1    3    3    0  501  0.12025341133E+01 -0.75143071457E+02 -0.26872117379E+03  0.27903226788E+03  0.10000000000E+00 0. -1.
         21    1    1    2  504  502  0.50451775372E+02  0.13854699750E+03 -0.20305110518E+03  0.25093904333E+03  0.00000000000E+00 0. -1.
<mgrwt>
<rscale>  1 0.19330031E+03</rscale>
<asrwt>0</asrwt>
<pdfrwt beam="1">  1       21 0.77651905E-02 0.19330031E+03</pdfrwt>
<pdfrwt beam="2">  1       21 0.89092251E-01 0.19330031E+03</pdfrwt>
<totfact> 0.13590056E+05</totfact>
</mgrwt>
</event>
<event>
 6    1  0.4180481E-002  0.1265531E+03  0.7546771E-02  0.1232662E+00
         21   -1    0    0  504  502  0.00000000000E+00  0.00000000000E+00  0.30608441650E+02  0.30608441650E+02  0.00000000000E+00 0.  1.
         21   -1    0    0  502  503 -0.00000000000E+00 -0.00000000000E+00 -0.52331351653E+03  0.52331351653E+03  0.00000000000E+00 0.  1.
         25    2    1    2    0    0 -0.17112758898E+02  0.99030119666E+01 -0.10152799065E+03  0.16224552618E+03  0.12499904686E+03 0.  0.
          5    1    3    3  501    0 -0.31638894713E+02 -0.54846201620E+01  0.20696414963E+02  0.38202778817E+02  0.10000000000E+00 0. -1.
         -5    1    3    3    0  501  0.14526135816E+02  0.15387632129E+02 -0.12222440562E+03  0.12404274736E+03  0.10000000000E+00 0. -1.
         21    1    1    2  504  503  0.17112758898E+02 -0.99030119666E+01 -0.39117708422E+03  0.39167643200E+03  0.00000000000E+00 0.  1.
<mgrwt>
<rscale>  1 0.12655306E+03</rscale>
<asrwt>0</asrwt>
<pdfrwt beam="1">  1       21 0.47089914E-02 0.12655306E+03</pdfrwt>
<pdfrwt beam="2">  1       21 0.80509765E-01 0.12655306E+03</pdfrwt>
<totfact> 0.40879634E+05</totfact>
</mgrwt>
</event>
<event>
 6    1  0.4180481E-002  0.1312141E+03  0.7546771E-02  0.1225665E+00
         21   -1    0    0  503  502  0.00000000000E+00  0.00000000000E+00  0.33100131104E+03  0.33100131104E+03  0.00000000000E+00 0.  1.
         21   -1    0    0  504  503 -0.00000000000E+00 -0.00000000000E+00 -0.22609814254E+02  0.22609814254E+02  0.00000000000E+00 0.  1.
         25    2    1    2    0    0  0.33285566069E+02  0.21948388079E+02  0.25708134389E+03  0.28863118656E+03  0.12500993493E+03 0.  0.
          5    1    3    3  501    0 -0.43534550760E+02 -0.61998606456E+01  0.53679172905E+02  0.69391346620E+02  0.10000000000E+00 0. -1.
         -5    1    3    3    0  501  0.76820116829E+02  0.28148248724E+02  0.20340217098E+03  0.21923983994E+03  0.10000000000E+00 0. -1.
         21    1    1    2  504  502 -0.33285566069E+02 -0.21948388079E+02  0.51310152900E+02  0.64979938738E+02  0.00000000000E+00 0.  1.
<mgrwt>
<rscale>  1 0.13121412E+03</rscale>
<asrwt>0</asrwt>
<pdfrwt beam="1">  1       21 0.50923275E-01 0.13121412E+03</pdfrwt>
<pdfrwt beam="2">  1       21 0.34784332E-02 0.13121412E+03</pdfrwt>
<totfact> 0.18097295E+06</totfact>
</mgrwt>
</event>
<event>
 6    1  0.4180481E-002  0.1300043E+03  0.7546771E-02  0.1227449E+00
         21   -1    0    0  503  502  0.00000000000E+00  0.00000000000E+00  0.15596478630E+04  0.15596478630E+04  0.00000000000E+00 0. -1.
         21   -1    0    0  504  503 -0.00000000000E+00 -0.00000000000E+00 -0.27290621865E+02  0.27290621865E+02  0.00000000000E+00 0. -1.
         25    2    1    2    0    0  0.34938785914E+02  0.75366099657E+01  0.15439112193E+04  0.15493750231E+04  0.12499435880E+03 0.  0.
          5    1    3    3  501    0 -0.16984927798E+02 -0.49819980043E+02  0.62408231647E+03  0.62629806475E+03  0.10000000000E+00 0.  1.
         -5    1    3    3    0  501  0.51923713712E+02  0.57356590009E+02  0.91982890286E+03  0.92307695833E+03  0.10000000000E+00 0.  1.
         21    1    1    2  504  502 -0.34938785914E+02 -0.75366099657E+01 -0.11553978174E+02  0.37563461802E+02  0.00000000000E+00 0. -1.
<mgrwt>
<rscale>  1 0.13000427E+03</rscale>
<asrwt>0</asrwt>
<pdfrwt beam="1">  1       21 0.23994576E+00 0.13000427E+03</pdfrwt>
<pdfrwt beam="2">  1       21 0.41985584E-02 0.13000427E+03</pdfrwt>
<totfact> 0.29160209E+04</totfact>
</mgrwt>
</event>
<event>
 6    1  0.4180481E-002  0.1266485E+03  0.7546771E-02  0.1232515E+00
         21   -1    0    0  504  502  0.00000000000E+00  0.00000000000E+00  0.56377629477E+03  0.56377629477E+03  0.00000000000E+00 0.  1.
         21   -1    0    0  502  503 -0.00000000000E+00 -0.00000000000E+00 -0.35706528826E+02  0.35706528826E+02  0.00000000000E+00 0.  1.
         25    2    1    2    0    0 -0.74445977821E+01  0.18941597353E+02  0.55299025602E+03  0.56730772496E+03  0.12500250154E+03 0.  0.
          5    1    3    3  501    0  0.27387957206E+02  0.23967090013E+02  0.43994895048E+02  0.57097131223E+02  0.10000000000E+00 0.  1.
         -5    1    3    3    0  501 -0.34832554988E+02 -0.50254926597E+01  0.50899536098E+03  0.51021059373E+03  0.10000000000E+00 0.  1.
         21    1    1    2  504  503  0.74445977821E+01 -0.18941597353E+02 -0.24920490081E+02  0.32175098637E+02  0.00000000000E+00 0.  1.
<mgrwt>
<rscale>  1 0.12664846E+03</rscale>
<asrwt>0</asrwt>
<pdfrwt beam="1">  1       21 0.86734808E-01 0.12664846E+03</pdfrwt>
<pdfrwt beam="2">  1       21 0.54933125E-02 0.12664846E+03</pdfrwt>
<totfact> 0.26683744E+05</totfact>
</mgrwt>
</event>
<event>
 6    1  0.4180481E-002  0.1270061E+03  0.7546771E-02  0.1231967E+00
         21   -1    0    0  504  502  0.00000000000E+00  0.00000000000E+00  0.10592647034E+03  0.10592647034E+03  0.00000000000E+00 0. -1.
         21   -1    0    0  502  503 -0.00000000000E+00 -0.00000000000E+00 -0.35158086231E+03  0.35158086231E+03  0.00000000000E+00 0.  1.
         25    2    1    2    0    0  0.54787932367E+01 -0.21718556238E+02  0.67311637463E+02  0.14374078178E+03  0.12501537085E+03 0.  0.
          5    1    3    3  501    0 -0.46345042819E+02 -0.29501994862E+02  0.72628398148E+02  0.91066596029E+02  0.10000000000E+00 0. -1.
         -5    1    3    3    0  501  0.51823836056E+02  0.77834386237E+01 -0.53167606852E+01  0.52674185751E+02  0.10000000000E+00 0. -1.
         21    1    1    2  504  503 -0.54787932367E+01  0.21718556238E+02 -0.31296602944E+03  0.31376655087E+03  0.00000000000E+00 0.  1.
<mgrwt>
<rscale>  1 0.12700613E+03</rscale>
<asrwt>0</asrwt>
<pdfrwt beam="1">  1       21 0.16296380E-01 0.12700613E+03</pdfrwt>
<pdfrwt beam="2">  1       21 0.54089363E-01 0.12700613E+03</pdfrwt>
<totfact> 0.11164668E+05</totfact>
</mgrwt>
</event>
<event>
 6    1  0.4180481E-002  0.1260666E+03  0.7546771E-02  0.1233412E+00
         21   -1    0    0  504  502  0.00000000000E+00  0.00000000000E+00  0.32328068301E+04  0.32328068301E+04  0.00000000000E+00 0. -1.
         21   -1    0    0  502  503 -0.00000000000E+00 -0.00000000000E+00 -0.18014637591E+02  0.18014637591E+02  0.00000000000E+00 0.  1.
         25    2    1    2    0    0  0.92500954110E+01 -0.13674185836E+02  0.32275166435E+04  0.32299777809E+04  0.12498093164E+03 0.  0.
          5    1    3    3  501    0 -0.21425096755E+02 -0.60629467079E+02  0.12360996543E+04  0.12377711147E+04  0.10000000000E+00 0.  1.
         -5    1    3    3    0  501  0.30675192166E+02  0.46955281243E+02  0.19914169892E+04  0.19922066662E+04  0.10000000000E+00 0.  1.
         21    1    1    2  504  503 -0.92500954110E+01  0.13674185836E+02 -0.12724451043E+02  0.20843686760E+02  0.00000000000E+00 0.  1.
<mgrwt>
<rscale>  1 0.12606657E+03</rscale>
<asrwt>0</asrwt>
<pdfrwt beam="1">  1       21 0.49735444E+00 0.12606657E+03</pdfrwt>
<pdfrwt beam="2">  1       21 0.27714853E-02 0.12606657E+03</pdfrwt>
<totfact> 0.16184586E+03</totfact>
</mgrwt>
</event>
<event>
 6    1  0.4180481E-002  0.1259584E+03  0.7546771E-02  0.1233579E+00
         21   -1    0    0  504  502  0.00000000000E+00  0.00000000000E+00  0.52379331968E+01  0.52379331968E+01  0.00000000000E+00 0. -1.
         21   -1    0    0  502  503 -0.00000000000E+00 -0.00000000000E+00 -0.10436051402E+04  0.10436051402E+04  0.00000000000E+00 0. -1.
         25    2    1    2    0    0 -0.96790721936E+01  0.12077269634E+02 -0.78852028313E+03  0.79851722525E+03  0.12500390889E+03 0.  0.
          5    1    3    3  501    0 -0.20977960355E+01  0.54419082082E+02 -0.17015675830E+03  0.17865936762E+03  0.10000000000E+00 0. -1.
         -5    1    3    3    0  501 -0.75812761581E+01 -0.42341812448E+02 -0.61836352483E+03  0.61985785764E+03  0.10000000000E+00 0. -1.
         21    1    1    2  504  503  0.96790721936E+01 -0.12077269634E+02 -0.24984692384E+03  0.25032584811E+03  0.00000000000E+00 0. -1.
<mgrwt>
<rscale>  1 0.12595841E+03</rscale>
<asrwt>0</asrwt>
<pdfrwt beam="1">  1       21 0.80583515E-03 0.12595841E+03</pdfrwt>
<pdfrwt beam="2">  1       21 0.16055478E+00 0.12595841E+03</pdfrwt>
<totfact> 0.13310693E+06</totfact>
</mgrwt>
</event>
<event>
 6    1  0.4180481E-002  0.1266202E+03  0.7546771E-02  0.1232559E+00
         21   -1    0    0  503  502  0.00000000000E+00  0.00000000000E+00  0.37187490280E+03  0.37187490280E+03  0.00000000000E+00 0. -1.
         21   -1    0    0  504  503 -0.00000000000E+00 -0.00000000000E+00 -0.16771263496E+02  0.16771263496E+02  0.00000000000E+00 0. -1.
         25    2    1    2    0    0  0.12434100025E+02 -0.15603701912E+02  0.34222651239E+03  0.36489952960E+03  0.12503838836E+03 0.  0.
          5    1    3    3  501    0 -0.54567087411E+02 -0.20826407354E+02  0.18225279540E+03  0.19138285634E+03  0.10000000000E+00 0.  1.
         -5    1    3    3    0  501  0.67001187437E+02  0.52227054422E+01  0.15997371699E+03  0.17351667326E+03  0.10000000000E+00 0.  1.
         21    1    1    2  504  502 -0.12434100025E+02  0.15603701912E+02  0.12877126916E+02  0.23746636697E+02  0.00000000000E+00 0. -1.
<mgrwt>
<rscale>  1 0.12662022E+03</rscale>
<asrwt>0</asrwt>
<pdfrwt beam="1">  1       21 0.57211517E-01 0.12662022E+03</pdfrwt>
<pdfrwt beam="2">  1       21 0.25801947E-02 0.12662022E+03</pdfrwt>
<totfact> 0.23145431E+06</totfact>
</mgrwt>
</event>
<event>
 6    1  0.4180481E-002  0.1274245E+03  0.7546771E-02  0.1231328E+00
         21   -1    0    0  504  502  0.00000000000E+00  0.00000000000E+00  0.39682885411E+02  0.39682885411E+02  0.00000000000E+00 0.  1.
         21   -1    0    0  502  503 -0.00000000000E+00 -0.00000000000E+00 -0.17979196371E+03  0.17979196371E+03  0.00000000000E+00 0.  1.
         25    2    1    2    0    0  0.24659679924E+02 -0.17948518996E+01 -0.70548133030E+02  0.14565041946E+03  0.12500273721E+03 0.  0.
          5    1    3    3  501    0 -0.93089624374E+01 -0.40373111698E+02  0.16468755773E+02  0.44585590123E+02  0.10000000000E+00 0.  1.
         -5    1    3    3    0  501  0.33968642362E+02  0.38578259799E+02 -0.87016888803E+02  0.10106482934E+03  0.10000000000E+00 0.  1.
         21    1    1    2  504  503 -0.24659679924E+02  0.17948518996E+01 -0.69560945273E+02  0.73824429659E+02  0.00000000000E+00 0. -1.
<mgrwt>
<rscale>  1 0.12742451E+03</rscale>
<asrwt>0</asrwt>
<pdfrwt beam="1">  1       21 0.61050594E-02 0.12742451E+03</pdfrwt>
<pdfrwt beam="2">  1       21 0.27660302E-01 0.12742451E+03</pdfrwt>
<totfact> 0.23694962E+06</totfact>
</mgrwt>
</event>
<event>
 6    1  0.4180481E-002  0.1279714E+03  0.7546771E-02  0.1230497E+00
         21   -1    0    0  503  502  0.00000000000E+00  0.00000000000E+00  0.29992700416E+01  0.29992700416E+01  0.00000000000E+00 0.  1.
         21   -1    0    0  504  503 -0.00000000000E+00 -0.00000000000E+00 -0.26045437826E+04  0.26045437826E+04  0.00000000000E+00 0.  1.
         25    2    1    2    0    0  0.27389996028E+02 -0.10290172353E+01 -0.14399928547E+04  0.14456680488E+04  0.12500165949E+03 0.  0.
          5    1    3    3  501    0  0.51011493690E+02 -0.34934416866E+02 -0.12352755514E+04  0.12368218480E+04  0.10000000000E+00 0.  1.
         -5    1    3    3    0  501 -0.23621497661E+02  0.33905399631E+02 -0.20471730335E+03  0.20884620074E+03  0.10000000000E+00 0.  1.
         21    1    1    2  504  502 -0.27389996028E+02  0.10290172353E+01 -0.11615516578E+04  0.11618750039E+04  0.00000000000E+00 0.  1.
<mgrwt>
<rscale>  1 0.12797143E+03</rscale>
<asrwt>0</asrwt>
<pdfrwt beam="1">  1       21 0.46142526E-03 0.12797143E+03</pdfrwt>
<pdfrwt beam="2">  1       21 0.40069982E+00 0.12797143E+03</pdfrwt>
<totfact> 0.11794015E+05</totfact>
</mgrwt>
</event>
<event>
 6    1  0.4180481E-002  0.1793174E+03  0.7546771E-02  0.1168465E+00
         21   -1    0    0  504  502  0.00000000000E+00  0.00000000000E+00  0.38853764889E+03  0.38853764889E+03  0.00000000000E+00 0. -1.
         21   -1    0    0  502  503 -0.00000000000E+00 -0.00000000000E+00 -0.96402916950E+02  0.96402916950E+02  0.00000000000E+00 0.  1.
         25    2    1    2    0    0 -0.12738598300E+03 -0.17362586061E+02  0.30698693047E+03  0.35552172695E+03  0.12500429910E+03 0.  0.
          5    1    3    3  501    0 -0.73571847136E+02  0.50900444920E+02  0.12363201590E+03  0.15260588894E+03  0.10000000000E+00 0. -1.
         -5    1    3    3    0  501 -0.53814135863E+02 -0.68263030981E+02  0.18335491457E+03  0.20291583801E+03  0.10000000000E+00 0. -1.
         21    1    1    2  504  503  0.12738598300E+03  0.17362586061E+02 -0.14852198528E+02  0.12941883889E+03  0.00000000000E+00 0. -1.
<mgrwt>
<rscale>  1 0.17931738E+03</rscale>
<asrwt>0</asrwt>
<pdfrwt beam="1">  1       21 0.59775022E-01 0.17931738E+03</pdfrwt>
<pdfrwt beam="2">  1       21 0.14831218E-01 0.17931738E+03</pdfrwt>
<totfact> 0.10513041E+05</totfact>
</mgrwt>
</event>
<event>
 6    1  0.4180481E-002  0.1265914E+03  0.7546771E-02  0.1232603E+00
         21   -1    0    0  503  502  0.00000000000E+00  0.00000000000E+00  0.77671127141E+02  0.77671127141E+02  0.00000000000E+00 0.  1.
         21   -1    0    0  504  503 -0.00000000000E+00 -0.00000000000E+00 -0.11577068518E+03  0.11577068518E+03  0.00000000000E+00 0.  1.
         25    2    1    2    0    0 -0.95916424827E+01  0.17544636968E+02  0.23433026551E+02  0.12874194479E+03  0.12500227087E+03 0.  0.
          5    1    3    3  501    0  0.28062965582E+02 -0.87443043787E+00  0.64322658992E+02  0.70183396367E+02  0.10000000000E+00 0.  1.
         -5    1    3    3    0  501 -0.37654608065E+02  0.18419067406E+02 -0.40889632441E+02  0.58558548426E+02  0.10000000000E+00 0.  1.
         21    1    1    2  504  502  0.95916424827E+01 -0.17544636968E+02 -0.61532584595E+02  0.64699867533E+02  0.00000000000E+00 0. -1.
<mgrwt>
<rscale>  1 0.12659140E+03</rscale>
<asrwt>0</asrwt>
<pdfrwt beam="1">  1       21 0.11949404E-01 0.12659140E+03</pdfrwt>
<pdfrwt beam="2">  1       21 0.17810875E-01 0.12659140E+03</pdfrwt>
<totfact> 0.16847001E+06</totfact>
</mgrwt>
</event>
<event>
 6    1  0.4180481E-002  0.1316356E+03  0.7546771E-02  0.1225049E+00
         21   -1    0    0  503  502  0.00000000000E+00  0.00000000000E+00  0.62781176305E+02  0.62781176305E+02  0.00000000000E+00 0.  1.
         21   -1    0    0  504  503 -0.00000000000E+00 -0.00000000000E+00 -0.12216738445E+03  0.12216738445E+03  0.00000000000E+00 0.  1.
         25    2    1    2    0    0 -0.17177029286E+02  0.37411477098E+02 -0.31888284703E+02  0.13544295756E+03  0.12503304803E+03 0.  0.
          5    1    3    3  501    0  0.32517294517E+02  0.18261552579E+02  0.34176344626E+02  0.50585484848E+02  0.10000000000E+00 0. -1.
         -5    1    3    3    0  501 -0.49694323803E+02  0.19149924518E+02 -0.66064629329E+02  0.84857472716E+02  0.10000000000E+00 0. -1.
         21    1    1    2  504  502  0.17177029286E+02 -0.37411477098E+02 -0.27497923441E+02  0.49505603191E+02  0.00000000000E+00 0.  1.
<mgrwt>
<rscale>  1 0.13163560E+03</rscale>
<asrwt>0</asrwt>
<pdfrwt beam="1">  1       21 0.96586426E-02 0.13163560E+03</pdfrwt>
<pdfrwt beam="2">  1       21 0.18794982E-01 0.13163560E+03</pdfrwt>
<totfact> 0.22216112E+06</totfact>
</mgrwt>
</event>
<event>
 6    1  0.4180481E-002  0.1286742E+03  0.7546771E-02  0.1229436E+00
         21   -1    0    0  503  502  0.00000000000E+00  0.00000000000E+00  0.56127383364E+03  0.56127383364E+03  0.00000000000E+00 0.  1.
         21   -1    0    0  504  503 -0.00000000000E+00 -0.00000000000E+00 -0.70584749770E+02  0.70584749770E+02  0.00000000000E+00 0. -1.
         25    2    1    2    0    0  0.21930335709E+02  0.21181093828E+02  0.55017102198E+03  0.56501788232E+03  0.12500990184E+03 0.  0.
          5    1    3    3  501    0  0.53482316578E+02 -0.35225566886E+02  0.27535573257E+03  0.28270477217E+03  0.10000000000E+00 0. -1.
         -5    1    3    3    0  501 -0.31551980868E+02  0.56406660715E+02  0.27481528941E+03  0.28231311015E+03  0.10000000000E+00 0. -1.
         21    1    1    2  504  502 -0.21930335709E+02 -0.21181093828E+02 -0.59481938112E+02  0.66840701086E+02  0.00000000000E+00 0. -1.
<mgrwt>
<rscale>  1 0.12867422E+03</rscale>
<asrwt>0</asrwt>
<pdfrwt beam="1">  1       21 0.86349818E-01 0.12867422E+03</pdfrwt>
<pdfrwt beam="2">  1       21 0.10859193E-01 0.12867422E+03</pdfrwt>
<totfact> 0.83356675E+04</totfact>
</mgrwt>
</event>
<event>
 6    1  0.4180481E-002  0.1265419E+03  0.7546771E-02  0.1232679E+00
         21   -1    0    0  504  502  0.00000000000E+00  0.00000000000E+00  0.66863313763E+02  0.66863313763E+02  0.00000000000E+00 0.  1.
         21   -1    0    0  502  503 -0.00000000000E+00 -0.00000000000E+00 -0.80246529554E+02  0.80246529554E+02  0.00000000000E+00 0.  1.
         25    2    1    2    0    0  0.10571424007E+01  0.19778379810E+02 -0.13851255613E+02  0.12729770261E+03  0.12498218253E+03 0.  0.
          5    1    3    3  501    0 -0.10982271921E+02  0.37079155197E+02  0.48181717605E+02  0.61781566490E+02  0.10000000000E+00 0.  1.
         -5    1    3    3    0  501  0.12039414321E+02 -0.17300775386E+02 -0.62032973218E+02  0.65516136123E+02  0.10000000000E+00 0.  1.
         21    1    1    2  504  503 -0.10571424007E+01 -0.19778379810E+02  0.46803982229E+00  0.19812140704E+02  0.00000000000E+00 0.  1.
<mgrwt>
<rscale>  1 0.12654188E+03</rscale>
<asrwt>0</asrwt>
<pdfrwt beam="1">  1       21 0.10286664E-01 0.12654188E+03</pdfrwt>
<pdfrwt beam="2">  1       21 0.12345620E-01 0.12654188E+03</pdfrwt>
<totfact> 0.42431109E+06</totfact>
</mgrwt>
</event>
<event>
 6    1  0.4180481E-002  0.1280602E+03  0.7546771E-02  0.1230363E+00
         21   -1    0    0  504  502  0.00000000000E+00  0.00000000000E+00  0.28924956699E+02  0.28924956699E+02  0.00000000000E+00 0.  1.
         21   -1    0    0  502  503 -0.00000000000E+00 -0.00000000000E+00 -0.25490538770E+03  0.25490538770E+03  0.00000000000E+00 0.  1.
         25    2    1    2    0    0 -0.22434184683E+02  0.16426074979E+02 -0.22123223634E+03  0.25562300610E+03  0.12500524096E+03 0.  0.
          5    1    3    3  501    0 -0.73311196360E+02  0.16330298198E+02 -0.15370803503E+03  0.17107711765E+03  0.10000000000E+00 0.  1.
         -5    1    3    3    0  501  0.50877011677E+02  0.95776780826E-01 -0.67524201316E+02  0.84545888450E+02  0.10000000000E+00 0.  1.
         21    1    1    2  504  503  0.22434184683E+02 -0.16426074979E+02 -0.47481946598E+01  0.28207338303E+02  0.00000000000E+00 0.  1.
<mgrwt>
<rscale>  1 0.12806022E+03</rscale>
<asrwt>0</asrwt>
<pdfrwt beam="1">  1       21 0.44499933E-02 0.12806022E+03</pdfrwt>
<pdfrwt beam="2">  1       21 0.39216214E-01 0.12806022E+03</pdfrwt>
<totfact> 0.20424627E+06</totfact>
</mgrwt>
</event>
<event>
 6    1  0.4180481E-002  0.1357282E+03  0.7546771E-02  0.1219195E+00
         21   -1    0    0  504  502  0.00000000000E+00  0.00000000000E+00  0.62430067343E+02  0.62430067343E+02  0.00000000000E+00 0.  1.
         21   -1    0    0  502  503 -0.00000000000E+00 -0.00000000000E+00 -0.16953792806E+03  0.16953792806E+03  0.00000000000E+00 0.  1.
         25    2    1    2    0    0  0.52402495220E+02 -0.71366394438E+01 -0.30890060605E+02  0.13919889396E+03  0.12500073243E+03 0.  0.
          5    1    3    3  501    0  0.67328543780E+02 -0.31637428198E+02 -0.62028547009E+02  0.96858713158E+02  0.10000000000E+00 0. -1.
         -5    1    3    3    0  501 -0.14926048560E+02  0.24500788754E+02  0.31138486404E+02  0.42340180807E+02  0.10000000000E+00 0. -1.
         21    1    1    2  504  503 -0.52402495220E+02  0.71366394438E+01 -0.76217800111E+02  0.92769101438E+02  0.00000000000E+00 0.  1.
<mgrwt>
<rscale>  1 0.13572817E+03</rscale>
<asrwt>0</asrwt>
<pdfrwt beam="1">  1       21 0.96046256E-02 0.13572817E+03</pdfrwt>
<pdfrwt beam="2">  1       21 0.26082758E-01 0.13572817E+03</pdfrwt>
<totfact> 0.12166767E+06</totfact>
</mgrwt>
</event>
<event>
 6    1  0.4180481E-002  0.1265074E+03  0.7546771E-02  0.1232732E+00
         21   -1    0    0  503  502  0.00000000000E+00  0.00000000000E+00  0.23577028276E+02  0.23577028276E+02  0.00000000000E+00 0. -1.
         21   -1    0    0  504  503 -0.00000000000E+00 -0.00000000000E+00 -0.27895212838E+03  0.27895212838E+03  0.00000000000E+00 0. -1.
         25    2    1    2    0    0  0.58061058731E+01 -0.18592332781E+02 -0.15399645653E+03  0.19929633689E+03  0.12499894228E+03 0.  0.
          5    1    3    3  501    0  0.34541095453E+02 -0.10384900951E+02 -0.16389379121E+03  0.16781572703E+03  0.10000000000E+00 0. -1.
         -5    1    3    3    0  501 -0.28734989580E+02 -0.82074318304E+01  0.98973346769E+01  0.31480609859E+02  0.10000000000E+00 0. -1.
         21    1    1    2  504  502 -0.58061058731E+01  0.18592332781E+02 -0.10137864357E+03  0.10323281976E+03  0.00000000000E+00 0. -1.
<mgrwt>
<rscale>  1 0.12650740E+03</rscale>
<asrwt>0</asrwt>
<pdfrwt beam="1">  1       21 0.36272351E-02 0.12650740E+03</pdfrwt>
<pdfrwt beam="2">  1       21 0.42915713E-01 0.12650740E+03</pdfrwt>
<totfact> 0.23930982E+06</totfact>
</mgrwt>
</event>
<event>
 6    1  0.4180481E-002  0.1287575E+03  0.7546771E-02  0.1229311E+00
         21   -1    0    0  503  502  0.00000000000E+00  0.00000000000E+00  0.33579717214E+02  0.33579717214E+02  0.00000000000E+00 0.  1.
         21   -1    0    0  504  503 -0.00000000000E+00 -0.00000000000E+00 -0.22558357515E+03  0.22558357515E+03  0.00000000000E+00 0.  1.
         25    2    1    2    0    0  0.28173068581E+02  0.12643584617E+02 -0.10278675630E+03  0.16475315917E+03  0.12499961664E+03 0.  0.
          5    1    3    3  501    0  0.19212117665E+02 -0.48606387167E+02 -0.10001362165E+02  0.53213941630E+02  0.10000000000E+00 0. -1.
         -5    1    3    3    0  501  0.89609509153E+01  0.61249971784E+02 -0.92785394139E+02  0.11153921754E+03  0.10000000000E+00 0. -1.
         21    1    1    2  504  502 -0.28173068581E+02 -0.12643584617E+02 -0.89217101630E+02  0.94410133188E+02  0.00000000000E+00 0.  1.
<mgrwt>
<rscale>  1 0.12875747E+03</rscale>
<asrwt>0</asrwt>
<pdfrwt beam="1">  1       21 0.51661106E-02 0.12875747E+03</pdfrwt>
<pdfrwt beam="2">  1       21 0.34705163E-01 0.12875747E+03</pdfrwt>
<totfact> 0.20255318E+06</totfact>
</mgrwt>
</event>
<event>
 6    1  0.4180481E-002  0.1550116E+03  0.7546771E-02  0.1194447E+00
         21   -1    0    0  504  502  0.00000000000E+00  0.00000000000E+00  0.17285913350E+03  0.17285913350E+03  0.00000000000E+00 0.  1.
         21   -1    0    0  502  503 -0.00000000000E+00 -0.00000000000E+00 -0.10487091403E+03  0.10487091403E+03  0.00000000000E+00 0.  1.
         25    2    1    2    0    0 -0.80807385708E+02 -0.43289441948E+02  0.95438658830E+02  0.18203607702E+03  0.12499914547E+03 0.  0.
          5    1    3    3  501    0 -0.77625669177E+02 -0.14451668057E+02 -0.33945182095E+01  0.79032448897E+02  0.10000000000E+00 0.  1.
         -5    1    3    3    0  501 -0.31817165311E+01 -0.28837773891E+02  0.98833177040E+02  0.10300362812E+03  0.10000000000E+00 0.  1.
         21    1    1    2  504  503  0.80807385708E+02  0.43289441948E+02 -0.27450439359E+02  0.95693970500E+02  0.00000000000E+00 0.  1.
<mgrwt>
<rscale>  1 0.15501160E+03</rscale>
<asrwt>0</asrwt>
<pdfrwt beam="1">  1       21 0.26593713E-01 0.15501160E+03</pdfrwt>
<pdfrwt beam="2">  1       21 0.16133987E-01 0.15501160E+03</pdfrwt>
<totfact> 0.46496157E+05</totfact>
</mgrwt>
</event>
<event>
 6    1  0.4180481E-002  0.1274231E+03  0.7546771E-02  0.1231330E+00
         21   -1    0    0  504  502  0.00000000000E+00  0.00000000000E+00  0.35050779155E+02  0.35050779155E+02  0.00000000000E+00 0. -1.
         21   -1    0    0  502  503 -0.00000000000E+00 -0.00000000000E+00 -0.40832818806E+03  0.40832818806E+03  0.00000000000E+00 0. -1.
         25    2    1    2    0    0 -0.19941561539E+02 -0.14625397258E+02 -0.83047032765E+02  0.15209690571E+03  0.12500036381E+03 0.  0.
          5    1    3    3  501    0 -0.68466077869E+02 -0.20416480776E+02 -0.73119671071E+02  0.10222980389E+03  0.10000000000E+00 0. -1.
         -5    1    3    3    0  501  0.48524516330E+02  0.57910835184E+01 -0.99273616942E+01  0.49867101817E+02  0.10000000000E+00 0. -1.
         21    1    1    2  504  503  0.19941561539E+02  0.14625397258E+02 -0.29023037614E+03  0.29128206151E+03  0.00000000000E+00 0. -1.
<mgrwt>
<rscale>  1 0.12742315E+03</rscale>
<asrwt>0</asrwt>
<pdfrwt beam="1">  1       21 0.53924274E-02 0.12742315E+03</pdfrwt>
<pdfrwt beam="2">  1       21 0.62819723E-01 0.12742315E+03</pdfrwt>
<totfact> 0.55997290E+05</totfact>
</mgrwt>
</event>
<event>
 6    1  0.4180481E-002  0.1305135E+03  0.7546771E-02  0.1226696E+00
         21   -1    0    0  503  502  0.00000000000E+00  0.00000000000E+00  0.81084264837E+02  0.81084264837E+02  0.00000000000E+00 0.  1.
         21   -1    0    0  504  503 -0.00000000000E+00 -0.00000000000E+00 -0.93066917706E+02  0.93066917706E+02  0.00000000000E+00 0.  1.
         25    2    1    2    0    0  0.23002109924E+01 -0.37442932887E+02  0.96105190578E+01  0.13086689824E+03  0.12500607499E+03 0.  0.
          5    1    3    3  501    0  0.30325267440E+02 -0.76516812295E+02  0.87859368915E+01  0.82774676659E+02  0.10000000000E+00 0.  1.
         -5    1    3    3    0  501 -0.28025056447E+02  0.39073879407E+02  0.82458216629E+00  0.48092221581E+02  0.10000000000E+00 0.  1.
         21    1    1    2  504  502 -0.23002109924E+01  0.37442932887E+02 -0.21593171927E+02  0.43284284304E+02  0.00000000000E+00 0.  1.
<mgrwt>
<rscale>  1 0.13051354E+03</rscale>
<asrwt>0</asrwt>
<pdfrwt beam="1">  1       21 0.12474502E-01 0.13051354E+03</pdfrwt>
<pdfrwt beam="2">  1       21 0.14317987E-01 0.13051354E+03</pdfrwt>
<totfact> 0.23203333E+06</totfact>
</mgrwt>
</event>
<event>
 6    1  0.4180481E-002  0.1292499E+03  0.7546771E-02  0.1228573E+00
         21   -1    0    0  503  502  0.00000000000E+00  0.00000000000E+00  0.45485315524E+03  0.45485315524E+03  0.00000000000E+00 0. -1.
         21   -1    0    0  504  503 -0.00000000000E+00 -0.00000000000E+00 -0.14461373423E+02  0.14461373423E+02  0.00000000000E+00 0. -1.
         25    2    1    2    0    0 -0.31231164794E+02  0.10213042355E+02  0.35755102440E+03  0.38019504158E+03  0.12500337077E+03 0.  0.
          5    1    3    3  501    0 -0.62236081783E+02  0.27480710665E+02  0.32498014796E+03  0.33202503807E+03  0.10000000000E+00 0.  1.
         -5    1    3    3    0  501  0.31004916989E+02 -0.17267668311E+02  0.32570876438E+02  0.48170003511E+02  0.10000000000E+00 0.  1.
         21    1    1    2  504  502  0.31231164794E+02 -0.10213042355E+02  0.82840757416E+02  0.89119487082E+02  0.00000000000E+00 0. -1.
<mgrwt>
<rscale>  1 0.12924989E+03</rscale>
<asrwt>0</asrwt>
<pdfrwt beam="1">  1       21 0.69977398E-01 0.12924989E+03</pdfrwt>
<pdfrwt beam="2">  1       21 0.22248270E-02 0.12924989E+03</pdfrwt>
<totfact> 0.19133643E+06</totfact>
</mgrwt>
</event>
<event>
 6    1  0.4180481E-002  0.1277511E+03  0.7546771E-02  0.1230831E+00
         21   -1    0    0  503  502  0.00000000000E+00  0.00000000000E+00  0.12406517544E+03  0.12406517544E+03  0.00000000000E+00 0. -1.
         21   -1    0    0  504  503 -0.00000000000E+00 -0.00000000000E+00 -0.19422253676E+03  0.19422253676E+03  0.00000000000E+00 0. -1.
         25    2    1    2    0    0 -0.17817169771E+02 -0.19390120821E+02  0.89814291166E+02  0.15616319855E+03  0.12500763721E+03 0.  0.
          5    1    3    3  501    0 -0.57823934711E+02  0.10811003402E+02  0.68389853035E+01  0.59222182837E+02  0.10000000000E+00 0.  1.
         -5    1    3    3    0  501  0.40006764940E+02 -0.30201124223E+02  0.82975305863E+02  0.96941015717E+02  0.10000000000E+00 0.  1.
         21    1    1    2  504  502  0.17817169771E+02  0.19390120821E+02 -0.15997165249E+03  0.16212451364E+03  0.00000000000E+00 0. -1.
<mgrwt>
<rscale>  1 0.12775108E+03</rscale>
<asrwt>0</asrwt>
<pdfrwt beam="1">  1       21 0.19086950E-01 0.12775108E+03</pdfrwt>
<pdfrwt beam="2">  1       21 0.29880390E-01 0.12775108E+03</pdfrwt>
<totfact> 0.27437313E+05</totfact>
</mgrwt>
</event>
<event>
 6    1  0.4180481E-002  0.1551391E+03  0.7546771E-02  0.1194297E+00
         21   -1    0    0  504  502  0.00000000000E+00  0.00000000000E+00  0.20652620392E+03  0.20652620392E+03  0.00000000000E+00 0. -1.
         21   -1    0    0  502  503 -0.00000000000E+00 -0.00000000000E+00 -0.12551981538E+03  0.12551981538E+03  0.00000000000E+00 0. -1.
         25    2    1    2    0    0  0.86637657670E+02 -0.30587229474E+02  0.15103909920E+03  0.21652007894E+03  0.12500589092E+03 0.  0.
          5    1    3    3  501    0 -0.15417768526E+02 -0.43868028381E+02  0.76211936860E+02  0.89276989310E+02  0.10000000000E+00 0.  1.
         -5    1    3    3    0  501  0.10205542620E+03  0.13280798908E+02  0.74827162341E+02  0.12724308963E+03  0.10000000000E+00 0.  1.
         21    1    1    2  504  503 -0.86637657670E+02  0.30587229474E+02 -0.70032710657E+02  0.11552594036E+03  0.00000000000E+00 0. -1.
<mgrwt>
<rscale>  1 0.15513908E+03</rscale>
<asrwt>0</asrwt>
<pdfrwt beam="1">  1       21 0.31773262E-01 0.15513908E+03</pdfrwt>
<pdfrwt beam="2">  1       21 0.19310741E-01 0.15513908E+03</pdfrwt>
<totfact> 0.23703605E+05</totfact>
</mgrwt>
</event>
<event>
 6    1  0.4180481E-002  0.1260195E+03  0.7546771E-02  0.1233484E+00
         21   -1    0    0  504  502  0.00000000000E+00  0.00000000000E+00  0.77316968515E+01  0.77316968515E+01  0.00000000000E+00 0.  1.
         21   -1    0    0  502  503 -0.00000000000E+00 -0.00000000000E+00 -0.74868011128E+03  0.74868011128E+03  0.00000000000E+00 0.  1.
         25    2    1    2    0    0 -0.14867282846E+02  0.58733012511E+01 -0.52662693706E+03  0.54149501626E+03  0.12500156011E+03 0.  0.
          5    1    3    3  501    0  0.29041061143E+02 -0.25336416427E+02 -0.57108944293E+02  0.68896725234E+02  0.10000000000E+00 0. -1.
         -5    1    3    3    0  501 -0.43908343989E+02  0.31209717678E+02 -0.46951799276E+03  0.47259829102E+03  0.10000000000E+00 0. -1.
         21    1    1    2  504  503  0.14867282846E+02 -0.58733012511E+01 -0.21432147737E+03  0.21491679187E+03  0.00000000000E+00 0.  1.
<mgrwt>
<rscale>  1 0.12601953E+03</rscale>
<asrwt>0</asrwt>
<pdfrwt beam="1">  1       21 0.11894914E-02 0.12601953E+03</pdfrwt>
<pdfrwt beam="2">  1       21 0.11518160E+00 0.12601953E+03</pdfrwt>
<totfact> 0.16658544E+06</totfact>
</mgrwt>
</event>
<event>
 6    1  0.4180481E-002  0.1274450E+03  0.7546771E-02  0.1231297E+00
         21   -1    0    0  504  502  0.00000000000E+00  0.00000000000E+00  0.22309532741E+03  0.22309532741E+03  0.00000000000E+00 0. -1.
         21   -1    0    0  502  503 -0.00000000000E+00 -0.00000000000E+00 -0.28755303730E+02  0.28755303730E+02  0.00000000000E+00 0. -1.
         25    2    1    2    0    0  0.17264914653E+02 -0.17871567168E+02  0.18632403729E+03  0.22574074357E+03  0.12499906498E+03 0.  0.
          5    1    3    3  501    0  0.24821658120E+02 -0.67073538952E+02  0.74164370509E+02  0.10303076333E+03  0.10000000000E+00 0.  1.
         -5    1    3    3    0  501 -0.75567434672E+01  0.49201971784E+02  0.11215966678E+03  0.12270998024E+03  0.10000000000E+00 0.  1.
         21    1    1    2  504  503 -0.17264914653E+02  0.17871567168E+02  0.80159863951E+01  0.26109887570E+02  0.00000000000E+00 0. -1.
<mgrwt>
<rscale>  1 0.12744503E+03</rscale>
<asrwt>0</asrwt>
<pdfrwt beam="1">  1       21 0.34322357E-01 0.12744503E+03</pdfrwt>
<pdfrwt beam="2">  1       21 0.44238930E-02 0.12744503E+03</pdfrwt>
<totfact> 0.26835737E+06</totfact>
</mgrwt>
</event>
<event>
 6    1  0.4180481E-002  0.1272069E+03  0.7546771E-02  0.1231660E+00
         21   -1    0    0  504  502  0.00000000000E+00  0.00000000000E+00  0.16667614511E+04  0.16667614511E+04  0.00000000000E+00 0. -1.
         21   -1    0    0  502  503 -0.00000000000E+00 -0.00000000000E+00 -0.15318542152E+02  0.15318542152E+02  0.00000000000E+00 0. -1.
         25    2    1    2    0    0 -0.22910776847E+01 -0.23201111929E+02  0.16537655000E+04  0.16586506301E+04  0.12505216148E+03 0.  0.
          5    1    3    3  501    0  0.42280247572E+02 -0.14728531741E+02  0.14092854552E+04  0.14099964727E+04  0.10000000000E+00 0.  1.
         -5    1    3    3    0  501 -0.44571325257E+02 -0.84725801880E+01  0.24448004481E+03  0.24865415734E+03  0.10000000000E+00 0.  1.
         21    1    1    2  504  503  0.22910776847E+01  0.23201111929E+02 -0.23225909957E+01  0.23429363214E+02  0.00000000000E+00 0. -1.
<mgrwt>
<rscale>  1 0.12720685E+03</rscale>
<asrwt>0</asrwt>
<pdfrwt beam="1">  1       21 0.25642470E+00 0.12720685E+03</pdfrwt>
<pdfrwt beam="2">  1       21 0.23567001E-02 0.12720685E+03</pdfrwt>
<totfact> 0.60743847E+04</totfact>
</mgrwt>
</event>
<event>
 6    1  0.4180481E-002  0.1314128E+03  0.7546771E-02  0.1225374E+00
         21   -1    0    0  503  502  0.00000000000E+00  0.00000000000E+00  0.17974008026E+03  0.17974008026E+03  0.00000000000E+00 0. -1.
         21   -1    0    0  504  503 -0.00000000000E+00 -0.00000000000E+00 -0.41433130323E+02  0.41433130323E+02  0.00000000000E+00 0. -1.
         25    2    1    2    0    0  0.90307960509E+01  0.39504231220E+02  0.11363336268E+03  0.17372929138E+03  0.12500874372E+03 0.  0.
          5    1    3    3  501    0  0.13921884620E+02  0.65410790889E+02  0.11013459361E+02  0.67776815529E+02  0.10000000000E+00 0.  1.
         -5    1    3    3    0  501 -0.48910885696E+01 -0.25906559669E+02  0.10261990332E+03  0.10595247585E+03  0.10000000000E+00 0.  1.
         21    1    1    2  504  502 -0.90307960509E+01 -0.39504231220E+02  0.24673587260E+02  0.47443919208E+02  0.00000000000E+00 0. -1.
<mgrwt>
<rscale>  1 0.13141281E+03</rscale>
<asrwt>0</asrwt>
<pdfrwt beam="1">  1       21 0.27652320E-01 0.13141281E+03</pdfrwt>
<pdfrwt beam="2">  1       21 0.63743278E-02 0.13141281E+03</pdfrwt>
<totfact> 0.22051993E+06</totfact>
</mgrwt>
</event>
<event>
 6    1  0.4180481E-002  0.1546838E+03  0.7546771E-02  0.1194833E+00
         21   -1    0    0  503  502  0.00000000000E+00  0.00000000000E+00  0.22672971553E+04  0.22672971553E+04  0.00000000000E+00 0.  1.
         21   -1    0    0  504  503 -0.00000000000E+00 -0.00000000000E+00 -0.66709518993E+01  0.66709518993E+01  0.00000000000E+00 0.  1.
         25    2    1    2    0    0 -0.66609286040E+02 -0.62170643614E+02  0.13815665180E+04  0.13901989538E+04  0.12500040686E+03 0.  0.
          5    1    3    3  501    0 -0.39546606320E+02 -0.36061605410E+02  0.12913552530E+04  0.12924638381E+04  0.10000000000E+00 0.  1.
         -5    1    3    3    0  501 -0.27062679720E+02 -0.26109038204E+02  0.90211265000E+02  0.97735115708E+02  0.10000000000E+00 0.  1.
         21    1    1    2  504  502  0.66609286040E+02  0.62170643614E+02  0.87905968546E+03  0.88376915341E+03  0.00000000000E+00 0.  1.
<mgrwt>
<rscale>  1 0.15468383E+03</rscale>
<asrwt>0</asrwt>
<pdfrwt beam="1">  1       21 0.34881433E+00 0.15468383E+03</pdfrwt>
<pdfrwt beam="2">  1       21 0.10263021E-02 0.15468383E+03</pdfrwt>
<totfact> 0.66631732E+04</totfact>
</mgrwt>
</event>
<event>
 6    1  0.4180481E-002  0.1398235E+03  0.7546771E-02  0.1213567E+00
         21   -1    0    0  503  502  0.00000000000E+00  0.00000000000E+00  0.48215028745E+02  0.48215028745E+02  0.00000000000E+00 0.  1.
         21   -1    0    0  504  503 -0.00000000000E+00 -0.00000000000E+00 -0.73864870825E+03  0.73864870825E+03  0.00000000000E+00 0.  1.
         25    2    1    2    0    0  0.62498055942E+02 -0.44444467400E+01 -0.58068238932E+02  0.15140184944E+03  0.12499935815E+03 0.  0.
          5    1    3    3  501    0  0.75809753711E+02  0.45205417899E+02 -0.33239664300E+02  0.94316137791E+02  0.10000000000E+00 0.  1.
         -5    1    3    3    0  501 -0.13311697768E+02 -0.49649864639E+02 -0.24828574632E+02  0.57085711648E+02  0.10000000000E+00 0.  1.
         21    1    1    2  504  502 -0.62498055942E+02  0.44444467400E+01 -0.63236544057E+03  0.63546188755E+03  0.00000000000E+00 0.  1.
<mgrwt>
<rscale>  1 0.13982346E+03</rscale>
<asrwt>0</asrwt>
<pdfrwt beam="1">  1       21 0.74176968E-02 0.13982346E+03</pdfrwt>
<pdfrwt beam="2">  1       21 0.11363826E+00 0.13982346E+03</pdfrwt>
<totfact> 0.84619456E+04</totfact>
</mgrwt>
</event>
<event>
 6    1  0.4180481E-002  0.1259137E+03  0.7546771E-02  0.1233648E+00
         21   -1    0    0  504  502  0.00000000000E+00  0.00000000000E+00  0.54495987772E+03  0.54495987772E+03  0.00000000000E+00 0.  1.
         21   -1    0    0  502  503 -0.00000000000E+00 -0.00000000000E+00 -0.52810916643E+02  0.52810916643E+02  0.00000000000E+00 0. -1.
         25    2    1    2    0    0  0.26243293101E+01  0.14910720040E+02  0.53641105332E+03  0.55099099653E+03  0.12500017383E+03 0.  0.
          5    1    3    3  501    0  0.82114232687E+01  0.48786760588E+02  0.85553755418E+02  0.98828288191E+02  0.10000000000E+00 0. -1.
         -5    1    3    3    0  501 -0.55870939586E+01 -0.33876040548E+02  0.45085729790E+03  0.45216270834E+03  0.10000000000E+00 0. -1.
         21    1    1    2  504  503 -0.26243293101E+01 -0.14910720040E+02 -0.44262092237E+02  0.46779797837E+02  0.00000000000E+00 0. -1.
<mgrwt>
<rscale>  1 0.12591370E+03</rscale>
<asrwt>0</asrwt>
<pdfrwt beam="1">  1       21 0.83839977E-01 0.12591370E+03</pdfrwt>
<pdfrwt beam="2">  1       21 0.81247568E-02 0.12591370E+03</pdfrwt>
<totfact> 0.14784493E+05</totfact>
</mgrwt>
</event>
<event>
 6    1  0.4180481E-002  0.1679169E+03  0.7546771E-02  0.1180038E+00
         21   -1    0    0  504  502  0.00000000000E+00  0.00000000000E+00  0.72367250070E+03  0.72367250070E+03  0.00000000000E+00 0. -1.
         21   -1    0    0  502  503 -0.00000000000E+00 -0.00000000000E+00 -0.47341869926E+02  0.47341869926E+02  0.00000000000E+00 0. -1.
         25    2    1    2    0    0  0.96131814200E+02 -0.57703059617E+02  0.62597443630E+03  0.64810499299E+03  0.12500047296E+03 0.  0.
          5    1    3    3  501    0  0.12125347581E+02  0.19617611374E+02  0.33104328128E+03  0.33184565510E+03  0.10000000000E+00 0. -1.
         -5    1    3    3    0  501  0.84006466619E+02 -0.77320670992E+02  0.29493115502E+03  0.31625933789E+03  0.10000000000E+00 0. -1.
         21    1    1    2  504  503 -0.96131814200E+02  0.57703059617E+02  0.50356194477E+02  0.12290937764E+03  0.00000000000E+00 0. -1.
<mgrwt>
<rscale>  1 0.16791691E+03</rscale>
<asrwt>0</asrwt>
<pdfrwt beam="1">  1       21 0.11133422E+00 0.16791691E+03</pdfrwt>
<pdfrwt beam="2">  1       21 0.72833651E-02 0.16791691E+03</pdfrwt>
<totfact> 0.90581488E+04</totfact>
</mgrwt>
</event>
<event>
 6    1  0.4180481E-002  0.1283638E+03  0.7546771E-02  0.1229904E+00
         21   -1    0    0  504  502  0.00000000000E+00  0.00000000000E+00  0.40381670319E+02  0.40381670319E+02  0.00000000000E+00 0.  1.
         21   -1    0    0  502  503 -0.00000000000E+00 -0.00000000000E+00 -0.15439917221E+03  0.15439917221E+03  0.00000000000E+00 0.  1.
         25    2    1    2    0    0 -0.27988092469E+02 -0.83632117597E+01 -0.87693330452E+02  0.15545860158E+03  0.12499591981E+03 0.  0.
          5    1    3    3  501    0 -0.23264280263E+02  0.57330659702E+02 -0.34807639664E+02  0.70990232124E+02  0.10000000000E+00 0.  1.
         -5    1    3    3    0  501 -0.47238122056E+01 -0.65693871461E+02 -0.52885690787E+02  0.84468369461E+02  0.10000000000E+00 0.  1.
         21    1    1    2  504  503  0.27988092469E+02  0.83632117597E+01 -0.26324171440E+02  0.39322240945E+02  0.00000000000E+00 0.  1.
<mgrwt>
<rscale>  1 0.12836377E+03</rscale>
<asrwt>0</asrwt>
<pdfrwt beam="1">  1       21 0.62125648E-02 0.12836377E+03</pdfrwt>
<pdfrwt beam="2">  1       21 0.23753718E-01 0.12836377E+03</pdfrwt>
<totfact> 0.30702121E+06</totfact>
</mgrwt>
</event>
<event>
 6    1  0.4180481E-002  0.1260819E+03  0.7546771E-02  0.1233388E+00
         21   -1    0    0  503  502  0.00000000000E+00  0.00000000000E+00  0.38760365154E+03  0.38760365154E+03  0.00000000000E+00 0.  1.
         21   -1    0    0  504  503 -0.00000000000E+00 -0.00000000000E+00 -0.13958523024E+02  0.13958523024E+02  0.00000000000E+00 0.  1.
         25    2    1    2    0    0  0.91135851920E+01  0.13703846118E+02  0.35483117008E+03  0.37656581752E+03  0.12500321128E+03 0.  0.
          5    1    3    3  501    0 -0.40721531393E+02  0.23737483617E+02  0.29183431933E+03  0.29561629046E+03  0.10000000000E+00 0.  1.
         -5    1    3    3    0  501  0.49835116585E+02 -0.10033637499E+02  0.62996850749E+02  0.80949527057E+02  0.10000000000E+00 0.  1.
         21    1    1    2  504  502 -0.91135851920E+01 -0.13703846118E+02  0.18813958438E+02  0.24996357047E+02  0.00000000000E+00 0. -1.
<mgrwt>
<rscale>  1 0.12608194E+03</rscale>
<asrwt>0</asrwt>
<pdfrwt beam="1">  1       21 0.59631323E-01 0.12608194E+03</pdfrwt>
<pdfrwt beam="2">  1       21 0.21474654E-02 0.12608194E+03</pdfrwt>
<totfact> 0.28561902E+06</totfact>
</mgrwt>
</event>
<event>
 6    1  0.4180481E-002  0.1405705E+03  0.7546771E-02  0.1212563E+00
         21   -1    0    0  504  502  0.00000000000E+00  0.00000000000E+00  0.14331065699E+03  0.14331065699E+03  0.00000000000E+00 0.  1.
         21   -1    0    0  502  503 -0.00000000000E+00 -0.00000000000E+00 -0.12171038641E+03  0.12171038641E+03  0.00000000000E+00 0.  1.
         25    2    1    2    0    0  0.58034660187E+02 -0.27578244822E+02  0.93321200734E+02  0.16872736140E+03  0.12502597574E+03 0.  0.
          5    1    3    3  501    0 -0.22667235070E+02 -0.24022144335E+02  0.80400651239E+02  0.86920318015E+02  0.10000000000E+00 0. -1.
         -5    1    3    3    0  501  0.80701895257E+02 -0.35561004869E+01  0.12920549494E+02  0.81807043388E+02  0.10000000000E+00 0. -1.
         21    1    1    2  504  503 -0.58034660187E+02  0.27578244822E+02 -0.71720930152E+02  0.96293681996E+02  0.00000000000E+00 0.  1.
<mgrwt>
<rscale>  1 0.14057054E+03</rscale>
<asrwt>0</asrwt>
<pdfrwt beam="1">  1       21 0.22047793E-01 0.14057054E+03</pdfrwt>
<pdfrwt beam="2">  1       21 0.18724675E-01 0.14057054E+03</pdfrwt>
<totfact> 0.50517459E+05</totfact>
</mgrwt>
</event>
<event>
 6    1  0.4180481E-002  0.1326617E+03  0.7546771E-02  0.1223559E+00
         21   -1    0    0  504  502  0.00000000000E+00  0.00000000000E+00  0.55519432398E+03  0.55519432398E+03  0.00000000000E+00 0.  1.
         21   -1    0    0  502  503 -0.00000000000E+00 -0.00000000000E+00 -0.33449797887E+02  0.33449797887E+02  0.00000000000E+00 0.  1.
         25    2    1    2    0    0 -0.16945381716E+02 -0.41087323330E+02  0.52741123405E+03  0.54383981762E+03  0.12499529321E+03 0.  0.
          5    1    3    3  501    0 -0.42759466254E+02 -0.64611912876E+02  0.19859168971E+03  0.21317068387E+03  0.10000000000E+00 0.  1.
         -5    1    3    3    0  501  0.25814084538E+02  0.23524589546E+02  0.32881954434E+03  0.33066913375E+03  0.10000000000E+00 0.  1.
         21    1    1    2  504  503  0.16945381716E+02  0.41087323330E+02 -0.56667079590E+01  0.44804304247E+02  0.00000000000E+00 0.  1.
<mgrwt>
<rscale>  1 0.13266174E+03</rscale>
<asrwt>0</asrwt>
<pdfrwt beam="1">  1       21 0.85414505E-01 0.13266174E+03</pdfrwt>
<pdfrwt beam="2">  1       21 0.51461232E-02 0.13266174E+03</pdfrwt>
<totfact> 0.30798185E+05</totfact>
</mgrwt>
</event>
<event>
 6    1  0.4180481E-002  0.1358679E+03  0.7546771E-02  0.1219000E+00
         21   -1    0    0  504  502  0.00000000000E+00  0.00000000000E+00  0.21373340089E+02  0.21373340089E+02  0.00000000000E+00 0. -1.
         21   -1    0    0  502  503 -0.00000000000E+00 -0.00000000000E+00 -0.50548069896E+03  0.50548069896E+03  0.00000000000E+00 0. -1.
         25    2    1    2    0    0 -0.16533168963E+02  0.50614165945E+02 -0.22919737490E+03  0.26644236612E+03  0.12499983333E+03 0.  0.
          5    1    3    3  501    0 -0.41011356870E+02  0.42795970404E+02 -0.31581320077E+02  0.67162610528E+02  0.10000000000E+00 0. -1.
         -5    1    3    3    0  501  0.24478187906E+02  0.78181955413E+01 -0.19761605482E+03  0.19927975559E+03  0.10000000000E+00 0. -1.
         21    1    1    2  504  503  0.16533168963E+02 -0.50614165945E+02 -0.25490998397E+03  0.26041167293E+03  0.00000000000E+00 0. -1.
<mgrwt>
<rscale>  1 0.13586794E+03</rscale>
<asrwt>0</asrwt>
<pdfrwt beam="1">  1       21 0.32882061E-02 0.13586794E+03</pdfrwt>
<pdfrwt beam="2">  1       21 0.77766262E-01 0.13586794E+03</pdfrwt>
<totfact> 0.80120125E+05</totfact>
</mgrwt>
</event>
<event>
 6    1  0.4180481E-002  0.1329590E+03  0.7546771E-02  0.1223130E+00
         21   -1    0    0  504  502  0.00000000000E+00  0.00000000000E+00  0.18799431427E+03  0.18799431427E+03  0.00000000000E+00 0.  1.
         21   -1    0    0  502  503 -0.00000000000E+00 -0.00000000000E+00 -0.42429201293E+02  0.42429201293E+02  0.00000000000E+00 0.  1.
         25    2    1    2    0    0  0.40294064458E+02  0.20715358428E+02  0.11475915488E+03  0.17563533473E+03  0.12500147787E+03 0.  0.
          5    1    3    3  501    0 -0.44967405114E+02  0.72797846953E+01  0.50626819531E+02  0.68103947343E+02  0.10000000000E+00 0.  1.
         -5    1    3    3    0  501  0.85261469571E+02  0.13435573733E+02  0.64132335353E+02  0.10753138738E+03  0.10000000000E+00 0.  1.
         21    1    1    2  504  503 -0.40294064458E+02 -0.20715358428E+02  0.30805958093E+02  0.54788180836E+02  0.00000000000E+00 0.  1.
<mgrwt>
<rscale>  1 0.13295904E+03</rscale>
<asrwt>0</asrwt>
<pdfrwt beam="1">  1       21 0.28922202E-01 0.13295904E+03</pdfrwt>
<pdfrwt beam="2">  1       21 0.65275696E-02 0.13295904E+03</pdfrwt>
<totfact> 0.19436411E+06</totfact>
</mgrwt>
</event>
<event>
 6    1  0.4180481E-002  0.1259725E+03  0.7546771E-02  0.1233557E+00
         21   -1    0    0  504  502  0.00000000000E+00  0.00000000000E+00  0.10514415603E+03  0.10514415603E+03  0.00000000000E+00 0.  1.
         21   -1    0    0  502  503 -0.00000000000E+00 -0.00000000000E+00 -0.83824910219E+02  0.83824910219E+02  0.00000000000E+00 0.  1.
         25    2    1    2    0    0 -0.15458526055E+02 -0.16227787933E+01  0.65606986414E+02  0.14203290316E+03  0.12500987751E+03 0.  0.
          5    1    3    3  501    0  0.39212339811E+02  0.32244965670E+02  0.58302638117E+02  0.77308169141E+02  0.10000000000E+00 0.  1.
         -5    1    3    3    0  501 -0.54670865866E+02 -0.33867744463E+02  0.73043482971E+01  0.64724734017E+02  0.10000000000E+00 0.  1.
         21    1    1    2  504  503  0.15458526055E+02  0.16227787933E+01 -0.44287740598E+02  0.46936163095E+02  0.00000000000E+00 0.  1.
<mgrwt>
<rscale>  1 0.12597249E+03</rscale>
<asrwt>0</asrwt>
<pdfrwt beam="1">  1       21 0.16176024E-01 0.12597249E+03</pdfrwt>
<pdfrwt beam="2">  1       21 0.12896140E-01 0.12597249E+03</pdfrwt>
<totfact> 0.17530923E+06</totfact>
</mgrwt>
</event>
<event>
 6    1  0.4180481E-002  0.1281126E+03  0.7546771E-02  0.1230283E+00
         21   -1    0    0  504  502  0.00000000000E+00  0.00000000000E+00  0.83820880652E+03  0.83820880652E+03  0.00000000000E+00 0. -1.
         21   -1    0    0  502  503 -0.00000000000E+00 -0.00000000000E+00 -0.73844649097E+01  0.73844649097E+01  0.00000000000E+00 0. -1.
         25    2    1    2    0    0 -0.11607937313E+02 -0.25663489074E+02  0.71550419594E+03  0.72688314180E+03  0.12497795222E+03 0.  0.
          5    1    3    3  501    0 -0.51645629489E+02 -0.28132875780E+02  0.16960508093E+03  0.17951218126E+03  0.10000000000E+00 0. -1.
         -5    1    3    3    0  501  0.40037692175E+02  0.24693867055E+01  0.54589911501E+03  0.54737096053E+03  0.10000000000E+00 0. -1.
         21    1    1    2  504  503  0.11607937313E+02  0.25663489074E+02  0.11532014567E+03  0.11871012963E+03  0.00000000000E+00 0. -1.
<mgrwt>
<rscale>  1 0.12811264E+03</rscale>
<asrwt>0</asrwt>
<pdfrwt beam="1">  1       21 0.12895513E+00 0.12811264E+03</pdfrwt>
<pdfrwt beam="2">  1       21 0.11360722E-02 0.12811264E+03</pdfrwt>
<totfact> 0.13587927E+06</totfact>
</mgrwt>
</event>
<event>
 6    1  0.4180481E-002  0.1429673E+03  0.7546771E-02  0.1209391E+00
         21   -1    0    0  503  502  0.00000000000E+00  0.00000000000E+00  0.65347261709E+03  0.65347261709E+03  0.00000000000E+00 0.  1.
         21   -1    0    0  504  503 -0.00000000000E+00 -0.00000000000E+00 -0.24961220123E+02  0.24961220123E+02  0.00000000000E+00 0.  1.
         25    2    1    2    0    0 -0.67416139203E+02  0.16366911105E+02  0.57007123136E+03  0.58772515758E+03  0.12500736150E+03 0.  0.
          5    1    3    3  501    0 -0.88683361425E+02 -0.18072429816E+02  0.26609061537E+03  0.28106151800E+03  0.10000000000E+00 0.  1.
         -5    1    3    3    0  501  0.21267222222E+02  0.34439340921E+02  0.30398061599E+03  0.30666363958E+03  0.10000000000E+00 0.  1.
         21    1    1    2  504  502  0.67416139203E+02 -0.16366911105E+02  0.58440165608E+02  0.90708679631E+02  0.00000000000E+00 0.  1.
<mgrwt>
<rscale>  1 0.14296731E+03</rscale>
<asrwt>0</asrwt>
<pdfrwt beam="1">  1       21 0.10053424E+00 0.14296731E+03</pdfrwt>
<pdfrwt beam="2">  1       21 0.38401882E-02 0.14296731E+03</pdfrwt>
<totfact> 0.34431014E+05</totfact>
</mgrwt>
</event>
<event>
 6    1  0.4180481E-002  0.1298814E+03  0.7546771E-02  0.1227632E+00
         21   -1    0    0  503  502  0.00000000000E+00  0.00000000000E+00  0.21935997219E+03  0.21935997219E+03  0.00000000000E+00 0.  1.
         21   -1    0    0  504  503 -0.00000000000E+00 -0.00000000000E+00 -0.11549192398E+03  0.11549192398E+03  0.00000000000E+00 0.  1.
         25    2    1    2    0    0  0.23120222376E+02 -0.26645685747E+02  0.19660442274E+03  0.23563207751E+03  0.12499855862E+03 0.  0.
          5    1    3    3  501    0 -0.29406428139E+02 -0.16825767872E+01  0.16847350527E+03  0.17102894801E+03  0.10000000000E+00 0.  1.
         -5    1    3    3    0  501  0.52526650515E+02 -0.24963108960E+02  0.28130917478E+02  0.64603129502E+02  0.10000000000E+00 0.  1.
         21    1    1    2  504  502 -0.23120222376E+02  0.26645685747E+02 -0.92736374539E+02  0.99219818657E+02  0.00000000000E+00 0.  1.
<mgrwt>
<rscale>  1 0.12988140E+03</rscale>
<asrwt>0</asrwt>
<pdfrwt beam="1">  1       21 0.33747688E-01 0.12988140E+03</pdfrwt>
<pdfrwt beam="2">  1       21 0.17767988E-01 0.12988140E+03</pdfrwt>
<totfact> 0.24692782E+05</totfact>
</mgrwt>
</event>
<event>
 6    1  0.4180481E-002  0.1281694E+03  0.7546771E-02  0.1230198E+00
         21   -1    0    0  504  502  0.00000000000E+00  0.00000000000E+00  0.19837854738E+02  0.19837854738E+02  0.00000000000E+00 0.  1.
         21   -1    0    0  502  503 -0.00000000000E+00 -0.00000000000E+00 -0.30901358796E+03  0.30901358796E+03  0.00000000000E+00 0.  1.
         25    2    1    2    0    0  0.27460259337E+02 -0.70466307502E+01 -0.24053926849E+03  0.27255555875E+03  0.12499468818E+03 0.  0.
          5    1    3    3  501    0  0.14173188078E+02  0.58759785520E+02 -0.10097974665E+03  0.11768819349E+03  0.10000000000E+00 0. -1.
         -5    1    3    3    0  501  0.13287071259E+02 -0.65806416270E+02 -0.13955952184E+03  0.15486736525E+03  0.10000000000E+00 0. -1.
         21    1    1    2  504  503 -0.27460259337E+02  0.70466307502E+01 -0.48636464736E+02  0.56295883951E+02  0.00000000000E+00 0.  1.
<mgrwt>
<rscale>  1 0.12816939E+03</rscale>
<asrwt>0</asrwt>
<pdfrwt beam="1">  1       21 0.30519776E-02 0.12816939E+03</pdfrwt>
<pdfrwt beam="2">  1       21 0.47540553E-01 0.12816939E+03</pdfrwt>
<totfact> 0.25840963E+06</totfact>
</mgrwt>
</event>
<event>
 6    1  0.4180481E-002  0.1359955E+03  0.7546771E-02  0.1218821E+00
         21   -1    0    0  504  502  0.00000000000E+00  0.00000000000E+00  0.43772889842E+02  0.43772889842E+02  0.00000000000E+00 0.  1.
         21   -1    0    0  502  503 -0.00000000000E+00 -0.00000000000E+00 -0.42315887673E+03  0.42315887673E+03  0.00000000000E+00 0.  1.
         25    2    1    2    0    0  0.49943806956E+02  0.19326477478E+02 -0.70015758078E+02  0.15296069297E+03  0.12500748229E+03 0.  0.
          5    1    3    3  501    0  0.69801804672E+02 -0.23515309042E+02 -0.75434086279E+02  0.10543041813E+03  0.10000000000E+00 0.  1.
         -5    1    3    3    0  501 -0.19857997716E+02  0.42841786520E+02  0.54183282017E+01  0.47530274837E+02  0.10000000000E+00 0.  1.
         21    1    1    2  504  503 -0.49943806956E+02 -0.19326477478E+02 -0.30937022881E+03  0.31397107360E+03  0.00000000000E+00 0.  1.
<mgrwt>
<rscale>  1 0.13599547E+03</rscale>
<asrwt>0</asrwt>
<pdfrwt beam="1">  1       21 0.67342909E-02 0.13599547E+03</pdfrwt>
<pdfrwt beam="2">  1       21 0.65101365E-01 0.13599547E+03</pdfrwt>
<totfact> 0.35534418E+05</totfact>
</mgrwt>
</event>
<event>
 6    1  0.4180481E-002  0.1297927E+03  0.7546771E-02  0.1227764E+00
         21   -1    0    0  504  502  0.00000000000E+00  0.00000000000E+00  0.18706248587E+02  0.18706248587E+02  0.00000000000E+00 0.  1.
         21   -1    0    0  502  503 -0.00000000000E+00 -0.00000000000E+00 -0.38681678453E+03  0.38681678453E+03  0.00000000000E+00 0.  1.
         25    2    1    2    0    0 -0.34843067796E+02 -0.31783315814E+01 -0.24151701350E+03  0.27418354519E+03  0.12498802934E+03 0.  0.
          5    1    3    3  501    0 -0.35408397180E+02  0.36797822419E+02 -0.30647992876E+02  0.59557902859E+02  0.10000000000E+00 0. -1.
         -5    1    3    3    0  501  0.56532938466E+00 -0.39976154001E+02 -0.21086902063E+03  0.21462564233E+03  0.10000000000E+00 0. -1.
         21    1    1    2  504  503  0.34843067796E+02  0.31783315814E+01 -0.12659352244E+03  0.13133948793E+03  0.00000000000E+00 0.  1.
<mgrwt>
<rscale>  1 0.12979271E+03</rscale>
<asrwt>0</asrwt>
<pdfrwt beam="1">  1       21 0.28778846E-02 0.12979271E+03</pdfrwt>
<pdfrwt beam="2">  1       21 0.59510271E-01 0.12979271E+03</pdfrwt>
<totfact> 0.17828260E+06</totfact>
</mgrwt>
</event>
<event>
 6    1  0.4180481E-002  0.1259806E+03  0.7546771E-02  0.1233545E+00
         21   -1    0    0  503  502  0.00000000000E+00  0.00000000000E+00  0.44014950751E+02  0.44014950751E+02  0.00000000000E+00 0.  1.
         21   -1    0    0  504  503 -0.00000000000E+00 -0.00000000000E+00 -0.11923337668E+03  0.11923337668E+03  0.00000000000E+00 0.  1.
         25    2    1    2    0    0 -0.15462327911E+02  0.22210838353E+01 -0.54408031052E+02  0.13722738716E+03  0.12500842030E+03 0.  0.
          5    1    3    3  501    0 -0.40193709480E+02 -0.48439625239E+02 -0.50533717182E+02  0.80719255121E+02  0.10000000000E+00 0.  1.
         -5    1    3    3    0  501  0.24731381569E+02  0.50660709074E+02 -0.38743138695E+01  0.56508132036E+02  0.10000000000E+00 0.  1.
         21    1    1    2  504  502  0.15462327911E+02 -0.22210838353E+01 -0.20810394879E+02  0.26020940276E+02  0.00000000000E+00 0.  1.
<mgrwt>
<rscale>  1 0.12598064E+03</rscale>
<asrwt>0</asrwt>
<pdfrwt beam="1">  1       21 0.67715310E-02 0.12598064E+03</pdfrwt>
<pdfrwt beam="2">  1       21 0.18343596E-01 0.12598064E+03</pdfrwt>
<totfact> 0.42797851E+06</totfact>
</mgrwt>
</event>
<event>
 6    1  0.4180481E-002  0.1305715E+03  0.7546771E-02  0.1226610E+00
         21   -1    0    0  503  502  0.00000000000E+00  0.00000000000E+00  0.26771800050E+03  0.26771800050E+03  0.00000000000E+00 0.  1.
         21   -1    0    0  504  503 -0.00000000000E+00 -0.00000000000E+00 -0.28893216320E+02  0.28893216320E+02  0.00000000000E+00 0.  1.
         25    2    1    2    0    0 -0.22742895979E+02  0.29983849031E+02  0.21658066215E+03  0.25289541321E+03  0.12503054142E+03 0.  0.
          5    1    3    3  501    0 -0.30157804480E+02  0.32646286195E+02  0.92266818475E+01  0.45391792554E+02  0.10000000000E+00 0. -1.
         -5    1    3    3    0  501  0.74149085010E+01 -0.26624371634E+01  0.20735398030E+03  0.20750362066E+03  0.10000000000E+00 0. -1.
         21    1    1    2  504  502  0.22742895979E+02 -0.29983849031E+02  0.22244122036E+02  0.43715803611E+02  0.00000000000E+00 0.  1.
<mgrwt>
<rscale>  1 0.13057146E+03</rscale>
<asrwt>0</asrwt>
<pdfrwt beam="1">  1       21 0.41187383E-01 0.13057146E+03</pdfrwt>
<pdfrwt beam="2">  1       21 0.44451104E-02 0.13057146E+03</pdfrwt>
<totfact> 0.18558669E+06</totfact>
</mgrwt>
</event>
<event>
 6    1  0.4180481E-002  0.1263752E+03  0.7546771E-02  0.1232936E+00
         21   -1    0    0  504  502  0.00000000000E+00  0.00000000000E+00  0.19098964850E+02  0.19098964850E+02  0.00000000000E+00 0. -1.
         21   -1    0    0  502  503 -0.00000000000E+00 -0.00000000000E+00 -0.27839784775E+03  0.27839784775E+03  0.00000000000E+00 0. -1.
         25    2    1    2    0    0 -0.12719297755E+02 -0.13642369996E+02 -0.21433095389E+03  0.24881406993E+03  0.12499115491E+03 0.  0.
          5    1    3    3  501    0 -0.38770820157E+02 -0.37277474897E+02 -0.30875624773E+02  0.62016939907E+02  0.10000000000E+00 0.  1.
         -5    1    3    3    0  501  0.26051522402E+02  0.23635104901E+02 -0.18345532912E+03  0.18679713003E+03  0.10000000000E+00 0.  1.
         21    1    1    2  504  503  0.12719297755E+02  0.13642369996E+02 -0.44967929001E+02  0.48682742663E+02  0.00000000000E+00 0. -1.
<mgrwt>
<rscale>  1 0.12637517E+03</rscale>
<asrwt>0</asrwt>
<pdfrwt beam="1">  1       21 0.29383022E-02 0.12637517E+03</pdfrwt>
<pdfrwt beam="2">  1       21 0.42830440E-01 0.12637517E+03</pdfrwt>
<totfact> 0.33978441E+06</totfact>
</mgrwt>
</event>
<event>
 6    1  0.4180481E-002  0.1258993E+03  0.7546771E-02  0.1233670E+00
         21   -1    0    0  503  502  0.00000000000E+00  0.00000000000E+00  0.99660166710E+02  0.99660166710E+02  0.00000000000E+00 0.  1.
         21   -1    0    0  504  503 -0.00000000000E+00 -0.00000000000E+00 -0.51686864414E+02  0.51686864414E+02  0.00000000000E+00 0.  1.
         25    2    1    2    0    0  0.45170968997E+01 -0.14341812102E+02  0.51295480276E+02  0.13594805047E+03  0.12499821755E+03 0.  0.
          5    1    3    3  501    0 -0.25386338956E+02  0.45755043042E+02  0.14618371064E+01  0.52346319231E+02  0.10000000000E+00 0. -1.
         -5    1    3    3    0  501  0.29903435855E+02 -0.60096855143E+02  0.49833643169E+02  0.83601731235E+02  0.10000000000E+00 0. -1.
         21    1    1    2  504  502 -0.45170968997E+01  0.14341812102E+02 -0.33221779803E+01  0.15398980658E+02  0.00000000000E+00 0. -1.
<mgrwt>
<rscale>  1 0.12589935E+03</rscale>
<asrwt>0</asrwt>
<pdfrwt beam="1">  1       21 0.15332333E-01 0.12589935E+03</pdfrwt>
<pdfrwt beam="2">  1       21 0.79518253E-02 0.12589935E+03</pdfrwt>
<totfact> 0.45017698E+06</totfact>
</mgrwt>
</event>
<event>
 6    1  0.4180481E-002  0.1265284E+03  0.7546771E-02  0.1232700E+00
         21   -1    0    0  503  502  0.00000000000E+00  0.00000000000E+00  0.12585838413E+02  0.12585838413E+02  0.00000000000E+00 0. -1.
         21   -1    0    0  504  503 -0.00000000000E+00 -0.00000000000E+00 -0.12836726738E+04  0.12836726738E+04  0.00000000000E+00 0. -1.
         25    2    1    2    0    0 -0.14186423874E+02 -0.13520231558E+02 -0.30805790372E+03  0.33303020360E+03  0.12500157272E+03 0.  0.
          5    1    3    3  501    0  0.11611201179E+02  0.53432709561E+02 -0.12678820428E+03  0.13807654829E+03  0.10000000000E+00 0. -1.
         -5    1    3    3    0  501 -0.25797625053E+02 -0.66952941119E+02 -0.18126969944E+03  0.19495365531E+03  0.10000000000E+00 0. -1.
         21    1    1    2  504  502  0.14186423874E+02  0.13520231558E+02 -0.96302893162E+03  0.96322830857E+03  0.00000000000E+00 0. -1.
<mgrwt>
<rscale>  1 0.12652843E+03</rscale>
<asrwt>0</asrwt>
<pdfrwt beam="1">  1       21 0.19362827E-02 0.12652843E+03</pdfrwt>
<pdfrwt beam="2">  1       21 0.19748811E+00 0.12652843E+03</pdfrwt>
<totfact> 0.18721537E+05</totfact>
</mgrwt>
</event>
<event>
 6    1  0.4180481E-002  0.1306603E+03  0.7546771E-02  0.1226479E+00
         21   -1    0    0  504  502  0.00000000000E+00  0.00000000000E+00  0.20834553271E+03  0.20834553271E+03  0.00000000000E+00 0.  1.
         21   -1    0    0  502  503 -0.00000000000E+00 -0.00000000000E+00 -0.35306769899E+02  0.35306769899E+02  0.00000000000E+00 0.  1.
         25    2    1    2    0    0 -0.32614978280E+02 -0.19436118962E+02  0.11368847264E+03  0.17319695169E+03  0.12502246093E+03 0.  0.
          5    1    3    3  501    0 -0.44118921320E+01  0.31316444168E+02 -0.12722655770E+02  0.34089007574E+02  0.10000000000E+00 0.  1.
         -5    1    3    3    0  501 -0.28203086148E+02 -0.50752563130E+02  0.12641112841E+03  0.13910794412E+03  0.10000000000E+00 0.  1.
         21    1    1    2  504  503  0.32614978280E+02  0.19436118962E+02  0.59350290174E+02  0.70455350913E+02  0.00000000000E+00 0.  1.
<mgrwt>
<rscale>  1 0.13066030E+03</rscale>
<asrwt>0</asrwt>
<pdfrwt beam="1">  1       21 0.32053158E-01 0.13066030E+03</pdfrwt>
<pdfrwt beam="2">  1       21 0.54318109E-02 0.13066030E+03</pdfrwt>
<totfact> 0.21749793E+06</totfact>
</mgrwt>
</event>
<event>
 6    1  0.4180481E-002  0.1472997E+03  0.7546771E-02  0.1203831E+00
         21   -1    0    0  503  502  0.00000000000E+00  0.00000000000E+00  0.76504986143E+03  0.76504986143E+03  0.00000000000E+00 0. -1.
         21   -1    0    0  504  503 -0.00000000000E+00 -0.00000000000E+00 -0.26041623816E+02  0.26041623816E+02  0.00000000000E+00 0. -1.
         25    2    1    2    0    0  0.44103888966E+02  0.64242477221E+02  0.67310929475E+03  0.68903797197E+03  0.12499982094E+03 0.  0.
          5    1    3    3  501    0  0.48058783121E+02  0.38469443494E+01  0.54737829114E+03  0.54949745152E+03  0.10000000000E+00 0.  1.
         -5    1    3    3    0  501 -0.39548941558E+01  0.60395532871E+02  0.12573100362E+03  0.13954052045E+03  0.10000000000E+00 0.  1.
         21    1    1    2  504  502 -0.44103888966E+02 -0.64242477221E+02  0.65898942862E+02  0.10205351327E+03  0.00000000000E+00 0. -1.
<mgrwt>
<rscale>  1 0.14729971E+03</rscale>
<asrwt>0</asrwt>
<pdfrwt beam="1">  1       21 0.11769996E+00 0.14729971E+03</pdfrwt>
<pdfrwt beam="2">  1       21 0.40064042E-02 0.14729971E+03</pdfrwt>
<totfact> 0.21978320E+05</totfact>
</mgrwt>
</event>
<event>
 6    1  0.4180481E-002  0.1267682E+03  0.7546771E-02  0.1232331E+00
         21   -1    0    0  504  502  0.00000000000E+00  0.00000000000E+00  0.28727849871E+03  0.28727849871E+03  0.00000000000E+00 0. -1.
         21   -1    0    0  502  503 -0.00000000000E+00 -0.00000000000E+00 -0.19010053822E+02  0.19010053822E+02  0.00000000000E+00 0. -1.
         25    2    1    2    0    0  0.19197667290E+02  0.85689548580E+01  0.22897734738E+03  0.26172659836E+03  0.12501283636E+03 0.  0.
          5    1    3    3  501    0 -0.33961297796E+02  0.14263194154E+02  0.19484651298E+03  0.19829771072E+03  0.10000000000E+00 0. -1.
         -5    1    3    3    0  501  0.53158965086E+02 -0.56942392961E+01  0.34130834406E+02  0.63428887642E+02  0.10000000000E+00 0. -1.
         21    1    1    2  504  503 -0.19197667290E+02 -0.85689548580E+01  0.39291097506E+02  0.44561954176E+02  0.00000000000E+00 0. -1.
<mgrwt>
<rscale>  1 0.12676824E+03</rscale>
<asrwt>0</asrwt>
<pdfrwt beam="1">  1       21 0.44196689E-01 0.12676824E+03</pdfrwt>
<pdfrwt beam="2">  1       21 0.29246239E-02 0.12676824E+03</pdfrwt>
<totfact> 0.32137081E+06</totfact>
</mgrwt>
</event>
<event>
 6    1  0.4180481E-002  0.1297092E+03  0.7546771E-02  0.1227888E+00
         21   -1    0    0  504  502  0.00000000000E+00  0.00000000000E+00  0.86913676733E+03  0.86913676733E+03  0.00000000000E+00 0. -1.
         21   -1    0    0  502  503 -0.00000000000E+00 -0.00000000000E+00 -0.82011908324E+01  0.82011908324E+01  0.00000000000E+00 0. -1.
         25    2    1    2    0    0 -0.34633410384E+02 -0.17415513170E+01  0.74918799341E+03  0.76033356319E+03  0.12498788636E+03 0.  0.
          5    1    3    3  501    0  0.42499284242E+02  0.10599919251E+02  0.15628355294E+03  0.16230559562E+03  0.10000000000E+00 0. -1.
         -5    1    3    3    0  501 -0.77132694626E+02 -0.12341470568E+02  0.59290444047E+03  0.59802796757E+03  0.10000000000E+00 0. -1.
         21    1    1    2  504  503  0.34633410384E+02  0.17415513170E+01  0.11174758310E+03  0.11700439498E+03  0.00000000000E+00 0. -1.
<mgrwt>
<rscale>  1 0.12970920E+03</rscale>
<asrwt>0</asrwt>
<pdfrwt beam="1">  1       21 0.13371328E+00 0.12970920E+03</pdfrwt>
<pdfrwt beam="2">  1       21 0.12617224E-02 0.12970920E+03</pdfrwt>
<totfact> 0.10512551E+06</totfact>
</mgrwt>
</event>
<event>
 6    1  0.4180481E-002  0.1368223E+03  0.7546771E-02  0.1217670E+00
         21   -1    0    0  503  502  0.00000000000E+00  0.00000000000E+00  0.45450932753E+03  0.45450932753E+03  0.00000000000E+00 0. -1.
         21   -1    0    0  504  503 -0.00000000000E+00 -0.00000000000E+00 -0.24027764750E+02  0.24027764750E+02  0.00000000000E+00 0. -1.
         25    2    1    2    0    0 -0.49998023492E+02 -0.24419448393E+02  0.20626125923E+03  0.24751575921E+03  0.12499692869E+03 0.  0.
          5    1    3    3  501    0  0.33692712944E+02 -0.30654599515E+02  0.37354660476E+02  0.58909116749E+02  0.10000000000E+00 0. -1.
         -5    1    3    3    0  501 -0.83690736437E+02  0.62351511219E+01  0.16890659876E+03  0.18860664246E+03  0.10000000000E+00 0. -1.
         21    1    1    2  504  502  0.49998023492E+02  0.24419448393E+02  0.22422030354E+03  0.23102133307E+03  0.00000000000E+00 0. -1.
<mgrwt>
<rscale>  1 0.13682231E+03</rscale>
<asrwt>0</asrwt>
<pdfrwt beam="1">  1       21 0.69924505E-01 0.13682231E+03</pdfrwt>
<pdfrwt beam="2">  1       21 0.36965795E-02 0.13682231E+03</pdfrwt>
<totfact> 0.83453479E+05</totfact>
</mgrwt>
</event>
<event>
 6    1  0.4180481E-002  0.1283003E+03  0.7546771E-02  0.1230000E+00
         21   -1    0    0  503  502  0.00000000000E+00  0.00000000000E+00  0.58403867255E+02  0.58403867255E+02  0.00000000000E+00 0.  1.
         21   -1    0    0  504  503 -0.00000000000E+00 -0.00000000000E+00 -0.12830725311E+03  0.12830725311E+03  0.00000000000E+00 0.  1.
         25    2    1    2    0    0  0.25854383128E+02 -0.12940775933E+02 -0.21153364938E+02  0.13003239995E+03  0.12500018952E+03 0.  0.
          5    1    3    3  501    0  0.26881537878E+02  0.47813089636E+02  0.18021037084E+02  0.57736265872E+02  0.10000000000E+00 0.  1.
         -5    1    3    3    0  501 -0.10271547500E+01 -0.60753865569E+02 -0.39174402022E+02  0.72296134076E+02  0.10000000000E+00 0.  1.
         21    1    1    2  504  502 -0.25854383128E+02  0.12940775933E+02 -0.48750020920E+02  0.56678720419E+02  0.00000000000E+00 0.  1.
<mgrwt>
<rscale>  1 0.12830027E+03</rscale>
<asrwt>0</asrwt>
<pdfrwt beam="1">  1       21 0.89852105E-02 0.12830027E+03</pdfrwt>
<pdfrwt beam="2">  1       21 0.19739577E-01 0.12830027E+03</pdfrwt>
<totfact> 0.23000235E+06</totfact>
</mgrwt>
</event>
<event>
 6    1  0.4180481E-002  0.1352132E+03  0.7546771E-02  0.1219919E+00
         21   -1    0    0  503  502  0.00000000000E+00  0.00000000000E+00  0.27717419567E+02  0.27717419567E+02  0.00000000000E+00 0. -1.
         21   -1    0    0  504  503 -0.00000000000E+00 -0.00000000000E+00 -0.67643744610E+03  0.67643744610E+03  0.00000000000E+00 0. -1.
         25    2    1    2    0    0 -0.32247344674E+02  0.40211508776E+02 -0.14674828833E+03  0.19954364638E+03  0.12500299999E+03 0.  0.
          5    1    3    3  501    0 -0.34839233473E+02  0.12587257244E+01  0.11376197713E+02  0.36671302865E+02  0.10000000000E+00 0. -1.
         -5    1    3    3    0  501  0.25918887983E+01  0.38952783052E+02 -0.15812448604E+03  0.16287234351E+03  0.10000000000E+00 0. -1.
         21    1    1    2  504  502  0.32247344674E+02 -0.40211508776E+02 -0.50197173820E+03  0.50461121929E+03  0.00000000000E+00 0. -1.
<mgrwt>
<rscale>  1 0.13521319E+03</rscale>
<asrwt>0</asrwt>
<pdfrwt beam="1">  1       21 0.42642185E-02 0.13521319E+03</pdfrwt>
<pdfrwt beam="2">  1       21 0.10406730E+00 0.13521319E+03</pdfrwt>
<totfact> 0.26703033E+05</totfact>
</mgrwt>
</event>
<event>
 6    1  0.4180481E-002  0.1276810E+03  0.7546771E-02  0.1230938E+00
         21   -1    0    0  503  502  0.00000000000E+00  0.00000000000E+00  0.60620780773E+03  0.60620780773E+03  0.00000000000E+00 0.  1.
         21   -1    0    0  504  503 -0.00000000000E+00 -0.00000000000E+00 -0.13127683063E+02  0.13127683063E+02  0.00000000000E+00 0.  1.
         25    2    1    2    0    0  0.67418298397E+01 -0.25394187410E+02  0.57074103790E+03  0.58484851033E+03  0.12494851208E+03 0.  0.
          5    1    3    3  501    0 -0.41655675717E+02 -0.37530449837E+02  0.45976807634E+03  0.46317429117E+03  0.10000000000E+00 0. -1.
         -5    1    3    3    0  501  0.48397505557E+02  0.12136262427E+02  0.11097296156E+03  0.12167421916E+03  0.10000000000E+00 0. -1.
         21    1    1    2  504  502 -0.67418298397E+01  0.25394187410E+02  0.22339086769E+02  0.34486980464E+02  0.00000000000E+00 0.  1.
<mgrwt>
<rscale>  1 0.12768104E+03</rscale>
<asrwt>0</asrwt>
<pdfrwt beam="1">  1       21 0.93262718E-01 0.12768104E+03</pdfrwt>
<pdfrwt beam="2">  1       21 0.20196440E-02 0.12768104E+03</pdfrwt>
<totfact> 0.11758523E+06</totfact>
</mgrwt>
</event>
<event>
 6    1  0.4180481E-002  0.1287692E+03  0.7546771E-02  0.1229293E+00
         21   -1    0    0  503  502  0.00000000000E+00  0.00000000000E+00  0.31239211357E+03  0.31239211357E+03  0.00000000000E+00 0.  1.
         21   -1    0    0  504  503 -0.00000000000E+00 -0.00000000000E+00 -0.22774069076E+02  0.22774069076E+02  0.00000000000E+00 0.  1.
         25    2    1    2    0    0  0.28584930777E+02  0.11752510569E+02  0.18029064492E+03  0.22155412312E+03  0.12500517211E+03 0.  0.
          5    1    3    3  501    0 -0.32492363536E+02 -0.75832591099E+01  0.35421379161E+01  0.33553185361E+02  0.10000000000E+00 0.  1.
         -5    1    3    3    0  501  0.61077294314E+02  0.19335769679E+02  0.17674850701E+03  0.18800093776E+03  0.10000000000E+00 0.  1.
         21    1    1    2  504  502 -0.28584930777E+02 -0.11752510569E+02  0.10932739957E+03  0.11361205952E+03  0.00000000000E+00 0.  1.
<mgrwt>
<rscale>  1 0.12876922E+03</rscale>
<asrwt>0</asrwt>
<pdfrwt beam="1">  1       21 0.48060322E-01 0.12876922E+03</pdfrwt>
<pdfrwt beam="2">  1       21 0.35037032E-02 0.12876922E+03</pdfrwt>
<totfact> 0.20137747E+06</totfact>
</mgrwt>
</event>
<event>
 6    1  0.4180481E-002  0.1262699E+03  0.7546771E-02  0.1233098E+00
         21   -1    0    0  504  502  0.00000000000E+00  0.00000000000E+00  0.74406165574E+03  0.74406165574E+03  0.00000000000E+00 0. -1.
         21   -1    0    0  502  503 -0.00000000000E+00 -0.00000000000E+00 -0.11436659341E+02  0.11436659341E+02  0.00000000000E+00 0. -1.
         25    2    1    2    0    0  0.53421616717E+01 -0.17063440777E+02  0.72524475898E+03  0.73615490259E+03  0.12499752187E+03 0.  0.
          5    1    3    3  501    0 -0.40749882306E+02  0.31552966802E+02  0.44688478687E+03  0.44984682432E+03  0.10000000000E+00 0. -1.
         -5    1    3    3    0  501  0.46092043978E+02 -0.48616407578E+02  0.27835997211E+03  0.28630807826E+03  0.10000000000E+00 0. -1.
         21    1    1    2  504  503 -0.53421616717E+01  0.17063440777E+02  0.73802374150E+01  0.19343412490E+02  0.00000000000E+00 0. -1.
<mgrwt>
<rscale>  1 0.12626987E+03</rscale>
<asrwt>0</asrwt>
<pdfrwt beam="1">  1       21 0.11447099E+00 0.12626987E+03</pdfrwt>
<pdfrwt beam="2">  1       21 0.17594866E-02 0.12626987E+03</pdfrwt>
<totfact> 0.90581618E+05</totfact>
</mgrwt>
</event>
<event>
 6    1  0.4180481E-002  0.1265660E+03  0.7546771E-02  0.1232642E+00
         21   -1    0    0  503  502  0.00000000000E+00  0.00000000000E+00  0.11023023052E+03  0.11023023052E+03  0.00000000000E+00 0. -1.
         21   -1    0    0  504  503 -0.00000000000E+00 -0.00000000000E+00 -0.86651884857E+02  0.86651884857E+02  0.00000000000E+00 0. -1.
         25    2    1    2    0    0 -0.83228286211E+01  0.18014218281E+02  0.71251604279E+02  0.14524374667E+03  0.12500069319E+03 0.  0.
          5    1    3    3  501    0 -0.32416673401E+02  0.31325205322E+02 -0.20449376705E+02  0.49500466770E+02  0.10000000000E+00 0. -1.
         -5    1    3    3    0  501  0.24093844780E+02 -0.13310987041E+02  0.91700980984E+02  0.95743279899E+02  0.10000000000E+00 0. -1.
         21    1    1    2  504  502  0.83228286211E+01 -0.18014218281E+02 -0.47673258613E+02  0.51638368712E+02  0.00000000000E+00 0. -1.
<mgrwt>
<rscale>  1 0.12656601E+03</rscale>
<asrwt>0</asrwt>
<pdfrwt beam="1">  1       21 0.16958497E-01 0.12656601E+03</pdfrwt>
<pdfrwt beam="2">  1       21 0.13331059E-01 0.12656601E+03</pdfrwt>
<totfact> 0.15167206E+06</totfact>
</mgrwt>
</event>
<event>
 6    1  0.4180481E-002  0.1261123E+03  0.7546771E-02  0.1233341E+00
         21   -1    0    0  503  502  0.00000000000E+00  0.00000000000E+00  0.24194984287E+03  0.24194984287E+03  0.00000000000E+00 0.  1.
         21   -1    0    0  504  503 -0.00000000000E+00 -0.00000000000E+00 -0.21487627474E+02  0.21487627474E+02  0.00000000000E+00 0.  1.
         25    2    1    2    0    0  0.15082176778E+02 -0.71852175280E+01  0.20493490630E+03  0.24062964854E+03  0.12500085013E+03 0.  0.
          5    1    3    3  501    0  0.15000744767E+02 -0.32996748740E+02  0.22592525476E+01  0.36316965637E+02  0.10000000000E+00 0. -1.
         -5    1    3    3    0  501  0.81432010783E-01  0.25811531212E+02  0.20267565375E+03  0.20431268291E+03  0.10000000000E+00 0. -1.
         21    1    1    2  504  502 -0.15082176778E+02  0.71852175280E+01  0.15527309098E+02  0.22807821797E+02  0.00000000000E+00 0. -1.
<mgrwt>
<rscale>  1 0.12611230E+03</rscale>
<asrwt>0</asrwt>
<pdfrwt beam="1">  1       21 0.37223051E-01 0.12611230E+03</pdfrwt>
<pdfrwt beam="2">  1       21 0.33057890E-02 0.12611230E+03</pdfrwt>
<totfact> 0.37055707E+06</totfact>
</mgrwt>
</event>
<event>
 6    1  0.4180481E-002  0.1264019E+03  0.7546771E-02  0.1232894E+00
         21   -1    0    0  504  502  0.00000000000E+00  0.00000000000E+00  0.10397543801E+03  0.10397543801E+03  0.00000000000E+00 0. -1.
         21   -1    0    0  502  503 -0.00000000000E+00 -0.00000000000E+00 -0.58315597960E+02  0.58315597960E+02  0.00000000000E+00 0. -1.
         25    2    1    2    0    0 -0.18712723974E+02 -0.16851696456E+01  0.58754199501E+02  0.13938976777E+03  0.12499778224E+03 0.  0.
          5    1    3    3  501    0  0.53326586293E+02 -0.24515296859E+01  0.16526459301E+02  0.55882632906E+02  0.10000000000E+00 0. -1.
         -5    1    3    3    0  501 -0.72039310267E+02  0.76636004035E+00  0.42227740200E+02  0.83507134868E+02  0.10000000000E+00 0. -1.
         21    1    1    2  504  503  0.18712723974E+02  0.16851696456E+01 -0.13094359456E+02  0.22901268192E+02  0.00000000000E+00 0.  1.
<mgrwt>
<rscale>  1 0.12640194E+03</rscale>
<asrwt>0</asrwt>
<pdfrwt beam="1">  1       21 0.15996221E-01 0.12640194E+03</pdfrwt>
<pdfrwt beam="2">  1       21 0.89716305E-02 0.12640194E+03</pdfrwt>
<totfact> 0.33851698E+06</totfact>
</mgrwt>
</event>
<event>
 6    1  0.4180481E-002  0.1300781E+03  0.7546771E-02  0.1227340E+00
         21   -1    0    0  504  502  0.00000000000E+00  0.00000000000E+00  0.11081309932E+03  0.11081309932E+03  0.00000000000E+00 0.  1.
         21   -1    0    0  502  503 -0.00000000000E+00 -0.00000000000E+00 -0.81435210655E+02  0.81435210655E+02  0.00000000000E+00 0.  1.
         25    2    1    2    0    0  0.31704282371E+02 -0.17035346368E+02  0.61612848766E+02  0.14393208910E+03  0.12499975438E+03 0.  0.
          5    1    3    3  501    0  0.14976249131E+02 -0.57463531810E+02  0.77278775338E+02  0.97459553886E+02  0.10000000000E+00 0.  1.
         -5    1    3    3    0  501  0.16728033240E+02  0.40428185442E+02 -0.15665926571E+02  0.46472535218E+02  0.10000000000E+00 0.  1.
         21    1    1    2  504  503 -0.31704282371E+02  0.17035346368E+02 -0.32234960102E+02  0.48316220871E+02  0.00000000000E+00 0. -1.
<mgrwt>
<rscale>  1 0.13007807E+03</rscale>
<asrwt>0</asrwt>
<pdfrwt beam="1">  1       21 0.17048169E-01 0.13007807E+03</pdfrwt>
<pdfrwt beam="2">  1       21 0.12528494E-01 0.13007807E+03</pdfrwt>
<totfact> 0.16789659E+06</totfact>
</mgrwt>
</event>
<event>
 6    1  0.4180481E-002  0.1262860E+03  0.7546771E-02  0.1233073E+00
         21   -1    0    0  504  502  0.00000000000E+00  0.00000000000E+00  0.20649040339E+02  0.20649040339E+02  0.00000000000E+00 0.  1.
         21   -1    0    0  502  503 -0.00000000000E+00 -0.00000000000E+00 -0.25516622612E+03  0.25516622612E+03  0.00000000000E+00 0.  1.
         25    2    1    2    0    0  0.10401756848E+02  0.14628173644E+02 -0.21462345601E+03  0.24902085484E+03  0.12500391301E+03 0.  0.
          5    1    3    3  501    0  0.49805526444E+02  0.26513519210E+02 -0.19579213747E+03  0.20375997709E+03  0.10000000000E+00 0. -1.
         -5    1    3    3    0  501 -0.39403769596E+02 -0.11885345565E+02 -0.18831318535E+02  0.45260877757E+02  0.10000000000E+00 0. -1.
         21    1    1    2  504  503 -0.10401756848E+02 -0.14628173644E+02 -0.19893729777E+02  0.26794411621E+02  0.00000000000E+00 0.  1.
<mgrwt>
<rscale>  1 0.12628602E+03</rscale>
<asrwt>0</asrwt>
<pdfrwt beam="1">  1       21 0.31767754E-02 0.12628602E+03</pdfrwt>
<pdfrwt beam="2">  1       21 0.39256343E-01 0.12628602E+03</pdfrwt>
<totfact> 0.35601128E+06</totfact>
</mgrwt>
</event>
<event>
 6    1  0.4180481E-002  0.1325941E+03  0.7546771E-02  0.1223657E+00
         21   -1    0    0  504  502  0.00000000000E+00  0.00000000000E+00  0.67135122649E+02  0.67135122649E+02  0.00000000000E+00 0.  1.
         21   -1    0    0  502  503 -0.00000000000E+00 -0.00000000000E+00 -0.12063343499E+03  0.12063343499E+03  0.00000000000E+00 0.  1.
         25    2    1    2    0    0  0.32819117156E+02  0.29664608353E+02 -0.24407567042E+02  0.13482184007E+03  0.12499646311E+03 0.  0.
          5    1    3    3  501    0  0.20399738315E+02  0.78979637000E+02 -0.11732265694E+02  0.82411094170E+02  0.10000000000E+00 0.  1.
         -5    1    3    3    0  501  0.12419378841E+02 -0.49315028647E+02 -0.12675301348E+02  0.52410745897E+02  0.10000000000E+00 0.  1.
         21    1    1    2  504  503 -0.32819117156E+02 -0.29664608353E+02 -0.29090745297E+02  0.52946717572E+02  0.00000000000E+00 0.  1.
<mgrwt>
<rscale>  1 0.13259411E+03</rscale>
<asrwt>0</asrwt>
<pdfrwt beam="1">  1       21 0.10328480E-01 0.13259411E+03</pdfrwt>
<pdfrwt beam="2">  1       21 0.18558990E-01 0.13259411E+03</pdfrwt>
<totfact> 0.20224479E+06</totfact>
</mgrwt>
</event>
<event>
 6    1  0.4180481E-002  0.1278251E+03  0.7546771E-02  0.1230719E+00
         21   -1    0    0  503  502  0.00000000000E+00  0.00000000000E+00  0.61717228493E+02  0.61717228493E+02  0.00000000000E+00 0. -1.
         21   -1    0    0  504  503 -0.00000000000E+00 -0.00000000000E+00 -0.34228234600E+03  0.34228234600E+03  0.00000000000E+00 0. -1.
         25    2    1    2    0    0 -0.29606504792E+01 -0.26569543235E+02 -0.58207113620E+01  0.12795755815E+03  0.12499819970E+03 0.  0.
          5    1    3    3  501    0 -0.58191105160E+02 -0.33244872069E+02 -0.21106619166E+02  0.70263259327E+02  0.10000000000E+00 0. -1.
         -5    1    3    3    0  501  0.55230454681E+02  0.66753288339E+01  0.15285907804E+02  0.57694298823E+02  0.10000000000E+00 0. -1.
         21    1    1    2  504  502  0.29606504792E+01  0.26569543235E+02 -0.27474440614E+03  0.27604201634E+03  0.00000000000E+00 0. -1.
<mgrwt>
<rscale>  1 0.12782510E+03</rscale>
<asrwt>0</asrwt>
<pdfrwt beam="1">  1       21 0.94949581E-02 0.12782510E+03</pdfrwt>
<pdfrwt beam="2">  1       21 0.52658823E-01 0.12782510E+03</pdfrwt>
<totfact> 0.30819762E+05</totfact>
</mgrwt>
</event>
<event>
 6    1  0.4180481E-002  0.1327401E+03  0.7546771E-02  0.1223446E+00
         21   -1    0    0  504  502  0.00000000000E+00  0.00000000000E+00  0.10177600458E+03  0.10177600458E+03  0.00000000000E+00 0.  1.
         21   -1    0    0  502  503 -0.00000000000E+00 -0.00000000000E+00 -0.77412265962E+02  0.77412265962E+02  0.00000000000E+00 0.  1.
         25    2    1    2    0    0  0.19404280852E+02  0.40204356013E+02  0.15112137975E+02  0.13359760842E+03  0.12500811136E+03 0.  0.
          5    1    3    3  501    0 -0.19939573642E+02  0.63817471244E+02 -0.26242743824E+02  0.71825815946E+02  0.10000000000E+00 0.  1.
         -5    1    3    3    0  501  0.39343854494E+02 -0.23613115230E+02  0.41354881799E+02  0.61771792478E+02  0.10000000000E+00 0.  1.
         21    1    1    2  504  503 -0.19404280852E+02 -0.40204356013E+02  0.92516006427E+01  0.45590662117E+02  0.00000000000E+00 0.  1.
<mgrwt>
<rscale>  1 0.13274014E+03</rscale>
<asrwt>0</asrwt>
<pdfrwt beam="1">  1       21 0.15657847E-01 0.13274014E+03</pdfrwt>
<pdfrwt beam="2">  1       21 0.11909579E-01 0.13274014E+03</pdfrwt>
<totfact> 0.21450036E+06</totfact>
</mgrwt>
</event>
<event>
 6    1  0.4180481E-002  0.1261756E+03  0.7546771E-02  0.1233243E+00
         21   -1    0    0  503  502  0.00000000000E+00  0.00000000000E+00  0.61985340427E+02  0.61985340427E+02  0.00000000000E+00 0. -1.
         21   -1    0    0  504  503 -0.00000000000E+00 -0.00000000000E+00 -0.34265083003E+03  0.34265083003E+03  0.00000000000E+00 0. -1.
         25    2    1    2    0    0  0.13992572705E+02  0.99561527161E+01 -0.27653398778E+01  0.12620590938E+03  0.12500146955E+03 0.  0.
          5    1    3    3  501    0  0.11034050109E+02  0.23368821230E+02 -0.61065906074E+02  0.66309176983E+02  0.10000000000E+00 0.  1.
         -5    1    3    3    0  501  0.29585225961E+01 -0.13412668513E+02  0.58300566196E+02  0.59896732393E+02  0.10000000000E+00 0.  1.
         21    1    1    2  504  502 -0.13992572705E+02 -0.99561527161E+01 -0.27790014973E+03  0.27843026108E+03  0.00000000000E+00 0. -1.
<mgrwt>
<rscale>  1 0.12617561E+03</rscale>
<asrwt>0</asrwt>
<pdfrwt beam="1">  1       21 0.95362064E-02 0.12617561E+03</pdfrwt>
<pdfrwt beam="2">  1       21 0.52715512E-01 0.12617561E+03</pdfrwt>
<totfact> 0.30528609E+05</totfact>
</mgrwt>
</event>
<event>
 6    1  0.4180481E-002  0.1282067E+03  0.7546771E-02  0.1230141E+00
         21   -1    0    0  504  502  0.00000000000E+00  0.00000000000E+00  0.69678364338E+01  0.69678364338E+01  0.00000000000E+00 0. -1.
         21   -1    0    0  502  503 -0.00000000000E+00 -0.00000000000E+00 -0.89199289113E+03  0.89199289113E+03  0.00000000000E+00 0. -1.
         25    2    1    2    0    0 -0.20127970802E+02 -0.19974628908E+02 -0.67956124175E+03  0.69154930204E+03  0.12503133547E+03 0.  0.
          5    1    3    3  501    0  0.30207288895E+02 -0.15838951922E+02 -0.56874404514E+03  0.56976587436E+03  0.10000000000E+00 0. -1.
         -5    1    3    3    0  501 -0.50335259696E+02 -0.41356769862E+01 -0.11081719661E+03  0.12178342768E+03  0.10000000000E+00 0. -1.
         21    1    1    2  504  503  0.20127970802E+02  0.19974628908E+02 -0.20546381295E+03  0.20741142553E+03  0.00000000000E+00 0. -1.
<mgrwt>
<rscale>  1 0.12820669E+03</rscale>
<asrwt>0</asrwt>
<pdfrwt beam="1">  1       21 0.10719744E-02 0.12820669E+03</pdfrwt>
<pdfrwt beam="2">  1       21 0.13722973E+00 0.12820669E+03</pdfrwt>
<totfact> 0.12750329E+06</totfact>
</mgrwt>
</event>
<event>
 6    1  0.4180481E-002  0.1259120E+03  0.7546771E-02  0.1233651E+00
         21   -1    0    0  504  502  0.00000000000E+00  0.00000000000E+00  0.65767969313E+01  0.65767969313E+01  0.00000000000E+00 0.  1.
         21   -1    0    0  502  503 -0.00000000000E+00 -0.00000000000E+00 -0.83920354926E+03  0.83920354926E+03  0.00000000000E+00 0.  1.
         25    2    1    2    0    0  0.11109737930E+02  0.10269766006E+02 -0.62230977729E+03  0.63491990808E+03  0.12499974558E+03 0.  0.
          5    1    3    3  501    0  0.51557626185E+02 -0.18251312276E+02 -0.14367221909E+03  0.15373033453E+03  0.10000000000E+00 0. -1.
         -5    1    3    3    0  501 -0.40447888255E+02  0.28521078282E+02 -0.47863755820E+03  0.48118957355E+03  0.10000000000E+00 0. -1.
         21    1    1    2  504  503 -0.11109737930E+02 -0.10269766006E+02 -0.21031697504E+03  0.21086043811E+03  0.00000000000E+00 0.  1.
<mgrwt>
<rscale>  1 0.12591200E+03</rscale>
<asrwt>0</asrwt>
<pdfrwt beam="1">  1       21 0.10118156E-02 0.12591200E+03</pdfrwt>
<pdfrwt beam="2">  1       21 0.12910815E+00 0.12591200E+03</pdfrwt>
<totfact> 0.16266877E+06</totfact>
</mgrwt>
</event>
<event>
 6    1  0.4180481E-002  0.1272557E+03  0.7546771E-02  0.1231586E+00
         21   -1    0    0  503  502  0.00000000000E+00  0.00000000000E+00  0.98972004667E+01  0.98972004667E+01  0.00000000000E+00 0. -1.
         21   -1    0    0  504  503 -0.00000000000E+00 -0.00000000000E+00 -0.66111086579E+03  0.66111086579E+03  0.00000000000E+00 0. -1.
         25    2    1    2    0    0  0.88641466502E+01  0.22161513295E+02 -0.42788160569E+03  0.44640416018E+03  0.12499719983E+03 0.  0.
          5    1    3    3  501    0  0.44562410425E+02 -0.24702255640E+02 -0.31480516648E+03  0.31890172890E+03  0.10000000000E+00 0.  1.
         -5    1    3    3    0  501 -0.35698263775E+02  0.46863768934E+02 -0.11307643922E+03  0.12750243128E+03  0.10000000000E+00 0.  1.
         21    1    1    2  504  502 -0.88641466502E+01 -0.22161513295E+02 -0.22333205963E+03  0.22460390608E+03  0.00000000000E+00 0. -1.
<mgrwt>
<rscale>  1 0.12725567E+03</rscale>
<asrwt>0</asrwt>
<pdfrwt beam="1">  1       21 0.15226460E-02 0.12725567E+03</pdfrwt>
<pdfrwt beam="2">  1       21 0.10170938E+00 0.12725567E+03</pdfrwt>
<totfact> 0.15125453E+06</totfact>
</mgrwt>
</event>
<event>
 6    1  0.4180481E-002  0.1269242E+03  0.7546771E-02  0.1232092E+00
         21   -1    0    0  503  502  0.00000000000E+00  0.00000000000E+00  0.67410978552E+03  0.67410978552E+03  0.00000000000E+00 0.  1.
         21   -1    0    0  504  503 -0.00000000000E+00 -0.00000000000E+00 -0.86369740261E+01  0.86369740261E+01  0.00000000000E+00 0.  1.
         25    2    1    2    0    0  0.20340683871E+02  0.83458947129E+01  0.50176680182E+03  0.51757092904E+03  0.12500538310E+03 0.  0.
          5    1    3    3  501    0  0.11139444558E+02  0.41642117237E+02  0.46547592530E+03  0.46746764613E+03  0.10000000000E+00 0. -1.
         -5    1    3    3    0  501  0.92012393136E+01 -0.33296222524E+02  0.36290876524E+02  0.50103282909E+02  0.10000000000E+00 0. -1.
         21    1    1    2  504  502 -0.20340683871E+02 -0.83458947129E+01  0.16370600968E+03  0.16517583051E+03  0.00000000000E+00 0. -1.
<mgrwt>
<rscale>  1 0.12692416E+03</rscale>
<asrwt>0</asrwt>
<pdfrwt beam="1">  1       21 0.10370916E+00 0.12692416E+03</pdfrwt>
<pdfrwt beam="2">  1       21 0.13287658E-02 0.12692416E+03</pdfrwt>
<totfact> 0.17947566E+06</totfact>
</mgrwt>
</event>
<event>
 6    1  0.4180481E-002  0.1652590E+03  0.7546771E-02  0.1182884E+00
         21   -1    0    0  504  502  0.00000000000E+00  0.00000000000E+00  0.51006717186E+03  0.51006717186E+03  0.00000000000E+00 0.  1.
         21   -1    0    0  502  503 -0.00000000000E+00 -0.00000000000E+00 -0.36815948289E+02  0.36815948289E+02  0.00000000000E+00 0.  1.
         25    2    1    2    0    0  0.82062153854E+02  0.70365318793E+02  0.26658754256E+03  0.31365500814E+03  0.12500028439E+03 0.  0.
          5    1    3    3  501    0  0.62967310148E+02  0.10350672388E+03  0.16200243179E+03  0.20229513573E+03  0.10000000000E+00 0.  1.
         -5    1    3    3    0  501  0.19094843705E+02 -0.33141405084E+02  0.10458511077E+03  0.11135987240E+03  0.10000000000E+00 0.  1.
         21    1    1    2  504  503 -0.82062153854E+02 -0.70365318793E+02  0.20666368101E+03  0.23322811201E+03  0.00000000000E+00 0.  1.
<mgrwt>
<rscale>  1 0.16525903E+03</rscale>
<asrwt>0</asrwt>
<pdfrwt beam="1">  1       21 0.78471867E-01 0.16525903E+03</pdfrwt>
<pdfrwt beam="2">  1       21 0.56639924E-02 0.16525903E+03</pdfrwt>
<totfact> 0.31476263E+05</totfact>
</mgrwt>
</event>
<event>
 6    1  0.4180481E-002  0.2100778E+03  0.7546771E-02  0.1141504E+00
         21   -1    0    0  503  502  0.00000000000E+00  0.00000000000E+00  0.42026324840E+02  0.42026324840E+02  0.00000000000E+00 0. -1.
         21   -1    0    0  504  503 -0.00000000000E+00 -0.00000000000E+00 -0.19457435463E+04  0.19457435463E+04  0.00000000000E+00 0.  1.
         25    2    1    2    0    0 -0.16624112608E+03 -0.29523905902E+02 -0.25482271686E+03  0.33025339752E+03  0.12499966610E+03 0.  0.
          5    1    3    3  501    0 -0.10730937231E+03 -0.63107559563E+02 -0.22285368776E+03  0.25526778412E+03  0.10000000000E+00 0. -1.
         -5    1    3    3    0  501 -0.58931753773E+02  0.33583653661E+02 -0.31969029102E+02  0.74985613405E+02  0.10000000000E+00 0. -1.
         21    1    1    2  504  502  0.16624112608E+03  0.29523905902E+02 -0.16488945046E+04  0.16575164736E+04  0.00000000000E+00 0.  1.
<mgrwt>
<rscale>  1 0.21007782E+03</rscale>
<asrwt>0</asrwt>
<pdfrwt beam="1">  1       21 0.64655891E-02 0.21007782E+03</pdfrwt>
<pdfrwt beam="2">  1       21 0.29934513E+00 0.21007782E+03</pdfrwt>
<totfact> 0.58593615E+03</totfact>
</mgrwt>
</event>
<event>
 6    1  0.4180481E-002  0.1260231E+03  0.7546771E-02  0.1233479E+00
         21   -1    0    0  503  502  0.00000000000E+00  0.00000000000E+00  0.10460648575E+03  0.10460648575E+03  0.00000000000E+00 0. -1.
         21   -1    0    0  504  503 -0.00000000000E+00 -0.00000000000E+00 -0.85729921514E+02  0.85729921514E+02  0.00000000000E+00 0. -1.
         25    2    1    2    0    0  0.14643238042E+02  0.64984812835E+01  0.64794178895E+02  0.14170429837E+03  0.12500067152E+03 0.  0.
          5    1    3    3  501    0 -0.44199060724E+02 -0.18225097250E+02  0.61359832963E+02  0.77786568506E+02  0.10000000000E+00 0.  1.
         -5    1    3    3    0  501  0.58842298766E+02  0.24723578534E+02  0.34343459315E+01  0.63917729868E+02  0.10000000000E+00 0.  1.
         21    1    1    2  504  502 -0.14643238042E+02 -0.64984812835E+01 -0.45917614657E+02  0.48632108891E+02  0.00000000000E+00 0. -1.
<mgrwt>
<rscale>  1 0.12602310E+03</rscale>
<asrwt>0</asrwt>
<pdfrwt beam="1">  1       21 0.16093306E-01 0.12602310E+03</pdfrwt>
<pdfrwt beam="2">  1       21 0.13189219E-01 0.12602310E+03</pdfrwt>
<totfact> 0.17000131E+06</totfact>
</mgrwt>
</event>
<event>
 6    1  0.4180481E-002  0.1405514E+03  0.7546771E-02  0.1212589E+00
         21   -1    0    0  503  502  0.00000000000E+00  0.00000000000E+00  0.42868645891E+02  0.42868645891E+02  0.00000000000E+00 0. -1.
         21   -1    0    0  504  503 -0.00000000000E+00 -0.00000000000E+00 -0.37360805807E+03  0.37360805807E+03  0.00000000000E+00 0. -1.
         25    2    1    2    0    0  0.35438634569E+02 -0.53619416254E+02 -0.89048986602E+02  0.16638631943E+03  0.12499498653E+03 0.  0.
          5    1    3    3  501    0  0.35299311687E+01 -0.90881174382E+02 -0.64726348805E+02  0.11163045508E+03  0.10000000000E+00 0.  1.
         -5    1    3    3    0  501  0.31908703400E+02  0.37261758128E+02 -0.24322637796E+02  0.54755864351E+02  0.10000000000E+00 0.  1.
         21    1    1    2  504  502 -0.35438634569E+02  0.53619416254E+02 -0.24169042558E+03  0.25009038453E+03  0.00000000000E+00 0. -1.
<mgrwt>
<rscale>  1 0.14055136E+03</rscale>
<asrwt>0</asrwt>
<pdfrwt beam="1">  1       21 0.65951764E-02 0.14055136E+03</pdfrwt>
<pdfrwt beam="2">  1       21 0.57478162E-01 0.14055136E+03</pdfrwt>
<totfact> 0.48009966E+05</totfact>
</mgrwt>
</event>
<event>
 6    1  0.4180481E-002  0.1558433E+03  0.7546771E-02  0.1193471E+00
         21   -1    0    0  503  502  0.00000000000E+00  0.00000000000E+00  0.58231470679E+03  0.58231470679E+03  0.00000000000E+00 0.  1.
         21   -1    0    0  504  503 -0.00000000000E+00 -0.00000000000E+00 -0.26810942093E+02  0.26810942093E+02  0.00000000000E+00 0.  1.
         25    2    1    2    0    0  0.56534951551E+02  0.73927250143E+02  0.37345088576E+03  0.40466369695E+03  0.12500281793E+03 0.  0.
          5    1    3    3  501    0 -0.29216970135E+01  0.84457223900E+02  0.28721709545E+03  0.29939143090E+03  0.10000000000E+00 0.  1.
         -5    1    3    3    0  501  0.59456648564E+02 -0.10529973756E+02  0.86233790317E+02  0.10527226604E+03  0.10000000000E+00 0.  1.
         21    1    1    2  504  502 -0.56534951551E+02 -0.73927250143E+02  0.18205287893E+03  0.20446195193E+03  0.00000000000E+00 0.  1.
<mgrwt>
<rscale>  1 0.15584333E+03</rscale>
<asrwt>0</asrwt>
<pdfrwt beam="1">  1       21 0.89586869E-01 0.15584333E+03</pdfrwt>
<pdfrwt beam="2">  1       21 0.41247608E-02 0.15584333E+03</pdfrwt>
<totfact> 0.39854432E+05</totfact>
</mgrwt>
</event>
<event>
 6    1  0.4180481E-002  0.1259605E+03  0.7546771E-02  0.1233576E+00
         21   -1    0    0  504  502  0.00000000000E+00  0.00000000000E+00  0.10985596256E+03  0.10985596256E+03  0.00000000000E+00 0. -1.
         21   -1    0    0  502  503 -0.00000000000E+00 -0.00000000000E+00 -0.48241421352E+02  0.48241421352E+02  0.00000000000E+00 0. -1.
         25    2    1    2    0    0  0.79955770724E+01 -0.13296148590E+02  0.65683499022E+02  0.14205764458E+03  0.12500134207E+03 0.  0.
          5    1    3    3  501    0 -0.36168057658E+02  0.41586593293E+02  0.34477274147E+02  0.65009734418E+02  0.10000000000E+00 0. -1.
         -5    1    3    3    0  501  0.44163634730E+02 -0.54882741883E+02  0.31206224875E+02  0.77047910161E+02  0.10000000000E+00 0. -1.
         21    1    1    2  504  503 -0.79955770724E+01  0.13296148590E+02 -0.40689578173E+01  0.16039739330E+02  0.00000000000E+00 0. -1.
<mgrwt>
<rscale>  1 0.12596052E+03</rscale>
<asrwt>0</asrwt>
<pdfrwt beam="1">  1       21 0.16900917E-01 0.12596052E+03</pdfrwt>
<pdfrwt beam="2">  1       21 0.74217572E-02 0.12596052E+03</pdfrwt>
<totfact> 0.42485470E+06</totfact>
</mgrwt>
</event>
<event>
 6    1  0.4180481E-002  0.1313674E+03  0.7546771E-02  0.1225441E+00
         21   -1    0    0  504  502  0.00000000000E+00  0.00000000000E+00  0.42010615680E+03  0.42010615680E+03  0.00000000000E+00 0.  1.
         21   -1    0    0  502  503 -0.00000000000E+00 -0.00000000000E+00 -0.18297677384E+02  0.18297677384E+02  0.00000000000E+00 0.  1.
         25    2    1    2    0    0  0.38538675576E+02 -0.12148846450E+02  0.34064350018E+03  0.36509640844E+03  0.12499827699E+03 0.  0.
          5    1    3    3  501    0  0.30875559071E+02 -0.55467277665E+02  0.87180574127E+02  0.10784424669E+03  0.10000000000E+00 0.  1.
         -5    1    3    3    0  501  0.76631165049E+01  0.43318431215E+02  0.25346292606E+03  0.25725216174E+03  0.10000000000E+00 0.  1.
         21    1    1    2  504  503 -0.38538675576E+02  0.12148846450E+02  0.61164979234E+02  0.73307425749E+02  0.00000000000E+00 0.  1.
<mgrwt>
<rscale>  1 0.13136740E+03</rscale>
<asrwt>0</asrwt>
<pdfrwt beam="1">  1       21 0.64631709E-01 0.13136740E+03</pdfrwt>
<pdfrwt beam="2">  1       21 0.28150276E-02 0.13136740E+03</pdfrwt>
<totfact> 0.15498766E+06</totfact>
</mgrwt>
</event>
<event>
 6    1  0.4180481E-002  0.1285695E+03  0.7546771E-02  0.1229594E+00
         21   -1    0    0  504  502  0.00000000000E+00  0.00000000000E+00  0.35613644964E+03  0.35613644964E+03  0.00000000000E+00 0.  1.
         21   -1    0    0  502  503 -0.00000000000E+00 -0.00000000000E+00 -0.18158141718E+02  0.18158141718E+02  0.00000000000E+00 0.  1.
         25    2    1    2    0    0 -0.11681087031E+02 -0.27751754945E+02  0.29518982277E+03  0.32197382915E+03  0.12499402982E+03 0.  0.
          5    1    3    3  501    0  0.49389317731E+02 -0.25328352762E+02  0.74048427081E+02  0.92541934887E+02  0.10000000000E+00 0. -1.
         -5    1    3    3    0  501 -0.61070404762E+02 -0.24234021832E+01  0.22114139569E+03  0.22943189426E+03  0.10000000000E+00 0. -1.
         21    1    1    2  504  503  0.11681087031E+02  0.27751754945E+02  0.42788485150E+02  0.52320762210E+02  0.00000000000E+00 0. -1.
<mgrwt>
<rscale>  1 0.12856950E+03</rscale>
<asrwt>0</asrwt>
<pdfrwt beam="1">  1       21 0.54790218E-01 0.12856950E+03</pdfrwt>
<pdfrwt beam="2">  1       21 0.27935605E-02 0.12856950E+03</pdfrwt>
<totfact> 0.22270860E+06</totfact>
</mgrwt>
</event>
<event>
 6    1  0.4180481E-002  0.1361313E+03  0.7546771E-02  0.1218631E+00
         21   -1    0    0  503  502  0.00000000000E+00  0.00000000000E+00  0.78883860696E+02  0.78883860696E+02  0.00000000000E+00 0.  1.
         21   -1    0    0  504  503 -0.00000000000E+00 -0.00000000000E+00 -0.11756330309E+03  0.11756330309E+03  0.00000000000E+00 0.  1.
         25    2    1    2    0    0 -0.57946955154E+00  0.53910167933E+02 -0.13059957546E+02  0.13675629350E+03  0.12500031732E+03 0.  0.
          5    1    3    3  501    0  0.60765015206E+02  0.12632198439E+02 -0.89104728827E+01  0.62700606356E+02  0.10000000000E+00 0.  1.
         -5    1    3    3    0  501 -0.61344484758E+02  0.41277969494E+02 -0.41494846633E+01  0.74055687147E+02  0.10000000000E+00 0.  1.
         21    1    1    2  504  502  0.57946955154E+00 -0.53910167933E+02 -0.25619484851E+02  0.59690870286E+02  0.00000000000E+00 0.  1.
<mgrwt>
<rscale>  1 0.13613127E+03</rscale>
<asrwt>0</asrwt>
<pdfrwt beam="1">  1       21 0.12135979E-01 0.13613127E+03</pdfrwt>
<pdfrwt beam="2">  1       21 0.18086662E-01 0.13613127E+03</pdfrwt>
<totfact> 0.15960905E+06</totfact>
</mgrwt>
</event>
<event>
 6    1  0.4180481E-002  0.1272884E+03  0.7546771E-02  0.1231536E+00
         21   -1    0    0  504  502  0.00000000000E+00  0.00000000000E+00  0.15372990336E+02  0.15372990336E+02  0.00000000000E+00 0.  1.
         21   -1    0    0  502  503 -0.00000000000E+00 -0.00000000000E+00 -0.38488054754E+03  0.38488054754E+03  0.00000000000E+00 0.  1.
         25    2    1    2    0    0 -0.14622517371E+02 -0.18844919972E+02 -0.27916138661E+03  0.30681168664E+03  0.12503352453E+03 0.  0.
          5    1    3    3  501    0  0.31626654480E+02 -0.46615989833E+02 -0.65248820879E+02  0.86201591678E+02  0.10000000000E+00 0. -1.
         -5    1    3    3    0  501 -0.46249171851E+02  0.27771069861E+02 -0.21391256574E+03  0.22061009496E+03  0.10000000000E+00 0. -1.
         21    1    1    2  504  503  0.14622517371E+02  0.18844919972E+02 -0.90346170587E+02  0.93441851238E+02  0.00000000000E+00 0.  1.
<mgrwt>
<rscale>  1 0.12728838E+03</rscale>
<asrwt>0</asrwt>
<pdfrwt beam="1">  1       21 0.23650756E-02 0.12728838E+03</pdfrwt>
<pdfrwt beam="2">  1       21 0.59212388E-01 0.12728838E+03</pdfrwt>
<totfact> 0.24801176E+06</totfact>
</mgrwt>
</event>
<event>
 6    1  0.4180481E-002  0.1888673E+03  0.7546771E-02  0.1159487E+00
         21   -1    0    0  504  502  0.00000000000E+00  0.00000000000E+00  0.53609296264E+03  0.53609296264E+03  0.00000000000E+00 0. -1.
         21   -1    0    0  502  503 -0.00000000000E+00 -0.00000000000E+00 -0.86796212321E+02  0.86796212321E+02  0.00000000000E+00 0. -1.
         25    2    1    2    0    0  0.70032657249E+02 -0.12307116905E+03  0.44250415130E+03  0.48112449271E+03  0.12497906958E+03 0.  0.
          5    1    3    3  501    0  0.32185018705E+02 -0.15437172709E+02  0.28171792080E+03  0.28397038336E+03  0.10000000000E+00 0.  1.
         -5    1    3    3    0  501  0.37847638544E+02 -0.10763399634E+03  0.16078623051E+03  0.19715410934E+03  0.10000000000E+00 0.  1.
         21    1    1    2  504  503 -0.70032657249E+02  0.12307116905E+03  0.67925990110E+01  0.14176468225E+03  0.00000000000E+00 0. -1.
<mgrwt>
<rscale>  1 0.18886729E+03</rscale>
<asrwt>0</asrwt>
<pdfrwt beam="1">  1       21 0.82475838E-01 0.18886729E+03</pdfrwt>
<pdfrwt beam="2">  1       21 0.13353264E-01 0.18886729E+03</pdfrwt>
<totfact> 0.62273222E+04</totfact>
</mgrwt>
</event>
<event>
 6    1  0.4180481E-002  0.1263583E+03  0.7546771E-02  0.1232962E+00
         21   -1    0    0  503  502  0.00000000000E+00  0.00000000000E+00  0.24894161910E+03  0.24894161910E+03  0.00000000000E+00 0.  1.
         21   -1    0    0  504  503 -0.00000000000E+00 -0.00000000000E+00 -0.40996126059E+02  0.40996126059E+02  0.00000000000E+00 0.  1.
         25    2    1    2    0    0 -0.15138568491E+02 -0.10425981925E+02  0.22926989811E+03  0.26178445748E+03  0.12501415378E+03 0.  0.
          5    1    3    3  501    0 -0.22536516893E+02 -0.65004868672E+02  0.10118987177E+03  0.12236391500E+03  0.10000000000E+00 0. -1.
         -5    1    3    3    0  501  0.73979484019E+01  0.54578886746E+02  0.12808002635E+03  0.13942054249E+03  0.10000000000E+00 0. -1.
         21    1    1    2  504  502  0.15138568491E+02  0.10425981925E+02 -0.21324405074E+02  0.28153287674E+02  0.00000000000E+00 0.  1.
<mgrwt>
<rscale>  1 0.12635828E+03</rscale>
<asrwt>0</asrwt>
<pdfrwt beam="1">  1       21 0.38298710E-01 0.12635828E+03</pdfrwt>
<pdfrwt beam="2">  1       21 0.63070965E-02 0.12635828E+03</pdfrwt>
<totfact> 0.11895919E+06</totfact>
</mgrwt>
</event>
<event>
 6    1  0.4180481E-002  0.1268171E+03  0.7546771E-02  0.1232256E+00
         21   -1    0    0  504  502  0.00000000000E+00  0.00000000000E+00  0.19679937692E+03  0.19679937692E+03  0.00000000000E+00 0.  1.
         21   -1    0    0  502  503 -0.00000000000E+00 -0.00000000000E+00 -0.34013832818E+02  0.34013832818E+02  0.00000000000E+00 0.  1.
         25    2    1    2    0    0 -0.15232308955E+02 -0.15036714249E+02  0.16628510062E+03  0.20912512759E+03  0.12499783314E+03 0.  0.
          5    1    3    3  501    0  0.58859081265E+00 -0.60910514185E+02  0.37572470260E+02  0.71569111346E+02  0.10000000000E+00 0.  1.
         -5    1    3    3    0  501 -0.15820899768E+02  0.45873799936E+02  0.12871263036E+03  0.13755601624E+03  0.10000000000E+00 0.  1.
         21    1    1    2  504  503  0.15232308955E+02  0.15036714249E+02 -0.34995565180E+01  0.21688082150E+02  0.00000000000E+00 0.  1.
<mgrwt>
<rscale>  1 0.12681713E+03</rscale>
<asrwt>0</asrwt>
<pdfrwt beam="1">  1       21 0.30276827E-01 0.12681713E+03</pdfrwt>
<pdfrwt beam="2">  1       21 0.52328975E-02 0.12681713E+03</pdfrwt>
<totfact> 0.25841405E+06</totfact>
</mgrwt>
</event>
<event>
 6    1  0.4180481E-002  0.1476532E+03  0.7546771E-02  0.1203387E+00
         21   -1    0    0  504  502  0.00000000000E+00  0.00000000000E+00  0.52049955280E+03  0.52049955280E+03  0.00000000000E+00 0.  1.
         21   -1    0    0  502  503 -0.00000000000E+00 -0.00000000000E+00 -0.28498917565E+02  0.28498917565E+02  0.00000000000E+00 0.  1.
         25    2    1    2    0    0  0.13399188504E+02  0.77462553363E+02  0.40825899405E+03  0.43413921782E+03  0.12498587442E+03 0.  0.
          5    1    3    3  501    0  0.62122796021E+02  0.26815158404E+02  0.27815990163E+03  0.28627126188E+03  0.10000000000E+00 0. -1.
         -5    1    3    3    0  501 -0.48723607516E+02  0.50647394959E+02  0.13009909242E+03  0.14786795594E+03  0.10000000000E+00 0. -1.
         21    1    1    2  504  503 -0.13399188504E+02 -0.77462553363E+02  0.83741641189E+02  0.11485925255E+03  0.00000000000E+00 0.  1.
<mgrwt>
<rscale>  1 0.14765316E+03</rscale>
<asrwt>0</asrwt>
<pdfrwt beam="1">  1       21 0.80076847E-01 0.14765316E+03</pdfrwt>
<pdfrwt beam="2">  1       21 0.43844493E-02 0.14765316E+03</pdfrwt>
<totfact> 0.46484671E+05</totfact>
</mgrwt>
</event>
<event>
 6    1  0.4180481E-002  0.1281016E+03  0.7546771E-02  0.1230300E+00
         21   -1    0    0  503  502  0.00000000000E+00  0.00000000000E+00  0.77258762505E+02  0.77258762505E+02  0.00000000000E+00 0. -1.
         21   -1    0    0  504  503 -0.00000000000E+00 -0.00000000000E+00 -0.95092153698E+02  0.95092153698E+02  0.00000000000E+00 0. -1.
         25    2    1    2    0    0 -0.23717152853E+02 -0.14894065602E+02  0.15249011558E+02  0.12900599838E+03  0.12500271491E+03 0.  0.
          5    1    3    3  501    0 -0.35913927472E+02  0.47644069426E+02 -0.99494075003E+01  0.60487752872E+02  0.10000000000E+00 0. -1.
         -5    1    3    3    0  501  0.12196774619E+02 -0.62538135028E+02  0.25198419058E+02  0.68518245503E+02  0.10000000000E+00 0. -1.
         21    1    1    2  504  502  0.23717152853E+02  0.14894065602E+02 -0.33082402751E+02  0.43344917827E+02  0.00000000000E+00 0. -1.
<mgrwt>
<rscale>  1 0.12810158E+03</rscale>
<asrwt>0</asrwt>
<pdfrwt beam="1">  1       21 0.11885963E-01 0.12810158E+03</pdfrwt>
<pdfrwt beam="2">  1       21 0.14629562E-01 0.12810158E+03</pdfrwt>
<totfact> 0.24304990E+06</totfact>
</mgrwt>
</event>
<event>
 6    1  0.4180481E-002  0.1344935E+03  0.7546771E-02  0.1220936E+00
         21   -1    0    0  504  502  0.00000000000E+00  0.00000000000E+00  0.20208872791E+03  0.20208872791E+03  0.00000000000E+00 0.  1.
         21   -1    0    0  502  503 -0.00000000000E+00 -0.00000000000E+00 -0.93875138585E+02  0.93875138585E+02  0.00000000000E+00 0. -1.
         25    2    1    2    0    0  0.39172541148E+02 -0.30480816156E+02  0.16996288221E+03  0.21673922825E+03  0.12499977440E+03 0.  0.
          5    1    3    3  501    0 -0.39134508047E+02 -0.36521620102E+02  0.49334862460E+02  0.72796133887E+02  0.10000000000E+00 0. -1.
         -5    1    3    3    0  501  0.78307049195E+02  0.60408039456E+01  0.12062801975E+03  0.14394309436E+03  0.10000000000E+00 0. -1.
         21    1    1    2  504  503 -0.39172541148E+02  0.30480816156E+02 -0.61749292884E+02  0.79224638246E+02  0.00000000000E+00 0. -1.
<mgrwt>
<rscale>  1 0.13449354E+03</rscale>
<asrwt>0</asrwt>
<pdfrwt beam="1">  1       21 0.31090573E-01 0.13449354E+03</pdfrwt>
<pdfrwt beam="2">  1       21 0.14442329E-01 0.13449354E+03</pdfrwt>
<totfact> 0.42153653E+05</totfact>
</mgrwt>
</event>
<event>
 6    1  0.4180481E-002  0.1274026E+03  0.7546771E-02  0.1231361E+00
         21   -1    0    0  503  502  0.00000000000E+00  0.00000000000E+00  0.25551932439E+02  0.25551932439E+02  0.00000000000E+00 0.  1.
         21   -1    0    0  504  503 -0.00000000000E+00 -0.00000000000E+00 -0.29316918576E+03  0.29316918576E+03  0.00000000000E+00 0.  1.
         25    2    1    2    0    0 -0.17214531897E+02 -0.17613989196E+02 -0.14226915149E+03  0.19097629694E+03  0.12499936722E+03 0.  0.
          5    1    3    3  501    0  0.53647033487E+02  0.26016035565E+01 -0.60694698760E+02  0.81047078915E+02  0.10000000000E+00 0. -1.
         -5    1    3    3    0  501 -0.70861565383E+02 -0.20215592753E+02 -0.81574452725E+02  0.10992921803E+03  0.10000000000E+00 0. -1.
         21    1    1    2  504  502  0.17214531897E+02  0.17613989196E+02 -0.12534810184E+03  0.12774482126E+03  0.00000000000E+00 0.  1.
<mgrwt>
<rscale>  1 0.12740265E+03</rscale>
<asrwt>0</asrwt>
<pdfrwt beam="1">  1       21 0.39310669E-02 0.12740265E+03</pdfrwt>
<pdfrwt beam="2">  1       21 0.45102948E-01 0.12740265E+03</pdfrwt>
<totfact> 0.18944287E+06</totfact>
</mgrwt>
</event>
<event>
 6    1  0.4180481E-002  0.1267787E+03  0.7546771E-02  0.1232315E+00
         21   -1    0    0  503  502  0.00000000000E+00  0.00000000000E+00  0.28734560373E+02  0.28734560373E+02  0.00000000000E+00 0. -1.
         21   -1    0    0  504  503 -0.00000000000E+00 -0.00000000000E+00 -0.19373458791E+03  0.19373458791E+03  0.00000000000E+00 0. -1.
         25    2    1    2    0    0 -0.12850620490E+02 -0.16827997956E+02 -0.15062256264E+03  0.19687556590E+03  0.12499804843E+03 0.  0.
          5    1    3    3  501    0  0.11325580394E+02 -0.67357730141E+02 -0.10167468342E+03  0.12248707617E+03  0.10000000000E+00 0. -1.
         -5    1    3    3    0  501 -0.24176200884E+02  0.50529732185E+02 -0.48947879217E+02  0.74388489726E+02  0.10000000000E+00 0. -1.
         21    1    1    2  504  502  0.12850620490E+02  0.16827997956E+02 -0.14377464896E+02  0.25593582380E+02  0.00000000000E+00 0. -1.
<mgrwt>
<rscale>  1 0.12677867E+03</rscale>
<asrwt>0</asrwt>
<pdfrwt beam="1">  1       21 0.44207017E-02 0.12677867E+03</pdfrwt>
<pdfrwt beam="2">  1       21 0.29805320E-01 0.12677867E+03</pdfrwt>
<totfact> 0.35334493E+06</totfact>
</mgrwt>
</event>
<event>
 6    1  0.4180481E-002  0.1333294E+03  0.7546771E-02  0.1222597E+00
         21   -1    0    0  503  502  0.00000000000E+00  0.00000000000E+00  0.13800998441E+03  0.13800998441E+03  0.00000000000E+00 0. -1.
         21   -1    0    0  504  503 -0.00000000000E+00 -0.00000000000E+00 -0.23829852120E+03  0.23829852120E+03  0.00000000000E+00 0. -1.
         25    2    1    2    0    0 -0.18417622907E+02  0.42568304780E+02  0.10256811068E+03  0.16821696606E+03  0.12500184374E+03 0.  0.
          5    1    3    3  501    0 -0.69623923901E+02  0.26768502111E+02  0.81908893643E+02  0.11078411593E+03  0.10000000000E+00 0. -1.
         -5    1    3    3    0  501  0.51206300995E+02  0.15799802669E+02  0.20659217038E+02  0.57432850134E+02  0.10000000000E+00 0. -1.
         21    1    1    2  504  502  0.18417622907E+02 -0.42568304780E+02 -0.20285664747E+03  0.20809153954E+03  0.00000000000E+00 0. -1.
<mgrwt>
<rscale>  1 0.13332941E+03</rscale>
<asrwt>0</asrwt>
<pdfrwt beam="1">  1       21 0.21232305E-01 0.13332941E+03</pdfrwt>
<pdfrwt beam="2">  1       21 0.36661311E-01 0.13332941E+03</pdfrwt>
<totfact> 0.15091614E+05</totfact>
</mgrwt>
</event>
<event>
 6    1  0.4180481E-002  0.1277828E+03  0.7546771E-02  0.1230783E+00
         21   -1    0    0  504  502  0.00000000000E+00  0.00000000000E+00  0.22285931486E+02  0.22285931486E+02  0.00000000000E+00 0.  1.
         21   -1    0    0  502  503 -0.00000000000E+00 -0.00000000000E+00 -0.61791346046E+03  0.61791346046E+03  0.00000000000E+00 0. -1.
         25    2    1    2    0    0 -0.45157178228E+01 -0.26074721343E+02 -0.16468744171E+03  0.20844756322E+03  0.12501260078E+03 0.  0.
          5    1    3    3  501    0  0.18845622097E+02 -0.27388667129E+02  0.79893899147E+01  0.34192644100E+02  0.10000000000E+00 0.  1.
         -5    1    3    3    0  501 -0.23361339920E+02  0.13139457854E+01 -0.17267683163E+03  0.17425491912E+03  0.10000000000E+00 0.  1.
         21    1    1    2  504  503  0.45157178228E+01  0.26074721343E+02 -0.43094008726E+03  0.43175182873E+03  0.00000000000E+00 0. -1.
<mgrwt>
<rscale>  1 0.12778276E+03</rscale>
<asrwt>0</asrwt>
<pdfrwt beam="1">  1       21 0.34286059E-02 0.12778276E+03</pdfrwt>
<pdfrwt beam="2">  1       21 0.95063581E-01 0.12778276E+03</pdfrwt>
<totfact> 0.47459521E+05</totfact>
</mgrwt>
</event>
<event>
 6    1  0.4180481E-002  0.1266778E+03  0.7546771E-02  0.1232470E+00
         21   -1    0    0  503  502  0.00000000000E+00  0.00000000000E+00  0.29831431378E+02  0.29831431378E+02  0.00000000000E+00 0. -1.
         21   -1    0    0  504  503 -0.00000000000E+00 -0.00000000000E+00 -0.29843136325E+03  0.29843136325E+03  0.00000000000E+00 0. -1.
         25    2    1    2    0    0 -0.17397503088E+02 -0.10991909820E+02 -0.10834227755E+03  0.16668924801E+03  0.12499504432E+03 0.  0.
          5    1    3    3  501    0 -0.12518684459E+02  0.31697441686E+01  0.27311601501E+02  0.30210897293E+02  0.10000000000E+00 0.  1.
         -5    1    3    3    0  501 -0.48788186298E+01 -0.14161653989E+02 -0.13565387905E+03  0.13647835072E+03  0.10000000000E+00 0.  1.
         21    1    1    2  504  502  0.17397503088E+02  0.10991909820E+02 -0.16025765433E+03  0.16157354661E+03  0.00000000000E+00 0. -1.
<mgrwt>
<rscale>  1 0.12667777E+03</rscale>
<asrwt>0</asrwt>
<pdfrwt beam="1">  1       21 0.45894508E-02 0.12667777E+03</pdfrwt>
<pdfrwt beam="2">  1       21 0.45912519E-01 0.12667777E+03</pdfrwt>
<totfact> 0.14116030E+06</totfact>
</mgrwt>
</event>
<event>
 6    1  0.4180481E-002  0.1263112E+03  0.7546771E-02  0.1233034E+00
         21   -1    0    0  503  502  0.00000000000E+00  0.00000000000E+00  0.18899866597E+03  0.18899866597E+03  0.00000000000E+00 0.  1.
         21   -1    0    0  504  503 -0.00000000000E+00 -0.00000000000E+00 -0.58667318970E+02  0.58667318970E+02  0.00000000000E+00 0.  1.
         25    2    1    2    0    0  0.18161270770E+02 -0.11164150126E+01  0.16542574501E+03  0.20813504883E+03  0.12499377305E+03 0.  0.
          5    1    3    3  501    0  0.58775228576E+02  0.29753900554E+02  0.13087953100E+03  0.14652400393E+03  0.10000000000E+00 0. -1.
         -5    1    3    3    0  501 -0.40613957806E+02 -0.30870315566E+02  0.34546214006E+02  0.61611044903E+02  0.10000000000E+00 0. -1.
         21    1    1    2  504  502 -0.18161270770E+02  0.11164150126E+01 -0.35094398005E+02  0.39530936111E+02  0.00000000000E+00 0.  1.
<mgrwt>
<rscale>  1 0.12631121E+03</rscale>
<asrwt>0</asrwt>
<pdfrwt beam="1">  1       21 0.29076718E-01 0.12631121E+03</pdfrwt>
<pdfrwt beam="2">  1       21 0.90257415E-02 0.12631121E+03</pdfrwt>
<totfact> 0.11006497E+06</totfact>
</mgrwt>
</event>
<event>
 6    1  0.4180481E-002  0.1259935E+03  0.7546771E-02  0.1233525E+00
         21   -1    0    0  503  502  0.00000000000E+00  0.00000000000E+00  0.37108750315E+02  0.37108750315E+02  0.00000000000E+00 0. -1.
         21   -1    0    0  504  503 -0.00000000000E+00 -0.00000000000E+00 -0.18366261272E+03  0.18366261272E+03  0.00000000000E+00 0. -1.
         25    2    1    2    0    0 -0.12507379044E+02  0.96140333431E+01 -0.73144892373E+02  0.14568647075E+03  0.12500203323E+03 0.  0.
          5    1    3    3  501    0 -0.16715075725E+02 -0.56911867120E+02 -0.33184062742E+02  0.67967245020E+02  0.10000000000E+00 0.  1.
         -5    1    3    3    0  501  0.42076966804E+01  0.66525900463E+02 -0.39960829631E+02  0.77719225733E+02  0.10000000000E+00 0.  1.
         21    1    1    2  504  502  0.12507379044E+02 -0.96140333431E+01 -0.73408970034E+02  0.75084892283E+02  0.00000000000E+00 0. -1.
<mgrwt>
<rscale>  1 0.12599354E+03</rscale>
<asrwt>0</asrwt>
<pdfrwt beam="1">  1       21 0.57090385E-02 0.12599354E+03</pdfrwt>
<pdfrwt beam="2">  1       21 0.28255787E-01 0.12599354E+03</pdfrwt>
<totfact> 0.25475329E+06</totfact>
</mgrwt>
</event>
<event>
 6    1  0.4180481E-002  0.1395882E+03  0.7546771E-02  0.1213884E+00
         21   -1    0    0  503  502  0.00000000000E+00  0.00000000000E+00  0.35337529428E+02  0.35337529428E+02  0.00000000000E+00 0.  1.
         21   -1    0    0  504  503 -0.00000000000E+00 -0.00000000000E+00 -0.54914091612E+03  0.54914091612E+03  0.00000000000E+00 0.  1.
         25    2    1    2    0    0 -0.29668948396E+02  0.54588028348E+02 -0.11498363649E+03  0.18084830236E+03  0.12499908987E+03 0.  0.
          5    1    3    3  501    0 -0.17693267363E+02  0.90084190140E+02 -0.10965044684E+03  0.14300854351E+03  0.10000000000E+00 0.  1.
         -5    1    3    3    0  501 -0.11975681033E+02 -0.35496161793E+02 -0.53331896449E+01  0.37839758852E+02  0.10000000000E+00 0.  1.
         21    1    1    2  504  502  0.29668948396E+02 -0.54588028348E+02 -0.39881975020E+03  0.40363014319E+03  0.00000000000E+00 0.  1.
<mgrwt>
<rscale>  1 0.13958822E+03</rscale>
<asrwt>0</asrwt>
<pdfrwt beam="1">  1       21 0.54365435E-02 0.13958822E+03</pdfrwt>
<pdfrwt beam="2">  1       21 0.84483209E-01 0.13958822E+03</pdfrwt>
<totfact> 0.28735207E+05</totfact>
</mgrwt>
</event>
<event>
 6    1  0.4180481E-002  0.1532719E+03  0.7546771E-02  0.1196509E+00
         21   -1    0    0  503  502  0.00000000000E+00  0.00000000000E+00  0.26970429464E+03  0.26970429464E+03  0.00000000000E+00 0. -1.
         21   -1    0    0  504  503 -0.00000000000E+00 -0.00000000000E+00 -0.54374763584E+02  0.54374763584E+02  0.00000000000E+00 0. -1.
         25    2    1    2    0    0 -0.51558709352E+02  0.72179287025E+02  0.14306578498E+03  0.20966665076E+03  0.12499654244E+03 0.  0.
          5    1    3    3  501    0 -0.65792303540E+02  0.37433758239E+02  0.15310870141E+03  0.17079870581E+03  0.10000000000E+00 0. -1.
         -5    1    3    3    0  501  0.14233594188E+02  0.34745528786E+02 -0.10042916421E+02  0.38867944947E+02  0.10000000000E+00 0. -1.
         21    1    1    2  504  502  0.51558709352E+02 -0.72179287025E+02  0.72263746071E+02  0.11441240746E+03  0.00000000000E+00 0. -1.
<mgrwt>
<rscale>  1 0.15327193E+03</rscale>
<asrwt>0</asrwt>
<pdfrwt beam="1">  1       21 0.41492968E-01 0.15327193E+03</pdfrwt>
<pdfrwt beam="2">  1       21 0.83653484E-02 0.15327193E+03</pdfrwt>
<totfact> 0.62398617E+05</totfact>
</mgrwt>
</event>
<event>
 6    1  0.4180481E-002  0.1265188E+03  0.7546771E-02  0.1232715E+00
         21   -1    0    0  503  502  0.00000000000E+00  0.00000000000E+00  0.10799907559E+02  0.10799907559E+02  0.00000000000E+00 0.  1.
         21   -1    0    0  504  503 -0.00000000000E+00 -0.00000000000E+00 -0.73518163401E+03  0.73518163401E+03  0.00000000000E+00 0.  1.
         25    2    1    2    0    0 -0.17737937493E+02  0.79323320237E+01 -0.36934558449E+03  0.39041408184E+03  0.12501775154E+03 0.  0.
          5    1    3    3  501    0 -0.67791146924E+02  0.19519204497E+02 -0.16009824789E+03  0.17495170169E+03  0.10000000000E+00 0.  1.
         -5    1    3    3    0  501  0.50053209431E+02 -0.11586872474E+02 -0.20924733659E+03  0.21546238015E+03  0.10000000000E+00 0.  1.
         21    1    1    2  504  502  0.17737937493E+02 -0.79323320237E+01 -0.35503614197E+03  0.35556745973E+03  0.00000000000E+00 0.  1.
<mgrwt>
<rscale>  1 0.12651875E+03</rscale>
<asrwt>0</asrwt>
<pdfrwt beam="1">  1       21 0.16615243E-02 0.12651875E+03</pdfrwt>
<pdfrwt beam="2">  1       21 0.11310486E+00 0.12651875E+03</pdfrwt>
<totfact> 0.10219781E+06</totfact>
</mgrwt>
</event>
<event>
 6    1  0.4180481E-002  0.1267511E+03  0.7546771E-02  0.1232358E+00
         21   -1    0    0  503  502  0.00000000000E+00  0.00000000000E+00  0.14208379447E+04  0.14208379447E+04  0.00000000000E+00 0. -1.
         21   -1    0    0  504  503 -0.00000000000E+00 -0.00000000000E+00 -0.47919932896E+01  0.47919932896E+01  0.00000000000E+00 0. -1.
         25    2    1    2    0    0 -0.10246170585E+02 -0.18357879309E+02  0.13578471484E+04  0.13637502449E+04  0.12499542519E+03 0.  0.
          5    1    3    3  501    0 -0.26779163098E+01  0.48044737119E+02  0.87216078649E+03  0.87348721542E+03  0.10000000000E+00 0.  1.
         -5    1    3    3    0  501 -0.75682542749E+01 -0.66402616428E+02  0.48568636192E+03  0.49026302950E+03  0.10000000000E+00 0.  1.
         21    1    1    2  504  502  0.10246170585E+02  0.18357879309E+02  0.58198803015E+02  0.61879693089E+02  0.00000000000E+00 0. -1.
<mgrwt>
<rscale>  1 0.12675114E+03</rscale>
<asrwt>0</asrwt>
<pdfrwt beam="1">  1       21 0.21859012E+00 0.12675114E+03</pdfrwt>
<pdfrwt beam="2">  1       21 0.73723087E-03 0.12675114E+03</pdfrwt>
<totfact> 0.64106713E+05</totfact>
</mgrwt>
</event>
<event>
 6    1  0.4180481E-002  0.1806695E+03  0.7546771E-02  0.1167157E+00
         21   -1    0    0  504  502  0.00000000000E+00  0.00000000000E+00  0.40762732480E+03  0.40762732480E+03  0.00000000000E+00 0.  1.
         21   -1    0    0  502  503 -0.00000000000E+00 -0.00000000000E+00 -0.79232955057E+02  0.79232955057E+02  0.00000000000E+00 0.  1.
         25    2    1    2    0    0  0.12436000633E+03  0.39372368435E+02  0.63348047902E+02  0.19145353096E+03  0.12500353905E+03 0.  0.
          5    1    3    3  501    0  0.88719541948E+02 -0.35484363592E+01  0.92742942705E+02  0.12839397161E+03  0.10000000000E+00 0.  1.
         -5    1    3    3    0  501  0.35640464381E+02  0.42920804794E+02 -0.29394894802E+02  0.63059559354E+02  0.10000000000E+00 0.  1.
         21    1    1    2  504  503 -0.12436000633E+03 -0.39372368435E+02  0.26504632184E+03  0.29540674889E+03  0.00000000000E+00 0.  1.
<mgrwt>
<rscale>  1 0.18066953E+03</rscale>
<asrwt>0</asrwt>
<pdfrwt beam="1">  1       21 0.62711895E-01 0.18066953E+03</pdfrwt>
<pdfrwt beam="2">  1       21 0.12189686E-01 0.18066953E+03</pdfrwt>
<totfact> 0.13496819E+05</totfact>
</mgrwt>
</event>
<event>
 6    1  0.4180481E-002  0.1392828E+03  0.7546771E-02  0.1214297E+00
         21   -1    0    0  503  502  0.00000000000E+00  0.00000000000E+00  0.22713797351E+02  0.22713797351E+02  0.00000000000E+00 0. -1.
         21   -1    0    0  504  503 -0.00000000000E+00 -0.00000000000E+00 -0.45834570506E+03  0.45834570506E+03  0.00000000000E+00 0. -1.
         25    2    1    2    0    0 -0.47289966893E+02 -0.39212964329E+02 -0.33967257240E+03  0.36712008178E+03  0.12500280183E+03 0.  0.
          5    1    3    3  501    0  0.13488008361E+02  0.37234352777E+02 -0.12835667340E+03  0.13432709706E+03  0.10000000000E+00 0. -1.
         -5    1    3    3    0  501 -0.60777975254E+02 -0.76447317106E+02 -0.21131589899E+03  0.23279298472E+03  0.10000000000E+00 0. -1.
         21    1    1    2  504  502  0.47289966893E+02  0.39212964329E+02 -0.95959335309E+02  0.11393942063E+03  0.00000000000E+00 0. -1.
<mgrwt>
<rscale>  1 0.13928280E+03</rscale>
<asrwt>0</asrwt>
<pdfrwt beam="1">  1       21 0.34944306E-02 0.13928280E+03</pdfrwt>
<pdfrwt beam="2">  1       21 0.70514719E-01 0.13928280E+03</pdfrwt>
<totfact> 0.89924499E+05</totfact>
</mgrwt>
</event>
<event>
 6    1  0.4180481E-002  0.1333108E+03  0.7546771E-02  0.1222624E+00
         21   -1    0    0  504  502  0.00000000000E+00  0.00000000000E+00  0.86998816540E+03  0.86998816540E+03  0.00000000000E+00 0. -1.
         21   -1    0    0  502  503 -0.00000000000E+00 -0.00000000000E+00 -0.93235041132E+01  0.93235041132E+01  0.00000000000E+00 0. -1.
         25    2    1    2    0    0  0.45652504966E+02  0.79195032495E+01  0.60945953511E+03  0.62386914142E+03  0.12499964375E+03 0.  0.
          5    1    3    3  501    0 -0.32768972341E+02  0.21147176965E+02  0.35836413903E+03  0.36048006157E+03  0.10000000000E+00 0. -1.
         -5    1    3    3    0  501  0.78421477307E+02 -0.13227673715E+02  0.25109539608E+03  0.26338907986E+03  0.10000000000E+00 0. -1.
         21    1    1    2  504  503 -0.45652504966E+02 -0.79195032495E+01  0.25120512617E+03  0.25544252809E+03  0.00000000000E+00 0. -1.
<mgrwt>
<rscale>  1 0.13331084E+03</rscale>
<asrwt>0</asrwt>
<pdfrwt beam="1">  1       21 0.13384427E+00 0.13331084E+03</pdfrwt>
<pdfrwt beam="2">  1       21 0.14343859E-02 0.13331084E+03</pdfrwt>
<totfact> 0.85472223E+05</totfact>
</mgrwt>
</event>
<event>
 6    1  0.4180481E-002  0.1262552E+03  0.7546771E-02  0.1233121E+00
         21   -1    0    0  504  502  0.00000000000E+00  0.00000000000E+00  0.15854960885E+02  0.15854960885E+02  0.00000000000E+00 0. -1.
         21   -1    0    0  502  503 -0.00000000000E+00 -0.00000000000E+00 -0.35945102146E+03  0.35945102146E+03  0.00000000000E+00 0. -1.
         25    2    1    2    0    0  0.16549321266E+02  0.65578132022E+01 -0.25044656609E+03  0.28047079229E+03  0.12499399152E+03 0.  0.
          5    1    3    3  501    0 -0.36214943451E+02 -0.40669343721E+02 -0.12646792235E+03  0.13769409222E+03  0.10000000000E+00 0.  1.
         -5    1    3    3    0  501  0.52764264717E+02  0.47227156923E+02 -0.12397864374E+03  0.14277670008E+03  0.10000000000E+00 0.  1.
         21    1    1    2  504  503 -0.16549321266E+02 -0.65578132022E+01 -0.93149494492E+02  0.94835190053E+02  0.00000000000E+00 0.  1.
<mgrwt>
<rscale>  1 0.12625523E+03</rscale>
<asrwt>0</asrwt>
<pdfrwt beam="1">  1       21 0.24392251E-02 0.12625523E+03</pdfrwt>
<pdfrwt beam="2">  1       21 0.55300149E-01 0.12625523E+03</pdfrwt>
<totfact> 0.27233799E+06</totfact>
</mgrwt>
</event>
<event>
 6    1  0.4180481E-002  0.1261598E+03  0.7546771E-02  0.1233268E+00
         21   -1    0    0  504  502  0.00000000000E+00  0.00000000000E+00  0.14721787844E+03  0.14721787844E+03  0.00000000000E+00 0.  1.
         21   -1    0    0  502  503 -0.00000000000E+00 -0.00000000000E+00 -0.73514342920E+02  0.73514342920E+02  0.00000000000E+00 0.  1.
         25    2    1    2    0    0  0.81658771387E+01 -0.15001338925E+02  0.11831760109E+03  0.17296050833E+03  0.12499824397E+03 0.  0.
          5    1    3    3  501    0  0.51530920373E+01 -0.29651935833E+02  0.14188793963E+03  0.14504478297E+03  0.10000000000E+00 0.  1.
         -5    1    3    3    0  501  0.30127851014E+01  0.14650596908E+02 -0.23570338534E+02  0.27915725361E+02  0.10000000000E+00 0.  1.
         21    1    1    2  504  503 -0.81658771387E+01  0.15001338925E+02 -0.44614065570E+02  0.47771713029E+02  0.00000000000E+00 0.  1.
<mgrwt>
<rscale>  1 0.12615975E+03</rscale>
<asrwt>0</asrwt>
<pdfrwt beam="1">  1       21 0.22648904E-01 0.12615975E+03</pdfrwt>
<pdfrwt beam="2">  1       21 0.11309899E-01 0.12615975E+03</pdfrwt>
<totfact> 0.11905776E+06</totfact>
</mgrwt>
</event>
<event>
 6    1  0.4180481E-002  0.1269034E+03  0.7546771E-02  0.1232124E+00
         21   -1    0    0  504  502  0.00000000000E+00  0.00000000000E+00  0.24277151061E+02  0.24277151061E+02  0.00000000000E+00 0. -1.
         21   -1    0    0  502  503 -0.00000000000E+00 -0.00000000000E+00 -0.62179537540E+03  0.62179537540E+03  0.00000000000E+00 0.  1.
         25    2    1    2    0    0  0.18577725728E+02 -0.11650829050E+02 -0.14365557876E+03  0.19168043282E+03  0.12499435710E+03 0.  0.
          5    1    3    3  501    0  0.36363236973E+02 -0.12840252338E+01  0.91301291108E+01  0.37514037127E+02  0.10000000000E+00 0.  1.
         -5    1    3    3    0  501 -0.17785511245E+02 -0.10366803816E+02 -0.15278570787E+03  0.15416639569E+03  0.10000000000E+00 0.  1.
         21    1    1    2  504  503 -0.18577725728E+02  0.11650829050E+02 -0.45386264558E+03  0.45439209364E+03  0.00000000000E+00 0.  1.
<mgrwt>
<rscale>  1 0.12690336E+03</rscale>
<asrwt>0</asrwt>
<pdfrwt beam="1">  1       21 0.37349469E-02 0.12690336E+03</pdfrwt>
<pdfrwt beam="2">  1       21 0.95660812E-01 0.12690336E+03</pdfrwt>
<totfact> 0.40615063E+05</totfact>
</mgrwt>
</event>
<event>
 6    1  0.4180481E-002  0.1318525E+03  0.7546771E-02  0.1224733E+00
         21   -1    0    0  503  502  0.00000000000E+00  0.00000000000E+00  0.14908096303E+03  0.14908096303E+03  0.00000000000E+00 0. -1.
         21   -1    0    0  504  503 -0.00000000000E+00 -0.00000000000E+00 -0.50769066142E+02  0.50769066142E+02  0.00000000000E+00 0. -1.
         25    2    1    2    0    0  0.41307658476E+02  0.72786892374E+01  0.78627614665E+02  0.15351674813E+03  0.12500315277E+03 0.  0.
          5    1    3    3  501    0 -0.11169578270E+02 -0.12493269975E+02 -0.28234822268E+02  0.32833770144E+02  0.10000000000E+00 0.  1.
         -5    1    3    3    0  501  0.52477236746E+02  0.19771959212E+02  0.10686243693E+03  0.12068297798E+03  0.10000000000E+00 0.  1.
         21    1    1    2  504  502 -0.41307658476E+02 -0.72786892374E+01  0.19684282225E+02  0.46333281046E+02  0.00000000000E+00 0. -1.
<mgrwt>
<rscale>  1 0.13185253E+03</rscale>
<asrwt>0</asrwt>
<pdfrwt beam="1">  1       21 0.22935533E-01 0.13185253E+03</pdfrwt>
<pdfrwt beam="2">  1       21 0.78106256E-02 0.13185253E+03</pdfrwt>
<totfact> 0.22186257E+06</totfact>
</mgrwt>
</event>
<event>
 6    1  0.4180481E-002  0.1570126E+03  0.7546771E-02  0.1192111E+00
         21   -1    0    0  503  502  0.00000000000E+00  0.00000000000E+00  0.52037320954E+02  0.52037320954E+02  0.00000000000E+00 0.  1.
         21   -1    0    0  504  503 -0.00000000000E+00 -0.00000000000E+00 -0.57481684639E+03  0.57481684639E+03  0.00000000000E+00 0.  1.
         25    2    1    2    0    0 -0.88392109666E+02  0.34831352745E+02 -0.84323738171E+02  0.17822306547E+03  0.12500632008E+03 0.  0.
          5    1    3    3  501    0 -0.14498067524E+02 -0.20478103735E+02  0.24813322138E+02  0.35288208371E+02  0.10000000000E+00 0. -1.
         -5    1    3    3    0  501 -0.73894042141E+02  0.55309456481E+02 -0.10913706031E+03  0.14293485710E+03  0.10000000000E+00 0. -1.
         21    1    1    2  504  502  0.88392109666E+02 -0.34831352745E+02 -0.43845578727E+03  0.44863110188E+03  0.00000000000E+00 0.  1.
<mgrwt>
<rscale>  1 0.15701264E+03</rscale>
<asrwt>0</asrwt>
<pdfrwt beam="1">  1       21 0.80057412E-02 0.15701264E+03</pdfrwt>
<pdfrwt beam="2">  1       21 0.88433366E-01 0.15701264E+03</pdfrwt>
<totfact> 0.13290270E+05</totfact>
</mgrwt>
</event>
<event>
 6    1  0.4180481E-002  0.1265083E+03  0.7546771E-02  0.1232731E+00
         21   -1    0    0  504  502  0.00000000000E+00  0.00000000000E+00  0.91181085915E+02  0.91181085915E+02  0.00000000000E+00 0.  1.
         21   -1    0    0  502  503 -0.00000000000E+00 -0.00000000000E+00 -0.59436045025E+02  0.59436045025E+02  0.00000000000E+00 0.  1.
         25    2    1    2    0    0 -0.39078235724E+01 -0.19163514968E+02  0.20805778995E+02  0.12820778374E+03  0.12498737529E+03 0.  0.
          5    1    3    3  501    0  0.22167594062E+02 -0.23518787775E+02  0.67336654137E+02  0.74691168121E+02  0.10000000000E+00 0. -1.
         -5    1    3    3    0  501 -0.26075417634E+02  0.43552728069E+01 -0.46530875143E+02  0.53516615621E+02  0.10000000000E+00 0. -1.
         21    1    1    2  504  503  0.39078235724E+01  0.19163514968E+02  0.10939261895E+02  0.22409347197E+02  0.00000000000E+00 0. -1.
<mgrwt>
<rscale>  1 0.12650832E+03</rscale>
<asrwt>0</asrwt>
<pdfrwt beam="1">  1       21 0.14027859E-01 0.12650832E+03</pdfrwt>
<pdfrwt beam="2">  1       21 0.91440069E-02 0.12650832E+03</pdfrwt>
<totfact> 0.41493477E+06</totfact>
</mgrwt>
</event>
<event>
 6    1  0.4180481E-002  0.1768440E+03  0.7546771E-02  0.1170893E+00
         21   -1    0    0  503  502  0.00000000000E+00  0.00000000000E+00  0.39969763241E+03  0.39969763241E+03  0.00000000000E+00 0.  1.
         21   -1    0    0  504  503 -0.00000000000E+00 -0.00000000000E+00 -0.63389818678E+02  0.63389818678E+02  0.00000000000E+00 0.  1.
         25    2    1    2    0    0  0.10976982616E+03 -0.60014318673E+02  0.26646239041E+03  0.31980620200E+03  0.12499067228E+03 0.  0.
          5    1    3    3  501    0  0.36017678362E+02  0.31333429898E+02  0.13679022809E+03  0.14488144631E+03  0.10000000000E+00 0.  1.
         -5    1    3    3    0  501  0.73752147795E+02 -0.91347748571E+02  0.12967216232E+03  0.17492475569E+03  0.10000000000E+00 0.  1.
         21    1    1    2  504  502 -0.10976982616E+03  0.60014318673E+02  0.69845423321E+02  0.14328124909E+03  0.00000000000E+00 0.  1.
<mgrwt>
<rscale>  1 0.17684400E+03</rscale>
<asrwt>0</asrwt>
<pdfrwt beam="1">  1       21 0.61491941E-01 0.17684400E+03</pdfrwt>
<pdfrwt beam="2">  1       21 0.97522801E-02 0.17684400E+03</pdfrwt>
<totfact> 0.20942506E+05</totfact>
</mgrwt>
</event>
<event>
 6    1  0.4180481E-002  0.1271159E+03  0.7546771E-02  0.1231799E+00
         21   -1    0    0  503  502  0.00000000000E+00  0.00000000000E+00  0.50275316083E+02  0.50275316083E+02  0.00000000000E+00 0. -1.
         21   -1    0    0  504  503 -0.00000000000E+00 -0.00000000000E+00 -0.11224764979E+03  0.11224764979E+03  0.00000000000E+00 0. -1.
         25    2    1    2    0    0  0.18047418554E+02  0.14442024204E+02 -0.53210164694E+02  0.13780339902E+03  0.12499669506E+03 0.  0.
          5    1    3    3  501    0  0.53756247097E+02 -0.26813149912E+02 -0.57390593049E+02  0.83080498799E+02  0.10000000000E+00 0. -1.
         -5    1    3    3    0  501 -0.35708828543E+02  0.41255174116E+02  0.41804283548E+01  0.54722900220E+02  0.10000000000E+00 0. -1.
         21    1    1    2  504  502 -0.18047418554E+02 -0.14442024204E+02 -0.87621690109E+01  0.24719566852E+02  0.00000000000E+00 0.  1.
<mgrwt>
<rscale>  1 0.12711591E+03</rscale>
<asrwt>0</asrwt>
<pdfrwt beam="1">  1       21 0.77346641E-02 0.12711591E+03</pdfrwt>
<pdfrwt beam="2">  1       21 0.17268869E-01 0.12711591E+03</pdfrwt>
<totfact> 0.38070155E+06</totfact>
</mgrwt>
</event>
<event>
 6    1  0.4180481E-002  0.1279272E+03  0.7546771E-02  0.1230564E+00
         21   -1    0    0  504  502  0.00000000000E+00  0.00000000000E+00  0.10214691320E+04  0.10214691320E+04  0.00000000000E+00 0. -1.
         21   -1    0    0  502  503 -0.00000000000E+00 -0.00000000000E+00 -0.70358049328E+01  0.70358049328E+01  0.00000000000E+00 0. -1.
         25    2    1    2    0    0  0.64725839761E+01 -0.26406104012E+02  0.94993982889E+03  0.95851502352E+03  0.12500478044E+03 0.  0.
          5    1    3    3  501    0  0.28664363072E+01 -0.32764322740E+02  0.59021817321E+02  0.67567020222E+02  0.10000000000E+00 0.  1.
         -5    1    3    3    0  501  0.36061476688E+01  0.63582187280E+01  0.89091801157E+03  0.89094800330E+03  0.10000000000E+00 0.  1.
         21    1    1    2  504  503 -0.64725839761E+01  0.26406104012E+02  0.64493498194E+02  0.69989913428E+02  0.00000000000E+00 0. -1.
<mgrwt>
<rscale>  1 0.12792721E+03</rscale>
<asrwt>0</asrwt>
<pdfrwt beam="1">  1       21 0.15714898E+00 0.12792721E+03</pdfrwt>
<pdfrwt beam="2">  1       21 0.10824323E-02 0.12792721E+03</pdfrwt>
<totfact> 0.88559019E+05</totfact>
</mgrwt>
</event>
<event>
 6    1  0.4180481E-002  0.1349090E+03  0.7546771E-02  0.1220348E+00
         21   -1    0    0  503  502  0.00000000000E+00  0.00000000000E+00  0.84405407714E+02  0.84405407714E+02  0.00000000000E+00 0.  1.
         21   -1    0    0  504  503 -0.00000000000E+00 -0.00000000000E+00 -0.17386446271E+03  0.17386446271E+03  0.00000000000E+00 0.  1.
         25    2    1    2    0    0  0.22861382524E+02  0.45316689264E+02  0.21163337614E+02  0.13655890591E+03  0.12499681111E+03 0.  0.
          5    1    3    3  501    0 -0.35571702710E+02 -0.22650555186E+02  0.20579286329E+02  0.46924521412E+02  0.10000000000E+00 0. -1.
         -5    1    3    3    0  501  0.58433085234E+02  0.67967244450E+02  0.58405128514E+00  0.89634384496E+02  0.10000000000E+00 0. -1.
         21    1    1    2  504  502 -0.22861382524E+02 -0.45316689264E+02 -0.11062239261E+03  0.12171096452E+03  0.00000000000E+00 0.  1.
<mgrwt>
<rscale>  1 0.13490904E+03</rscale>
<asrwt>0</asrwt>
<pdfrwt beam="1">  1       21 0.12985448E-01 0.13490904E+03</pdfrwt>
<pdfrwt beam="2">  1       21 0.26748378E-01 0.13490904E+03</pdfrwt>
<totfact> 0.68104486E+05</totfact>
</mgrwt>
</event>
<event>
 6    1  0.4180481E-002  0.1313288E+03  0.7546771E-02  0.1225497E+00
         21   -1    0    0  504  502  0.00000000000E+00  0.00000000000E+00  0.21436108580E+03  0.21436108580E+03  0.00000000000E+00 0. -1.
         21   -1    0    0  502  503 -0.00000000000E+00 -0.00000000000E+00 -0.45821505119E+02  0.45821505119E+02  0.00000000000E+00 0. -1.
         25    2    1    2    0    0  0.39217033845E+02  0.97330207837E+01  0.17548277729E+03  0.21918362244E+03  0.12495818414E+03 0.  0.
          5    1    3    3  501    0  0.68497765389E+02  0.47458568519E+02  0.11785510874E+03  0.14434021008E+03  0.10000000000E+00 0. -1.
         -5    1    3    3    0  501 -0.29280731543E+02 -0.37725547735E+02  0.57627668546E+02  0.74843412360E+02  0.10000000000E+00 0. -1.
         21    1    1    2  504  503 -0.39217033845E+02 -0.97330207837E+01 -0.69431966081E+01  0.40998968479E+02  0.00000000000E+00 0. -1.
<mgrwt>
<rscale>  1 0.13132881E+03</rscale>
<asrwt>0</asrwt>
<pdfrwt beam="1">  1       21 0.32978628E-01 0.13132881E+03</pdfrwt>
<pdfrwt beam="2">  1       21 0.70494624E-02 0.13132881E+03</pdfrwt>
<totfact> 0.13214013E+06</totfact>
</mgrwt>
</event>
<event>
 6    1  0.4180481E-002  0.1269772E+03  0.7546771E-02  0.1232011E+00
         21   -1    0    0  503  502  0.00000000000E+00  0.00000000000E+00  0.28089817117E+03  0.28089817117E+03  0.00000000000E+00 0. -1.
         21   -1    0    0  504  503 -0.00000000000E+00 -0.00000000000E+00 -0.13359346480E+03  0.13359346480E+03  0.00000000000E+00 0. -1.
         25    2    1    2    0    0 -0.81623214279E+01 -0.20722515871E+02  0.26545467832E+03  0.29426076627E+03  0.12500866438E+03 0.  0.
          5    1    3    3  501    0 -0.18484955971E+02  0.59434646444E+01  0.26495135698E+03  0.26566190907E+03  0.10000000000E+00 0.  1.
         -5    1    3    3    0  501  0.10322634543E+02 -0.26665980515E+02  0.50332134538E+00  0.28598857200E+02  0.10000000000E+00 0.  1.
         21    1    1    2  504  502  0.81623214279E+01  0.20722515871E+02 -0.11814997195E+03  0.12023086969E+03  0.00000000000E+00 0. -1.
<mgrwt>
<rscale>  1 0.12697721E+03</rscale>
<asrwt>0</asrwt>
<pdfrwt beam="1">  1       21 0.43215103E-01 0.12697721E+03</pdfrwt>
<pdfrwt beam="2">  1       21 0.20552841E-01 0.12697721E+03</pdfrwt>
<totfact> 0.11565935E+05</totfact>
</mgrwt>
</event>
<event>
 6    1  0.4180481E-002  0.1260142E+03  0.7546771E-02  0.1233493E+00
         21   -1    0    0  503  502  0.00000000000E+00  0.00000000000E+00  0.25855350708E+03  0.25855350708E+03  0.00000000000E+00 0. -1.
         21   -1    0    0  504  503 -0.00000000000E+00 -0.00000000000E+00 -0.19964081884E+02  0.19964081884E+02  0.00000000000E+00 0. -1.
         25    2    1    2    0    0  0.15878483441E+02 -0.16539914916E+01  0.22335397244E+03  0.25644994421E+03  0.12499885982E+03 0.  0.
          5    1    3    3  501    0  0.18247063219E+02 -0.44989181444E+02  0.27399649975E+02  0.55747041015E+02  0.10000000000E+00 0.  1.
         -5    1    3    3    0  501 -0.23685797787E+01  0.43335189953E+02  0.19595432247E+03  0.20070290320E+03  0.10000000000E+00 0.  1.
         21    1    1    2  504  502 -0.15878483441E+02  0.16539914916E+01  0.15235452752E+02  0.22067644750E+02  0.00000000000E+00 0. -1.
<mgrwt>
<rscale>  1 0.12601419E+03</rscale>
<asrwt>0</asrwt>
<pdfrwt beam="1">  1       21 0.39777460E-01 0.12601419E+03</pdfrwt>
<pdfrwt beam="2">  1       21 0.30713974E-02 0.12601419E+03</pdfrwt>
<totfact> 0.36648911E+06</totfact>
</mgrwt>
</event>
<event>
 6    1  0.4180481E-002  0.1354794E+03  0.7546771E-02  0.1219544E+00
         21   -1    0    0  504  502  0.00000000000E+00  0.00000000000E+00  0.15097629813E+03  0.15097629813E+03  0.00000000000E+00 0. -1.
         21   -1    0    0  502  503 -0.00000000000E+00 -0.00000000000E+00 -0.58357060950E+02  0.58357060950E+02  0.00000000000E+00 0. -1.
         25    2    1    2    0    0  0.47675037866E+02 -0.21378944485E+02  0.67018841707E+02  0.15114960919E+03  0.12499884284E+03 0.  0.
          5    1    3    3  501    0  0.79610442718E+02 -0.29199676232E+02  0.10072046286E+02  0.85392621451E+02  0.10000000000E+00 0. -1.
         -5    1    3    3    0  501 -0.31935404852E+02  0.78207317475E+01  0.56946795420E+02  0.65756987741E+02  0.10000000000E+00 0. -1.
         21    1    1    2  504  503 -0.47675037866E+02  0.21378944485E+02  0.25600395475E+02  0.58183749890E+02  0.00000000000E+00 0. -1.
<mgrwt>
<rscale>  1 0.13547944E+03</rscale>
<asrwt>0</asrwt>
<pdfrwt beam="1">  1       21 0.23227123E-01 0.13547944E+03</pdfrwt>
<pdfrwt beam="2">  1       21 0.89780094E-02 0.13547944E+03</pdfrwt>
<totfact> 0.17036387E+06</totfact>
</mgrwt>
</event>
<event>
 6    1  0.4180481E-002  0.1315736E+03  0.7546771E-02  0.1225139E+00
         21   -1    0    0  504  502  0.00000000000E+00  0.00000000000E+00  0.27638706162E+02  0.27638706162E+02  0.00000000000E+00 0. -1.
         21   -1    0    0  502  503 -0.00000000000E+00 -0.00000000000E+00 -0.79861657751E+03  0.79861657751E+03  0.00000000000E+00 0. -1.
         25    2    1    2    0    0  0.40413584852E+02  0.72553006658E+01 -0.13344334390E+03  0.18739992374E+03  0.12500283260E+03 0.  0.
          5    1    3    3  501    0 -0.40580348328E+01  0.14681502963E+02  0.21320106010E+02  0.26202501717E+02  0.10000000000E+00 0. -1.
         -5    1    3    3    0  501  0.44471619685E+02 -0.74262022970E+01 -0.15476344991E+03  0.16119742202E+03  0.10000000000E+00 0. -1.
         21    1    1    2  504  503 -0.40413584852E+02 -0.72553006658E+01 -0.63753452745E+03  0.63885535994E+03  0.00000000000E+00 0. -1.
<mgrwt>
<rscale>  1 0.13157357E+03</rscale>
<asrwt>0</asrwt>
<pdfrwt beam="1">  1       21 0.42521090E-02 0.13157357E+03</pdfrwt>
<pdfrwt beam="2">  1       21 0.12286408E+00 0.13157357E+03</pdfrwt>
<totfact> 0.18010327E+05</totfact>
</mgrwt>
</event>
<event>
 6    1  0.4180481E-002  0.1265247E+03  0.7546771E-02  0.1232705E+00
         21   -1    0    0  503  502  0.00000000000E+00  0.00000000000E+00  0.41205825896E+03  0.41205825896E+03  0.00000000000E+00 0. -1.
         21   -1    0    0  504  503 -0.00000000000E+00 -0.00000000000E+00 -0.13196350297E+02  0.13196350297E+02  0.00000000000E+00 0. -1.
         25    2    1    2    0    0 -0.88605209375E+00  0.19552882545E+02  0.36270534149E+03  0.38414016345E+03  0.12500160050E+03 0.  0.
          5    1    3    3  501    0 -0.20759250883E+01  0.71804647362E+02  0.24583521876E+03  0.25611556303E+03  0.10000000000E+00 0. -1.
         -5    1    3    3    0  501  0.11898729946E+01 -0.52251764817E+02  0.11687012273E+03  0.12802460042E+03  0.10000000000E+00 0. -1.
         21    1    1    2  504  502  0.88605209375E+00 -0.19552882545E+02  0.36156567179E+02  0.41114445810E+02  0.00000000000E+00 0. -1.
<mgrwt>
<rscale>  1 0.12652470E+03</rscale>
<asrwt>0</asrwt>
<pdfrwt beam="1">  1       21 0.63393569E-01 0.12652470E+03</pdfrwt>
<pdfrwt beam="2">  1       21 0.20302081E-02 0.12652470E+03</pdfrwt>
<totfact> 0.27453750E+06</totfact>
</mgrwt>
</event>
<event>
 6    1  0.4180481E-002  0.1290695E+03  0.7546771E-02  0.1228843E+00
         21   -1    0    0  504  502  0.00000000000E+00  0.00000000000E+00  0.19909979013E+03  0.19909979013E+03  0.00000000000E+00 0.  1.
         21   -1    0    0  502  503 -0.00000000000E+00 -0.00000000000E+00 -0.33790229961E+02  0.33790229961E+02  0.00000000000E+00 0.  1.
         25    2    1    2    0    0 -0.19020703861E+02 -0.25995682200E+02  0.14781320075E+03  0.19623370738E+03  0.12498545086E+03 0.  0.
          5    1    3    3  501    0 -0.26346677487E+02 -0.54922629646E+02  0.15413108279E+03  0.16573184168E+03  0.10000000000E+00 0.  1.
         -5    1    3    3    0  501  0.73259736264E+01  0.28926947446E+02 -0.63178820410E+01  0.30501865707E+02  0.10000000000E+00 0.  1.
         21    1    1    2  504  503  0.19020703861E+02  0.25995682200E+02  0.17496359411E+02  0.36656312704E+02  0.00000000000E+00 0.  1.
<mgrwt>
<rscale>  1 0.12906946E+03</rscale>
<asrwt>0</asrwt>
<pdfrwt beam="1">  1       21 0.30630736E-01 0.12906946E+03</pdfrwt>
<pdfrwt beam="2">  1       21 0.51984970E-02 0.12906946E+03</pdfrwt>
<totfact> 0.25564737E+06</totfact>
</mgrwt>
</event>
<event>
 6    1  0.4180481E-002  0.1268418E+03  0.7546771E-02  0.1232219E+00
         21   -1    0    0  503  502  0.00000000000E+00  0.00000000000E+00  0.18182017251E+03  0.18182017251E+03  0.00000000000E+00 0. -1.
         21   -1    0    0  504  503 -0.00000000000E+00 -0.00000000000E+00 -0.62695947525E+02  0.62695947525E+02  0.00000000000E+00 0. -1.
         25    2    1    2    0    0 -0.21163648393E+02  0.37668919672E+01  0.15647083917E+03  0.20142483228E+03  0.12500700004E+03 0.  0.
          5    1    3    3  501    0  0.38225545133E+02 -0.29837567386E+02  0.28102291323E+02  0.56046601198E+02  0.10000000000E+00 0. -1.
         -5    1    3    3    0  501 -0.59389193526E+02  0.33604459353E+02  0.12836854785E+03  0.14537823109E+03  0.10000000000E+00 0. -1.
         21    1    1    2  504  502  0.21163648393E+02 -0.37668919672E+01 -0.37346614191E+02  0.43091287750E+02  0.00000000000E+00 0. -1.
<mgrwt>
<rscale>  1 0.12684179E+03</rscale>
<asrwt>0</asrwt>
<pdfrwt beam="1">  1       21 0.27972334E-01 0.12684179E+03</pdfrwt>
<pdfrwt beam="2">  1       21 0.96455304E-02 0.12684179E+03</pdfrwt>
<totfact> 0.10560939E+06</totfact>
</mgrwt>
</event>
<event>
 6    1  0.4180481E-002  0.1603938E+03  0.7546771E-02  0.1188253E+00
         21   -1    0    0  503  502  0.00000000000E+00  0.00000000000E+00  0.19284804072E+03  0.19284804072E+03  0.00000000000E+00 0. -1.
         21   -1    0    0  504  503 -0.00000000000E+00 -0.00000000000E+00 -0.31868025520E+03  0.31868025520E+03  0.00000000000E+00 0.  1.
         25    2    1    2    0    0  0.72228987465E+02 -0.69871756571E+02  0.14898542899E+03  0.21891280392E+03  0.12500827442E+03 0.  0.
          5    1    3    3  501    0  0.61747105971E+01  0.24226754983E+02 -0.62204886094E+01  0.25763679600E+02  0.10000000000E+00 0. -1.
         -5    1    3    3    0  501  0.66054276868E+02 -0.94098511554E+02  0.15520591760E+03  0.19314912432E+03  0.10000000000E+00 0. -1.
         21    1    1    2  504  502 -0.72228987465E+02  0.69871756571E+02 -0.27481764347E+03  0.29261549200E+03  0.00000000000E+00 0.  1.
<mgrwt>
<rscale>  1 0.16039376E+03</rscale>
<asrwt>0</asrwt>
<pdfrwt beam="1">  1       21 0.29668930E-01 0.16039376E+03</pdfrwt>
<pdfrwt beam="2">  1       21 0.49027731E-01 0.16039376E+03</pdfrwt>
<totfact> 0.43945412E+04</totfact>
</mgrwt>
</event>
<event>
 6    1  0.4180481E-002  0.1373358E+03  0.7546771E-02  0.1216959E+00
         21   -1    0    0  503  502  0.00000000000E+00  0.00000000000E+00  0.20696831021E+02  0.20696831021E+02  0.00000000000E+00 0.  1.
         21   -1    0    0  504  503 -0.00000000000E+00 -0.00000000000E+00 -0.47199793853E+03  0.47199793853E+03  0.00000000000E+00 0.  1.
         25    2    1    2    0    0 -0.21391487021E+02 -0.52603498315E+02 -0.35840619548E+03  0.38381782786E+03  0.12504559277E+03 0.  0.
          5    1    3    3  501    0  0.12635354337E+02 -0.80049679603E+02 -0.30065854948E+03  0.31138910829E+03  0.10000000000E+00 0.  1.
         -5    1    3    3    0  501 -0.34026841358E+02  0.27446181287E+02 -0.57747645997E+02  0.72428719568E+02  0.10000000000E+00 0.  1.
         21    1    1    2  504  502  0.21391487021E+02  0.52603498315E+02 -0.92894912030E+02  0.10887694170E+03  0.00000000000E+00 0.  1.
<mgrwt>
<rscale>  1 0.13733581E+03</rscale>
<asrwt>0</asrwt>
<pdfrwt beam="1">  1       21 0.31841280E-02 0.13733581E+03</pdfrwt>
<pdfrwt beam="2">  1       21 0.72615064E-01 0.13733581E+03</pdfrwt>
<totfact> 0.98306466E+05</totfact>
</mgrwt>
</event>
<event>
 6    1  0.4180481E-002  0.1264120E+03  0.7546771E-02  0.1232879E+00
         21   -1    0    0  503  502  0.00000000000E+00  0.00000000000E+00  0.33588911304E+02  0.33588911304E+02  0.00000000000E+00 0. -1.
         21   -1    0    0  504  503 -0.00000000000E+00 -0.00000000000E+00 -0.21202573694E+03  0.21202573694E+03  0.00000000000E+00 0. -1.
         25    2    1    2    0    0  0.73348058347E+01 -0.17363573059E+02 -0.89964573979E+02  0.15515674445E+03  0.12499879092E+03 0.  0.
          5    1    3    3  501    0 -0.33563396343E+02 -0.58757687393E+02 -0.41110274152E+02  0.79177219215E+02  0.10000000000E+00 0. -1.
         -5    1    3    3    0  501  0.40898202178E+02  0.41394114334E+02 -0.48854299827E+02  0.75979525232E+02  0.10000000000E+00 0. -1.
         21    1    1    2  504  502 -0.73348058347E+01  0.17363573059E+02 -0.88472251653E+02  0.90457903793E+02  0.00000000000E+00 0. -1.
<mgrwt>
<rscale>  1 0.12641199E+03</rscale>
<asrwt>0</asrwt>
<pdfrwt beam="1">  1       21 0.51675248E-02 0.12641199E+03</pdfrwt>
<pdfrwt beam="2">  1       21 0.32619344E-01 0.12641199E+03</pdfrwt>
<totfact> 0.22841387E+06</totfact>
</mgrwt>
</event>
<event>
 6    1  0.4180481E-002  0.1274649E+03  0.7546771E-02  0.1231267E+00
         21   -1    0    0  504  502  0.00000000000E+00  0.00000000000E+00  0.19026688411E+03  0.19026688411E+03  0.00000000000E+00 0.  1.
         21   -1    0    0  502  503 -0.00000000000E+00 -0.00000000000E+00 -0.31306967362E+02  0.31306967362E+02  0.00000000000E+00 0.  1.
         25    2    1    2    0    0  0.24582288003E+02 -0.45322795742E+01  0.11864108509E+03  0.17413506325E+03  0.12498993056E+03 0.  0.
          5    1    3    3  501    0 -0.40164132645E+02  0.14836072277E+02  0.92030875853E+02  0.10150349108E+03  0.10000000000E+00 0. -1.
         -5    1    3    3    0  501  0.64746420648E+02 -0.19368351851E+02  0.26610209241E+02  0.72631572171E+02  0.10000000000E+00 0. -1.
         21    1    1    2  504  503 -0.24582288003E+02  0.45322795742E+01  0.40318831658E+02  0.47438788221E+02  0.00000000000E+00 0.  1.
<mgrwt>
<rscale>  1 0.12746495E+03</rscale>
<asrwt>0</asrwt>
<pdfrwt beam="1">  1       21 0.29271828E-01 0.12746495E+03</pdfrwt>
<pdfrwt beam="2">  1       21 0.48164566E-02 0.12746495E+03</pdfrwt>
<totfact> 0.31704334E+06</totfact>
</mgrwt>
</event>
<event>
 6    1  0.4180481E-002  0.1264730E+03  0.7546771E-02  0.1232785E+00
         21   -1    0    0  503  502  0.00000000000E+00  0.00000000000E+00  0.24040219158E+02  0.24040219158E+02  0.00000000000E+00 0.  1.
         21   -1    0    0  504  503 -0.00000000000E+00 -0.00000000000E+00 -0.46807128518E+03  0.46807128518E+03  0.00000000000E+00 0. -1.
         25    2    1    2    0    0  0.14241998228E+02 -0.12927553675E+02 -0.14477290959E+03  0.19223586286E+03  0.12500190184E+03 0.  0.
          5    1    3    3  501    0 -0.93249727311E+01 -0.45887871571E+02 -0.54517426443E+01  0.47142161296E+02  0.10000000000E+00 0.  1.
         -5    1    3    3    0  501  0.23566970959E+02  0.32960317896E+02 -0.13932116695E+03  0.14509370157E+03  0.10000000000E+00 0.  1.
         21    1    1    2  504  502 -0.14241998228E+02  0.12927553675E+02 -0.29925815643E+03  0.29987564148E+03  0.00000000000E+00 0. -1.
<mgrwt>
<rscale>  1 0.12647305E+03</rscale>
<asrwt>0</asrwt>
<pdfrwt beam="1">  1       21 0.36984954E-02 0.12647305E+03</pdfrwt>
<pdfrwt beam="2">  1       21 0.72010964E-01 0.12647305E+03</pdfrwt>
<totfact> 0.78207317E+05</totfact>
</mgrwt>
</event>
<event>
 6    1  0.4180481E-002  0.1320348E+03  0.7546771E-02  0.1224467E+00
         21   -1    0    0  503  502  0.00000000000E+00  0.00000000000E+00  0.20032686163E+02  0.20032686163E+02  0.00000000000E+00 0.  1.
         21   -1    0    0  504  503 -0.00000000000E+00 -0.00000000000E+00 -0.45494095789E+03  0.45494095789E+03  0.00000000000E+00 0.  1.
         25    2    1    2    0    0  0.22852885145E+02 -0.35872079171E+02 -0.22568334143E+03  0.26146923689E+03  0.12499652321E+03 0.  0.
          5    1    3    3  501    0  0.18167179619E+02 -0.77183270609E+02 -0.19277439421E+03  0.20844491057E+03  0.10000000000E+00 0. -1.
         -5    1    3    3    0  501  0.46857055260E+01  0.41311191439E+02 -0.32908947220E+02  0.53024326318E+02  0.10000000000E+00 0. -1.
         21    1    1    2  504  502 -0.22852885145E+02  0.35872079171E+02 -0.20922493029E+03  0.21350440717E+03  0.00000000000E+00 0.  1.
<mgrwt>
<rscale>  1 0.13203481E+03</rscale>
<asrwt>0</asrwt>
<pdfrwt beam="1">  1       21 0.30819519E-02 0.13203481E+03</pdfrwt>
<pdfrwt beam="2">  1       21 0.69990912E-01 0.13203481E+03</pdfrwt>
<totfact> 0.11242486E+06</totfact>
</mgrwt>
</event>
<event>
 6    1  0.4180481E-002  0.1306365E+03  0.7546771E-02  0.1226514E+00
         21   -1    0    0  504  502  0.00000000000E+00  0.00000000000E+00  0.51868578809E+02  0.51868578809E+02  0.00000000000E+00 0.  1.
         21   -1    0    0  502  503 -0.00000000000E+00 -0.00000000000E+00 -0.14863114140E+03  0.14863114140E+03  0.00000000000E+00 0.  1.
         25    2    1    2    0    0  0.26891473424E+01  0.37836057278E+02 -0.49038061166E+02  0.13953721714E+03  0.12500841884E+03 0.  0.
          5    1    3    3  501    0  0.57140313263E+02 -0.99369841936E+01 -0.17968522942E+02  0.60717681703E+02  0.10000000000E+00 0.  1.
         -5    1    3    3    0  501 -0.54451165921E+02  0.47773041472E+02 -0.31069538224E+02  0.78819535440E+02  0.10000000000E+00 0.  1.
         21    1    1    2  504  503 -0.26891473424E+01 -0.37836057278E+02 -0.47724501424E+02  0.60962503065E+02  0.00000000000E+00 0. -1.
<mgrwt>
<rscale>  1 0.13063653E+03</rscale>
<asrwt>0</asrwt>
<pdfrwt beam="1">  1       21 0.79797815E-02 0.13063653E+03</pdfrwt>
<pdfrwt beam="2">  1       21 0.22866329E-01 0.13063653E+03</pdfrwt>
<totfact> 0.21497323E+06</totfact>
</mgrwt>
</event>
<event>
 6    1  0.4180481E-002  0.1304561E+03  0.7546771E-02  0.1226780E+00
         21   -1    0    0  504  502  0.00000000000E+00  0.00000000000E+00  0.10317258166E+03  0.10317258166E+03  0.00000000000E+00 0. -1.
         21   -1    0    0  502  503 -0.00000000000E+00 -0.00000000000E+00 -0.72378136879E+02  0.72378136879E+02  0.00000000000E+00 0. -1.
         25    2    1    2    0    0  0.28550821970E+02  0.24049841957E+02  0.41182574851E+02  0.13680207237E+03  0.12500103279E+03 0.  0.
          5    1    3    3  501    0 -0.32562780677E+02  0.12505211192E+02 -0.27298411702E+02  0.44293659522E+02  0.10000000000E+00 0.  1.
         -5    1    3    3    0  501  0.61113602647E+02  0.11544630765E+02  0.68480986553E+02  0.92508412846E+02  0.10000000000E+00 0.  1.
         21    1    1    2  504  503 -0.28550821970E+02 -0.24049841957E+02 -0.10388130073E+02  0.38748646167E+02  0.00000000000E+00 0. -1.
<mgrwt>
<rscale>  1 0.13045613E+03</rscale>
<asrwt>0</asrwt>
<pdfrwt beam="1">  1       21 0.15872705E-01 0.13045613E+03</pdfrwt>
<pdfrwt beam="2">  1       21 0.11135098E-01 0.13045613E+03</pdfrwt>
<totfact> 0.23554822E+06</totfact>
</mgrwt>
</event>
<event>
 6    1  0.4180481E-002  0.1436550E+03  0.7546771E-02  0.1208494E+00
         21   -1    0    0  503  502  0.00000000000E+00  0.00000000000E+00  0.27883773324E+02  0.27883773324E+02  0.00000000000E+00 0. -1.
         21   -1    0    0  504  503 -0.00000000000E+00 -0.00000000000E+00 -0.41299354826E+03  0.41299354826E+03  0.00000000000E+00 0. -1.
         25    2    1    2    0    0  0.35954669753E+02 -0.60983783932E+02 -0.24950535585E+03  0.28790569463E+03  0.12500002487E+03 0.  0.
          5    1    3    3  501    0  0.29510416341E+02 -0.71339113335E+02 -0.59398703695E+02  0.97408160668E+02  0.10000000000E+00 0. -1.
         -5    1    3    3    0  501  0.64442534120E+01  0.10355329403E+02 -0.19010665216E+03  0.19049753396E+03  0.10000000000E+00 0. -1.
         21    1    1    2  504  502 -0.35954669753E+02  0.60983783932E+02 -0.13560441908E+03  0.15297162696E+03  0.00000000000E+00 0. -1.
<mgrwt>
<rscale>  1 0.14365503E+03</rscale>
<asrwt>0</asrwt>
<pdfrwt beam="1">  1       21 0.42898116E-02 0.14365503E+03</pdfrwt>
<pdfrwt beam="2">  1       21 0.63537464E-01 0.14365503E+03</pdfrwt>
<totfact> 0.80156260E+05</totfact>
</mgrwt>
</event>
<event>
 6    1  0.4180481E-002  0.1261731E+03  0.7546771E-02  0.1233247E+00
         21   -1    0    0  503  502  0.00000000000E+00  0.00000000000E+00  0.35939042987E+03  0.35939042987E+03  0.00000000000E+00 0.  1.
         21   -1    0    0  504  503 -0.00000000000E+00 -0.00000000000E+00 -0.15935629612E+02  0.15935629612E+02  0.00000000000E+00 0.  1.
         25    2    1    2    0    0  0.46045409333E+01 -0.16510061866E+02  0.33072592742E+03  0.35397639570E+03  0.12500346276E+03 0.  0.
          5    1    3    3  501    0  0.53141176460E+02 -0.26539012771E+02  0.26546265276E+03  0.27202708292E+03  0.10000000000E+00 0.  1.
         -5    1    3    3    0  501 -0.48536635527E+02  0.10028950905E+02  0.65263274663E+02  0.81949312775E+02  0.10000000000E+00 0.  1.
         21    1    1    2  504  502 -0.46045409333E+01  0.16510061866E+02  0.12728872837E+02  0.21349663785E+02  0.00000000000E+00 0.  1.
<mgrwt>
<rscale>  1 0.12617309E+03</rscale>
<asrwt>0</asrwt>
<pdfrwt beam="1">  1       21 0.55290829E-01 0.12617309E+03</pdfrwt>
<pdfrwt beam="2">  1       21 0.24516356E-02 0.12617309E+03</pdfrwt>
<totfact> 0.27019082E+06</totfact>
</mgrwt>
</event>
<event>
 6    1  0.4180481E-002  0.1428600E+03  0.7546771E-02  0.1209532E+00
         21   -1    0    0  503  502  0.00000000000E+00  0.00000000000E+00  0.76444439339E+03  0.76444439339E+03  0.00000000000E+00 0. -1.
         21   -1    0    0  504  503 -0.00000000000E+00 -0.00000000000E+00 -0.19728548103E+02  0.19728548103E+02  0.00000000000E+00 0. -1.
         25    2    1    2    0    0 -0.64385945386E+02  0.25263207209E+02  0.65760155038E+03  0.67294039239E+03  0.12500077221E+03 0.  0.
          5    1    3    3  501    0 -0.66370021624E+01 -0.47752963874E+02  0.17962834029E+03  0.18598587579E+03  0.10000000000E+00 0.  1.
         -5    1    3    3    0  501 -0.57748943223E+02  0.73016171083E+02  0.47797321008E+03  0.48695451660E+03  0.10000000000E+00 0.  1.
         21    1    1    2  504  502  0.64385945386E+02 -0.25263207209E+02  0.87114294910E+02  0.11123254910E+03  0.00000000000E+00 0. -1.
<mgrwt>
<rscale>  1 0.14285998E+03</rscale>
<asrwt>0</asrwt>
<pdfrwt beam="1">  1       21 0.11760681E+00 0.14285998E+03</pdfrwt>
<pdfrwt beam="2">  1       21 0.30351618E-02 0.14285998E+03</pdfrwt>
<totfact> 0.34910757E+05</totfact>
</mgrwt>
</event>
<event>
 6    1  0.4180481E-002  0.1307130E+03  0.7546771E-02  0.1226402E+00
         21   -1    0    0  504  502  0.00000000000E+00  0.00000000000E+00  0.58560807295E+01  0.58560807295E+01  0.00000000000E+00 0. -1.
         21   -1    0    0  502  503 -0.00000000000E+00 -0.00000000000E+00 -0.12195959677E+04  0.12195959677E+04  0.00000000000E+00 0. -1.
         25    2    1    2    0    0 -0.37961390360E+02 -0.43162540882E+01 -0.92096799869E+03  0.93019779228E+03  0.12500472368E+03 0.  0.
          5    1    3    3  501    0 -0.74140010647E+02 -0.36091581617E+02 -0.56341629052E+03  0.56941836102E+03  0.10000000000E+00 0. -1.
         -5    1    3    3    0  501  0.36178620286E+02  0.31775327529E+02 -0.35755170817E+03  0.36077943126E+03  0.10000000000E+00 0. -1.
         21    1    1    2  504  503  0.37961390360E+02  0.43162540882E+01 -0.29277188833E+03  0.29525425620E+03  0.00000000000E+00 0. -1.
<mgrwt>
<rscale>  1 0.13071296E+03</rscale>
<asrwt>0</asrwt>
<pdfrwt beam="1">  1       21 0.90093513E-03 0.13071296E+03</pdfrwt>
<pdfrwt beam="2">  1       21 0.18763023E+00 0.13071296E+03</pdfrwt>
<totfact> 0.72977134E+05</totfact>
</mgrwt>
</event>
<event>
 6    1  0.4180481E-002  0.1688896E+03  0.7546771E-02  0.1179011E+00
         21   -1    0    0  503  502  0.00000000000E+00  0.00000000000E+00  0.71028192850E+03  0.71028192850E+03  0.00000000000E+00 0. -1.
         21   -1    0    0  504  503 -0.00000000000E+00 -0.00000000000E+00 -0.32497404890E+02  0.32497404890E+02  0.00000000000E+00 0. -1.
         25    2    1    2    0    0 -0.41123519968E+02  0.10586240129E+03  0.53086211162E+03  0.55708014910E+03  0.12500287624E+03 0.  0.
          5    1    3    3  501    0 -0.55987088354E+01  0.12473371815E+03  0.44631796221E+03  0.46345396684E+03  0.10000000000E+00 0.  1.
         -5    1    3    3    0  501 -0.35524811133E+02 -0.18871316865E+02  0.84544149412E+02  0.93626182268E+02  0.10000000000E+00 0.  1.
         21    1    1    2  504  502  0.41123519968E+02 -0.10586240129E+03  0.14692241199E+03  0.18569918429E+03  0.00000000000E+00 0. -1.
<mgrwt>
<rscale>  1 0.16888964E+03</rscale>
<asrwt>0</asrwt>
<pdfrwt beam="1">  1       21 0.10927413E+00 0.16888964E+03</pdfrwt>
<pdfrwt beam="2">  1       21 0.49996013E-02 0.16888964E+03</pdfrwt>
<totfact> 0.18005338E+05</totfact>
</mgrwt>
</event>
<event>
 6    1  0.4180481E-002  0.1317578E+03  0.7546771E-02  0.1224871E+00
         21   -1    0    0  503  502  0.00000000000E+00  0.00000000000E+00  0.63552772412E+02  0.63552772412E+02  0.00000000000E+00 0.  1.
         21   -1    0    0  504  503 -0.00000000000E+00 -0.00000000000E+00 -0.44953205295E+03  0.44953205295E+03  0.00000000000E+00 0.  1.
         25    2    1    2    0    0  0.18256786043E+02 -0.37458605494E+02 -0.71298983847E+01  0.13195058166E+03  0.12499465264E+03 0.  0.
          5    1    3    3  501    0 -0.52923355947E+02 -0.75910367035E+01  0.54405300926E+01  0.53741183562E+02  0.10000000000E+00 0. -1.
         -5    1    3    3    0  501  0.71180141991E+02 -0.29867568790E+02 -0.12570428477E+02  0.78209398101E+02  0.10000000000E+00 0. -1.
         21    1    1    2  504  502 -0.18256786043E+02  0.37458605494E+02 -0.37884938215E+03  0.38113424370E+03  0.00000000000E+00 0.  1.
<mgrwt>
<rscale>  1 0.13175781E+03</rscale>
<asrwt>0</asrwt>
<pdfrwt beam="1">  1       21 0.97773498E-02 0.13175781E+03</pdfrwt>
<pdfrwt beam="2">  1       21 0.69158776E-01 0.13175781E+03</pdfrwt>
<totfact> 0.16385458E+05</totfact>
</mgrwt>
</event>
<event>
 6    1  0.4180481E-002  0.1258748E+03  0.7546771E-02  0.1233708E+00
         21   -1    0    0  504  502  0.00000000000E+00  0.00000000000E+00  0.28968100517E+03  0.28968100517E+03  0.00000000000E+00 0.  1.
         21   -1    0    0  502  503 -0.00000000000E+00 -0.00000000000E+00 -0.17327648446E+02  0.17327648446E+02  0.00000000000E+00 0.  1.
         25    2    1    2    0    0 -0.10400078729E+02  0.10942086286E+02  0.25177021691E+03  0.28148304815E+03  0.12496628899E+03 0.  0.
          5    1    3    3  501    0  0.29448556949E+02 -0.29166030458E+01  0.36680808562E+01  0.29819270562E+02  0.10000000000E+00 0. -1.
         -5    1    3    3    0  501 -0.39848635677E+02  0.13858689332E+02  0.24810213605E+03  0.25166377758E+03  0.10000000000E+00 0. -1.
         21    1    1    2  504  503  0.10400078729E+02 -0.10942086286E+02  0.20583139824E+02  0.25525605475E+02  0.00000000000E+00 0.  1.
<mgrwt>
<rscale>  1 0.12587480E+03</rscale>
<asrwt>0</asrwt>
<pdfrwt beam="1">  1       21 0.44566305E-01 0.12587480E+03</pdfrwt>
<pdfrwt beam="2">  1       21 0.26657923E-02 0.12587480E+03</pdfrwt>
<totfact> 0.36755045E+06</totfact>
</mgrwt>
</event>
<event>
 6    1  0.4180481E-002  0.1262082E+03  0.7546771E-02  0.1233193E+00
         21   -1    0    0  504  502  0.00000000000E+00  0.00000000000E+00  0.34007892429E+02  0.34007892429E+02  0.00000000000E+00 0.  1.
         21   -1    0    0  502  503 -0.00000000000E+00 -0.00000000000E+00 -0.26820472775E+03  0.26820472775E+03  0.00000000000E+00 0.  1.
         25    2    1    2    0    0  0.10865950760E+02 -0.12944763218E+02 -0.85232819695E+02  0.15229292924E+03  0.12507144743E+03 0.  0.
          5    1    3    3  501    0  0.60559730283E+02 -0.28571343670E+02 -0.72449096575E+02  0.98654367393E+02  0.10000000000E+00 0. -1.
         -5    1    3    3    0  501 -0.49693779523E+02  0.15626580452E+02 -0.12783723120E+02  0.53638561844E+02  0.10000000000E+00 0. -1.
         21    1    1    2  504  503 -0.10865950760E+02  0.12944763218E+02 -0.14896401563E+03  0.14991969095E+03  0.00000000000E+00 0.  1.
<mgrwt>
<rscale>  1 0.12620817E+03</rscale>
<asrwt>0</asrwt>
<pdfrwt beam="1">  1       21 0.52319836E-02 0.12620817E+03</pdfrwt>
<pdfrwt beam="2">  1       21 0.41262265E-01 0.12620817E+03</pdfrwt>
<totfact> 0.14060654E+06</totfact>
</mgrwt>
</event>
<event>
 6    1  0.4180481E-002  0.1562428E+03  0.7546771E-02  0.1193005E+00
         21   -1    0    0  504  502  0.00000000000E+00  0.00000000000E+00  0.18573687461E+03  0.18573687461E+03  0.00000000000E+00 0. -1.
         21   -1    0    0  502  503 -0.00000000000E+00 -0.00000000000E+00 -0.85188939523E+02  0.85188939523E+02  0.00000000000E+00 0. -1.
         25    2    1    2    0    0  0.62352374594E+02 -0.69989154754E+02  0.47916497132E+02  0.16342526222E+03  0.12500210092E+03 0.  0.
          5    1    3    3  501    0 -0.31225900419E+02 -0.33230560393E+02  0.43140388365E+02  0.62772845318E+02  0.10000000000E+00 0.  1.
         -5    1    3    3    0  501  0.93578275012E+02 -0.36758594361E+02  0.47761087672E+01  0.10065241690E+03  0.10000000000E+00 0.  1.
         21    1    1    2  504  503 -0.62352374594E+02  0.69989154754E+02  0.52631437959E+02  0.10750055192E+03  0.00000000000E+00 0. -1.
<mgrwt>
<rscale>  1 0.15624284E+03</rscale>
<asrwt>0</asrwt>
<pdfrwt beam="1">  1       21 0.28574904E-01 0.15624284E+03</pdfrwt>
<pdfrwt beam="2">  1       21 0.13105991E-01 0.15624284E+03</pdfrwt>
<totfact> 0.58965244E+05</totfact>
</mgrwt>
</event>
<event>
 6    1  0.4180481E-002  0.2005517E+03  0.7546771E-02  0.1149274E+00
         21   -1    0    0  503  502  0.00000000000E+00  0.00000000000E+00  0.35348281032E+03  0.35348281032E+03  0.00000000000E+00 0.  1.
         21   -1    0    0  504  503 -0.00000000000E+00 -0.00000000000E+00 -0.17211458701E+03  0.17211458701E+03  0.00000000000E+00 0.  1.
         25    2    1    2    0    0 -0.12302520549E+03 -0.97267755944E+02  0.27694655854E+03  0.34193619920E+03  0.12499900202E+03 0.  0.
          5    1    3    3  501    0 -0.61193905311E+02 -0.58667160452E+02  0.39445363316E+02  0.93501210954E+02  0.10000000000E+00 0.  1.
         -5    1    3    3    0  501 -0.61831300179E+02 -0.38600595492E+02  0.23750119522E+03  0.24843498825E+03  0.10000000000E+00 0.  1.
         21    1    1    2  504  502  0.12302520549E+03  0.97267755944E+02 -0.95578335227E+02  0.18366119813E+03  0.00000000000E+00 0.  1.
<mgrwt>
<rscale>  1 0.20055166E+03</rscale>
<asrwt>0</asrwt>
<pdfrwt beam="1">  1       21 0.54381971E-01 0.20055166E+03</pdfrwt>
<pdfrwt beam="2">  1       21 0.26479167E-01 0.20055166E+03</pdfrwt>
<totfact> 0.43170576E+04</totfact>
</mgrwt>
</event>
<event>
 6    1  0.4180481E-002  0.1362038E+03  0.7546771E-02  0.1218530E+00
         21   -1    0    0  503  502  0.00000000000E+00  0.00000000000E+00  0.63539892908E+02  0.63539892908E+02  0.00000000000E+00 0.  1.
         21   -1    0    0  504  503 -0.00000000000E+00 -0.00000000000E+00 -0.14250496616E+03  0.14250496616E+03  0.00000000000E+00 0.  1.
         25    2    1    2    0    0  0.49615863784E+02  0.21567830848E+02 -0.57379332415E+02  0.14779668765E+03  0.12499827128E+03 0.  0.
          5    1    3    3  501    0 -0.37684208259E+02  0.26395034786E+02 -0.60370142470E+01  0.46403156730E+02  0.10000000000E+00 0.  1.
         -5    1    3    3    0  501  0.87300072043E+02 -0.48272039373E+01 -0.51342318168E+02  0.10139353092E+03  0.10000000000E+00 0.  1.
         21    1    1    2  504  502 -0.49615863784E+02 -0.21567830848E+02 -0.21585740835E+02  0.58248171421E+02  0.00000000000E+00 0.  1.
<mgrwt>
<rscale>  1 0.13620379E+03</rscale>
<asrwt>0</asrwt>
<pdfrwt beam="1">  1       21 0.97753683E-02 0.13620379E+03</pdfrwt>
<pdfrwt beam="2">  1       21 0.21923841E-01 0.13620379E+03</pdfrwt>
<totfact> 0.16365814E+06</totfact>
</mgrwt>
</event>
<event>
 6    1  0.4180481E-002  0.1259689E+03  0.7546771E-02  0.1233563E+00
         21   -1    0    0  503  502  0.00000000000E+00  0.00000000000E+00  0.40168220113E+02  0.40168220113E+02  0.00000000000E+00 0. -1.
         21   -1    0    0  504  503 -0.00000000000E+00 -0.00000000000E+00 -0.17969985332E+03  0.17969985332E+03  0.00000000000E+00 0. -1.
         25    2    1    2    0    0  0.38240133836E+01  0.15117852308E+02 -0.61290549076E+02  0.14008812744E+03  0.12499991803E+03 0.  0.
          5    1    3    3  501    0  0.55287172730E+02  0.87182322393E+00  0.43567732966E+01  0.55465511967E+02  0.10000000000E+00 0.  1.
         -5    1    3    3    0  501 -0.51463159347E+02  0.14246029084E+02 -0.65647322372E+02  0.84622615472E+02  0.10000000000E+00 0.  1.
         21    1    1    2  504  502 -0.38240133836E+01 -0.15117852308E+02 -0.78241084135E+02  0.79779945997E+02  0.00000000000E+00 0.  1.
<mgrwt>
<rscale>  1 0.12596885E+03</rscale>
<asrwt>0</asrwt>
<pdfrwt beam="1">  1       21 0.61797261E-02 0.12596885E+03</pdfrwt>
<pdfrwt beam="2">  1       21 0.27646131E-01 0.12596885E+03</pdfrwt>
<totfact> 0.23225416E+06</totfact>
</mgrwt>
</event>
<event>
 6    1  0.4180481E-002  0.1393909E+03  0.7546771E-02  0.1214151E+00
         21   -1    0    0  503  502  0.00000000000E+00  0.00000000000E+00  0.22853735200E+02  0.22853735200E+02  0.00000000000E+00 0.  1.
         21   -1    0    0  504  503 -0.00000000000E+00 -0.00000000000E+00 -0.53680734960E+03  0.53680734960E+03  0.00000000000E+00 0.  1.
         25    2    1    2    0    0  0.14747896432E+01  0.61674397008E+02 -0.22884992659E+03  0.26795914951E+03  0.12499564254E+03 0.  0.
          5    1    3    3  501    0  0.36565459318E+02  0.76630299088E+02 -0.89019435984E+02  0.12301912671E+03  0.10000000000E+00 0. -1.
         -5    1    3    3    0  501 -0.35090669675E+02 -0.14955902080E+02 -0.13983049061E+03  0.14494002280E+03  0.10000000000E+00 0. -1.
         21    1    1    2  504  502 -0.14747896432E+01 -0.61674397008E+02 -0.28510368781E+03  0.29170193529E+03  0.00000000000E+00 0. -1.
<mgrwt>
<rscale>  1 0.13939088E+03</rscale>
<asrwt>0</asrwt>
<pdfrwt beam="1">  1       21 0.35159597E-02 0.13939088E+03</pdfrwt>
<pdfrwt beam="2">  1       21 0.82585737E-01 0.13939088E+03</pdfrwt>
<totfact> 0.62679611E+05</totfact>
</mgrwt>
</event>
<event>
 6    1  0.4180481E-002  0.1329167E+03  0.7546771E-02  0.1223191E+00
         21   -1    0    0  504  502  0.00000000000E+00  0.00000000000E+00  0.46088508232E+03  0.46088508232E+03  0.00000000000E+00 0. -1.
         21   -1    0    0  502  503 -0.00000000000E+00 -0.00000000000E+00 -0.10445831211E+03  0.10445831211E+03  0.00000000000E+00 0.  1.
         25    2    1    2    0    0  0.14640115343E+02 -0.42748841815E+02  0.44580198957E+03  0.46519487327E+03  0.12500023901E+03 0.  0.
          5    1    3    3  501    0  0.68008709155E+02 -0.29236110111E+02  0.19888359157E+03  0.21221363682E+03  0.10000000000E+00 0. -1.
         -5    1    3    3    0  501 -0.53368593812E+02 -0.13512731703E+02  0.24691839800E+03  0.25298123645E+03  0.10000000000E+00 0. -1.
         21    1    1    2  504  503 -0.14640115343E+02  0.42748841815E+02 -0.89375219371E+02  0.10014852116E+03  0.00000000000E+00 0.  1.
<mgrwt>
<rscale>  1 0.13291673E+03</rscale>
<asrwt>0</asrwt>
<pdfrwt beam="1">  1       21 0.70905396E-01 0.13291673E+03</pdfrwt>
<pdfrwt beam="2">  1       21 0.16070510E-01 0.13291673E+03</pdfrwt>
<totfact> 0.64060617E+04</totfact>
</mgrwt>
</event>
<event>
 6    1  0.4180481E-002  0.1269554E+03  0.7546771E-02  0.1232045E+00
         21   -1    0    0  503  502  0.00000000000E+00  0.00000000000E+00  0.69751261268E+03  0.69751261268E+03  0.00000000000E+00 0.  1.
         21   -1    0    0  504  503 -0.00000000000E+00 -0.00000000000E+00 -0.79739009571E+01  0.79739009571E+01  0.00000000000E+00 0.  1.
         25    2    1    2    0    0  0.15185618749E+02  0.16179226453E+02  0.58380460928E+03  0.59744915526E+03  0.12500120368E+03 0.  0.
          5    1    3    3  501    0 -0.54123209893E+02  0.44438767048E+01  0.19900977604E+03  0.20628613829E+03  0.10000000000E+00 0.  1.
         -5    1    3    3    0  501  0.69308828642E+02  0.11735349749E+02  0.38479483324E+03  0.39116301697E+03  0.10000000000E+00 0.  1.
         21    1    1    2  504  502 -0.15185618749E+02 -0.16179226453E+02  0.10573410245E+03  0.10803735838E+03  0.00000000000E+00 0.  1.
<mgrwt>
<rscale>  1 0.12695539E+03</rscale>
<asrwt>0</asrwt>
<pdfrwt beam="1">  1       21 0.10730958E+00 0.12695539E+03</pdfrwt>
<pdfrwt beam="2">  1       21 0.12267545E-02 0.12695539E+03</pdfrwt>
<totfact> 0.18790676E+06</totfact>
</mgrwt>
</event>
<event>
 6    1  0.4180481E-002  0.1282387E+03  0.7546771E-02  0.1230093E+00
         21   -1    0    0  504  502  0.00000000000E+00  0.00000000000E+00  0.18212025143E+03  0.18212025143E+03  0.00000000000E+00 0. -1.
         21   -1    0    0  502  503 -0.00000000000E+00 -0.00000000000E+00 -0.13007893165E+04  0.13007893165E+04  0.00000000000E+00 0. -1.
         25    2    1    2    0    0 -0.18592021128E+02 -0.21756899974E+02  0.15936558960E+03  0.20455452942E+03  0.12500455357E+03 0.  0.
          5    1    3    3  501    0  0.48520302876E+02 -0.20544781714E+01  0.10593777017E+03  0.11653867093E+03  0.10000000000E+00 0. -1.
         -5    1    3    3    0  501 -0.67112324004E+02 -0.19702421803E+02  0.53427819420E+02  0.88015858492E+02  0.10000000000E+00 0. -1.
         21    1    1    2  504  503  0.18592021128E+02  0.21756899974E+02 -0.12780346547E+04  0.12783550385E+04  0.00000000000E+00 0. -1.
<mgrwt>
<rscale>  1 0.12823870E+03</rscale>
<asrwt>0</asrwt>
<pdfrwt beam="1">  1       21 0.28018502E-01 0.12823870E+03</pdfrwt>
<pdfrwt beam="2">  1       21 0.20012142E+00 0.12823870E+03</pdfrwt>
<totfact> 0.17666126E+03</totfact>
</mgrwt>
</event>
<event>
 6    1  0.4180481E-002  0.1271580E+03  0.7546771E-02  0.1231735E+00
         21   -1    0    0  504  502  0.00000000000E+00  0.00000000000E+00  0.14050578144E+02  0.14050578144E+02  0.00000000000E+00 0. -1.
         21   -1    0    0  502  503 -0.00000000000E+00 -0.00000000000E+00 -0.47600685456E+03  0.47600685456E+03  0.00000000000E+00 0. -1.
         25    2    1    2    0    0  0.17657957570E+02 -0.15179220871E+02 -0.29162580204E+03  0.31814267850E+03  0.12500777278E+03 0.  0.
          5    1    3    3  501    0  0.17343971720E+02 -0.20842726659E+02 -0.30364426419E+03  0.30485255745E+03  0.10000000000E+00 0. -1.
         -5    1    3    3    0  501  0.31398585013E+00  0.56635057881E+01  0.12018462152E+02  0.13290121046E+02  0.10000000000E+00 0. -1.
         21    1    1    2  504  503 -0.17657957570E+02  0.15179220871E+02 -0.17033047437E+03  0.17191475420E+03  0.00000000000E+00 0. -1.
<mgrwt>
<rscale>  1 0.12715799E+03</rscale>
<asrwt>0</asrwt>
<pdfrwt beam="1">  1       21 0.21616276E-02 0.12715799E+03</pdfrwt>
<pdfrwt beam="2">  1       21 0.73231817E-01 0.12715799E+03</pdfrwt>
<totfact> 0.18143681E+06</totfact>
</mgrwt>
</event>
<event>
 6    1  0.4180481E-002  0.1313324E+03  0.7546771E-02  0.1225492E+00
         21   -1    0    0  504  502  0.00000000000E+00  0.00000000000E+00  0.14340850296E+03  0.14340850296E+03  0.00000000000E+00 0.  1.
         21   -1    0    0  502  503 -0.00000000000E+00 -0.00000000000E+00 -0.80899615305E+02  0.80899615305E+02  0.00000000000E+00 0.  1.
         25    2    1    2    0    0 -0.10025886340E+02 -0.39021452807E+02  0.10321331444E+03  0.16703646265E+03  0.12499999760E+03 0.  0.
          5    1    3    3  501    0  0.23098831438E+02 -0.70136751653E+02  0.27630996076E+02  0.78842893722E+02  0.10000000000E+00 0.  1.
         -5    1    3    3    0  501 -0.33124717778E+02  0.31115298846E+02  0.75582318367E+02  0.88193568926E+02  0.10000000000E+00 0.  1.
         21    1    1    2  504  503  0.10025886340E+02  0.39021452807E+02 -0.40704426793E+02  0.57271655613E+02  0.00000000000E+00 0.  1.
<mgrwt>
<rscale>  1 0.13133237E+03</rscale>
<asrwt>0</asrwt>
<pdfrwt beam="1">  1       21 0.22062847E-01 0.13133237E+03</pdfrwt>
<pdfrwt beam="2">  1       21 0.12446095E-01 0.13133237E+03</pdfrwt>
<totfact> 0.10560372E+06</totfact>
</mgrwt>
</event>
<event>
 6    1  0.4180481E-002  0.1906121E+03  0.7546771E-02  0.1157910E+00
         21   -1    0    0  504  502  0.00000000000E+00  0.00000000000E+00  0.24717784637E+02  0.24717784637E+02  0.00000000000E+00 0.  1.
         21   -1    0    0  502  503 -0.00000000000E+00 -0.00000000000E+00 -0.12253068600E+04  0.12253068600E+04  0.00000000000E+00 0.  1.
         25    2    1    2    0    0  0.64877476053E+02 -0.12843628246E+03 -0.84891384791E+03  0.87005039398E+03  0.12501200483E+03 0.  0.
          5    1    3    3  501    0 -0.30749908805E+02 -0.48829541769E+02 -0.40269313777E+03  0.40680665463E+03  0.10000000000E+00 0. -1.
         -5    1    3    3    0  501  0.95627384858E+02 -0.79606740694E+02 -0.44622071014E+03  0.46324373936E+03  0.10000000000E+00 0. -1.
         21    1    1    2  504  503 -0.64877476053E+02  0.12843628246E+03 -0.35167522743E+03  0.37997425063E+03  0.00000000000E+00 0.  1.
<mgrwt>
<rscale>  1 0.19061208E+03</rscale>
<asrwt>0</asrwt>
<pdfrwt beam="1">  1       21 0.38027361E-02 0.19061208E+03</pdfrwt>
<pdfrwt beam="2">  1       21 0.18850875E+00 0.19061208E+03</pdfrwt>
<totfact> 0.68126463E+04</totfact>
</mgrwt>
</event>
<event>
 6    1  0.4180481E-002  0.1269110E+03  0.7546771E-02  0.1232113E+00
         21   -1    0    0  504  502  0.00000000000E+00  0.00000000000E+00  0.15081320451E+02  0.15081320451E+02  0.00000000000E+00 0. -1.
         21   -1    0    0  502  503 -0.00000000000E+00 -0.00000000000E+00 -0.37213593199E+03  0.37213593199E+03  0.00000000000E+00 0. -1.
         25    2    1    2    0    0  0.13942277566E+02 -0.16920293282E+02 -0.28689768895E+03  0.31371434627E+03  0.12500289477E+03 0.  0.
          5    1    3    3  501    0 -0.22233668633E+02  0.18248977780E+02 -0.24888983621E+03  0.25054644635E+03  0.10000000000E+00 0. -1.
         -5    1    3    3    0  501  0.36175946199E+02 -0.35169271062E+02 -0.38007852747E+02  0.63167899924E+02  0.10000000000E+00 0. -1.
         21    1    1    2  504  503 -0.13942277566E+02  0.16920293282E+02 -0.70156922589E+02  0.73502906172E+02  0.00000000000E+00 0.  1.
<mgrwt>
<rscale>  1 0.12691102E+03</rscale>
<asrwt>0</asrwt>
<pdfrwt beam="1">  1       21 0.23202032E-02 0.12691102E+03</pdfrwt>
<pdfrwt beam="2">  1       21 0.57251680E-01 0.12691102E+03</pdfrwt>
<totfact> 0.27468323E+06</totfact>
</mgrwt>
</event>
<event>
 6    1  0.4180481E-002  0.1310325E+03  0.7546771E-02  0.1225932E+00
         21   -1    0    0  504  502  0.00000000000E+00  0.00000000000E+00  0.33313913669E+03  0.33313913669E+03  0.00000000000E+00 0.  1.
         21   -1    0    0  502  503 -0.00000000000E+00 -0.00000000000E+00 -0.13289534686E+03  0.13289534686E+03  0.00000000000E+00 0. -1.
         25    2    1    2    0    0 -0.34464313964E+01 -0.39134990781E+02  0.31691024190E+03  0.34293092376E+03  0.12500436656E+03 0.  0.
          5    1    3    3  501    0 -0.60204896114E+02 -0.43051734925E+02  0.18655785995E+03  0.20070357871E+03  0.10000000000E+00 0. -1.
         -5    1    3    3    0  501  0.56758464717E+02  0.39167441441E+01  0.13035238195E+03  0.14222734506E+03  0.10000000000E+00 0. -1.
         21    1    1    2  504  503  0.34464313964E+01  0.39134990781E+02 -0.11666645207E+03  0.12310355979E+03  0.00000000000E+00 0. -1.
<mgrwt>
<rscale>  1 0.13103250E+03</rscale>
<asrwt>0</asrwt>
<pdfrwt beam="1">  1       21 0.51252175E-01 0.13103250E+03</pdfrwt>
<pdfrwt beam="2">  1       21 0.20445438E-01 0.13103250E+03</pdfrwt>
<totfact> 0.82258130E+04</totfact>
</mgrwt>
</event>
<event>
 6    1  0.4180481E-002  0.1273976E+03  0.7546771E-02  0.1231369E+00
         21   -1    0    0  504  502  0.00000000000E+00  0.00000000000E+00  0.82660889329E+03  0.82660889329E+03  0.00000000000E+00 0. -1.
         21   -1    0    0  502  503 -0.00000000000E+00 -0.00000000000E+00 -0.18720108903E+03  0.18720108903E+03  0.00000000000E+00 0.  1.
         25    2    1    2    0    0  0.24282997182E+02 -0.38999540608E+01  0.82086575146E+03  0.83069291540E+03  0.12500105671E+03 0.  0.
          5    1    3    3  501    0 -0.12199896765E+02 -0.52960023121E+02  0.21548459802E+03  0.22223236378E+03  0.10000000000E+00 0. -1.
         -5    1    3    3    0  501  0.36482893947E+02  0.49060069060E+02  0.60538115345E+03  0.60846055162E+03  0.10000000000E+00 0. -1.
         21    1    1    2  504  503 -0.24282997182E+02  0.38999540608E+01 -0.18145794720E+03  0.18311706692E+03  0.00000000000E+00 0.  1.
<mgrwt>
<rscale>  1 0.12739756E+03</rscale>
<asrwt>0</asrwt>
<pdfrwt beam="1">  1       21 0.12717060E+00 0.12739756E+03</pdfrwt>
<pdfrwt beam="2">  1       21 0.28800168E-01 0.12739756E+03</pdfrwt>
<totfact> 0.55957625E+03</totfact>
</mgrwt>
</event>
<event>
 6    1  0.4180481E-002  0.1313889E+03  0.7546771E-02  0.1225409E+00
         21   -1    0    0  503  502  0.00000000000E+00  0.00000000000E+00  0.95933984380E+03  0.95933984380E+03  0.00000000000E+00 0. -1.
         21   -1    0    0  504  503 -0.00000000000E+00 -0.00000000000E+00 -0.16953550106E+02  0.16953550106E+02  0.00000000000E+00 0. -1.
         25    2    1    2    0    0 -0.34519240777E+02 -0.21111934953E+02  0.92138249804E+03  0.93070335976E+03  0.12500297754E+03 0.  0.
          5    1    3    3  501    0  0.24683955137E+02  0.16236190593E+02  0.64253857998E+02  0.70721141067E+02  0.10000000000E+00 0. -1.
         -5    1    3    3    0  501 -0.59203195914E+02 -0.37348125545E+02  0.85712864004E+03  0.85998221870E+03  0.10000000000E+00 0. -1.
         21    1    1    2  504  502  0.34519240777E+02  0.21111934953E+02  0.21003795650E+02  0.45590034141E+02  0.00000000000E+00 0. -1.
<mgrwt>
<rscale>  1 0.13138887E+03</rscale>
<asrwt>0</asrwt>
<pdfrwt beam="1">  1       21 0.14759070E+00 0.13138887E+03</pdfrwt>
<pdfrwt beam="2">  1       21 0.26082392E-02 0.13138887E+03</pdfrwt>
<totfact> 0.25415382E+05</totfact>
</mgrwt>
</event>
<event>
 6    1  0.4180481E-002  0.1705725E+03  0.7546771E-02  0.1177252E+00
         21   -1    0    0  504  502  0.00000000000E+00  0.00000000000E+00  0.57522078883E+03  0.57522078883E+03  0.00000000000E+00 0. -1.
         21   -1    0    0  502  503 -0.00000000000E+00 -0.00000000000E+00 -0.36151109914E+02  0.36151109914E+02  0.00000000000E+00 0. -1.
         25    2    1    2    0    0 -0.11536485949E+03  0.12677489797E+02  0.35343421081E+03  0.39244200912E+03  0.12500087837E+03 0.  0.
          5    1    3    3  501    0  0.88705322443E+01  0.24639399336E+02  0.11800703863E+02  0.28723735022E+02  0.10000000000E+00 0. -1.
         -5    1    3    3    0  501 -0.12423539174E+03 -0.11961909539E+02  0.34163350695E+03  0.36371827410E+03  0.10000000000E+00 0. -1.
         21    1    1    2  504  503  0.11536485949E+03 -0.12677489797E+02  0.18563546810E+03  0.21892988963E+03  0.00000000000E+00 0. -1.
<mgrwt>
<rscale>  1 0.17057253E+03</rscale>
<asrwt>0</asrwt>
<pdfrwt beam="1">  1       21 0.88495499E-01 0.17057253E+03</pdfrwt>
<pdfrwt beam="2">  1       21 0.55617096E-02 0.17057253E+03</pdfrwt>
<totfact> 0.24676360E+05</totfact>
</mgrwt>
</event>
<event>
 6    1  0.4180481E-002  0.1288149E+03  0.7546771E-02  0.1229225E+00
         21   -1    0    0  504  502  0.00000000000E+00  0.00000000000E+00  0.47854775045E+03  0.47854775045E+03  0.00000000000E+00 0.  1.
         21   -1    0    0  502  503 -0.00000000000E+00 -0.00000000000E+00 -0.50425120991E+02  0.50425120991E+02  0.00000000000E+00 0.  1.
         25    2    1    2    0    0 -0.31040627439E+02 -0.22267604075E+01  0.46395939136E+03  0.48150970132E+03  0.12499918651E+03 0.  0.
          5    1    3    3  501    0  0.11023941236E+02  0.40465842623E+02  0.35224884083E+03  0.35473689907E+03  0.10000000000E+00 0.  1.
         -5    1    3    3    0  501 -0.42064568675E+02 -0.42692603030E+02  0.11171055053E+03  0.12677280225E+03  0.10000000000E+00 0.  1.
         21    1    1    2  504  503  0.31040627439E+02  0.22267604075E+01 -0.35836761900E+02  0.47463170113E+02  0.00000000000E+00 0.  1.
<mgrwt>
<rscale>  1 0.12881489E+03</rscale>
<asrwt>0</asrwt>
<pdfrwt beam="1">  1       21 0.73622728E-01 0.12881489E+03</pdfrwt>
<pdfrwt beam="2">  1       21 0.77577113E-02 0.12881489E+03</pdfrwt>
<totfact> 0.21361085E+05</totfact>
</mgrwt>
</event>
<event>
 6    1  0.4180481E-002  0.1270546E+03  0.7546771E-02  0.1231893E+00
         21   -1    0    0  503  502  0.00000000000E+00  0.00000000000E+00  0.36737092620E+02  0.36737092620E+02  0.00000000000E+00 0. -1.
         21   -1    0    0  504  503 -0.00000000000E+00 -0.00000000000E+00 -0.21180663938E+03  0.21180663938E+03  0.00000000000E+00 0. -1.
         25    2    1    2    0    0 -0.74813887696E+01 -0.21516451516E+02 -0.78556379064E+02  0.14937861514E+03  0.12499574835E+03 0.  0.
          5    1    3    3  501    0  0.28015497040E+02 -0.16644020489E+02  0.24177109494E+02  0.40576275284E+02  0.10000000000E+00 0.  1.
         -5    1    3    3    0  501 -0.35496885810E+02 -0.48724310268E+01 -0.10273348856E+03  0.10880233985E+03  0.10000000000E+00 0.  1.
         21    1    1    2  504  502  0.74813887696E+01  0.21516451516E+02 -0.96513167696E+02  0.99165116863E+02  0.00000000000E+00 0. -1.
<mgrwt>
<rscale>  1 0.12705458E+03</rscale>
<asrwt>0</asrwt>
<pdfrwt beam="1">  1       21 0.56518605E-02 0.12705458E+03</pdfrwt>
<pdfrwt beam="2">  1       21 0.32585636E-01 0.12705458E+03</pdfrwt>
<totfact> 0.19682511E+06</totfact>
</mgrwt>
</event>
<event>
 6    1  0.4180481E-002  0.1262739E+03  0.7546771E-02  0.1233092E+00
         21   -1    0    0  503  502  0.00000000000E+00  0.00000000000E+00  0.27836016703E+03  0.27836016703E+03  0.00000000000E+00 0. -1.
         21   -1    0    0  504  503 -0.00000000000E+00 -0.00000000000E+00 -0.19712200190E+02  0.19712200190E+02  0.00000000000E+00 0. -1.
         25    2    1    2    0    0 -0.17720338454E+02 -0.86788249923E+00  0.24521923915E+03  0.27582165167E+03  0.12502137685E+03 0.  0.
          5    1    3    3  501    0 -0.43851480495E+02  0.38406993644E+02  0.20717165045E+03  0.21521652412E+03  0.10000000000E+00 0. -1.
         -5    1    3    3    0  501  0.26131142041E+02 -0.39274876144E+02  0.38047588698E+02  0.60605127557E+02  0.10000000000E+00 0. -1.
         21    1    1    2  504  502  0.17720338454E+02  0.86788249923E+00  0.13428727693E+02  0.22250715548E+02  0.00000000000E+00 0. -1.
<mgrwt>
<rscale>  1 0.12627394E+03</rscale>
<asrwt>0</asrwt>
<pdfrwt beam="1">  1       21 0.42824638E-01 0.12627394E+03</pdfrwt>
<pdfrwt beam="2">  1       21 0.30326464E-02 0.12627394E+03</pdfrwt>
<totfact> 0.32271039E+06</totfact>
</mgrwt>
</event>
<event>
 6    1  0.4180481E-002  0.1264330E+03  0.7546771E-02  0.1232847E+00
         21   -1    0    0  503  502  0.00000000000E+00  0.00000000000E+00  0.64240158105E+03  0.64240158105E+03  0.00000000000E+00 0. -1.
         21   -1    0    0  504  503 -0.00000000000E+00 -0.00000000000E+00 -0.28796396812E+02  0.28796396812E+02  0.00000000000E+00 0. -1.
         25    2    1    2    0    0 -0.34236443043E+01 -0.18699243944E+02  0.63213271795E+03  0.64465268507E+03  0.12499571275E+03 0.  0.
          5    1    3    3  501    0  0.19785449966E+02  0.33223281156E+02  0.49058176561E+03  0.49210337246E+03  0.10000000000E+00 0. -1.
         -5    1    3    3    0  501 -0.23209094270E+02 -0.51922525100E+02  0.14155095234E+03  0.15254931261E+03  0.10000000000E+00 0. -1.
         21    1    1    2  504  502  0.34236443043E+01  0.18699243944E+02 -0.18527533705E+02  0.26545292796E+02  0.00000000000E+00 0. -1.
<mgrwt>
<rscale>  1 0.12643303E+03</rscale>
<asrwt>0</asrwt>
<pdfrwt beam="1">  1       21 0.98831001E-01 0.12643303E+03</pdfrwt>
<pdfrwt beam="2">  1       21 0.44302154E-02 0.12643303E+03</pdfrwt>
<totfact> 0.28355903E+05</totfact>
</mgrwt>
</event>
<event>
 6    1  0.4180481E-002  0.1312064E+03  0.7546771E-02  0.1225676E+00
         21   -1    0    0  504  502  0.00000000000E+00  0.00000000000E+00  0.98172915753E+03  0.98172915753E+03  0.00000000000E+00 0. -1.
         21   -1    0    0  502  503 -0.00000000000E+00 -0.00000000000E+00 -0.11031679572E+02  0.11031679572E+02  0.00000000000E+00 0. -1.
         25    2    1    2    0    0  0.16755710874E+02 -0.36180976552E+02  0.91444788620E+03  0.92381278793E+03  0.12500125463E+03 0.  0.
          5    1    3    3  501    0  0.42483626963E+02 -0.73379672719E+02  0.53474120496E+03  0.54142183296E+03  0.10000000000E+00 0.  1.
         -5    1    3    3    0  501 -0.25727916088E+02  0.37198696168E+02  0.37970668125E+03  0.38239095498E+03  0.10000000000E+00 0.  1.
         21    1    1    2  504  503 -0.16755710874E+02  0.36180976552E+02  0.56249591751E+02  0.68948049163E+02  0.00000000000E+00 0. -1.
<mgrwt>
<rscale>  1 0.13120644E+03</rscale>
<asrwt>0</asrwt>
<pdfrwt beam="1">  1       21 0.15103519E+00 0.13120644E+03</pdfrwt>
<pdfrwt beam="2">  1       21 0.16971822E-02 0.13120644E+03</pdfrwt>
<totfact> 0.47978146E+05</totfact>
</mgrwt>
</event>
<event>
 6    1  0.4180481E-002  0.1270737E+03  0.7546771E-02  0.1231864E+00
         21   -1    0    0  504  502  0.00000000000E+00  0.00000000000E+00  0.43774277038E+01  0.43774277038E+01  0.00000000000E+00 0. -1.
         21   -1    0    0  502  503 -0.00000000000E+00 -0.00000000000E+00 -0.13190090640E+04  0.13190090640E+04  0.00000000000E+00 0. -1.
         25    2    1    2    0    0  0.21580298080E+02 -0.75839574612E+01 -0.10236502993E+04  0.10315074686E+04  0.12499798697E+03 0.  0.
          5    1    3    3  501    0 -0.15740078431E+01  0.44187750598E+02 -0.16000208528E+03  0.16599913282E+03  0.10000000000E+00 0.  1.
         -5    1    3    3    0  501  0.23154305923E+02 -0.51771708059E+02 -0.86364821404E+03  0.86550833575E+03  0.10000000000E+00 0.  1.
         21    1    1    2  504  503 -0.21580298080E+02  0.75839574612E+01 -0.29098133696E+03  0.29187902312E+03  0.00000000000E+00 0. -1.
<mgrwt>
<rscale>  1 0.12707369E+03</rscale>
<asrwt>0</asrwt>
<pdfrwt beam="1">  1       21 0.67344912E-03 0.12707369E+03</pdfrwt>
<pdfrwt beam="2">  1       21 0.20292486E+00 0.12707369E+03</pdfrwt>
<totfact> 0.92031404E+05</totfact>
</mgrwt>
</event>
<event>
 6    1  0.4180481E-002  0.1501422E+03  0.7546771E-02  0.1200298E+00
         21   -1    0    0  504  502  0.00000000000E+00  0.00000000000E+00  0.10034885008E+03  0.10034885008E+03  0.00000000000E+00 0.  1.
         21   -1    0    0  502  503 -0.00000000000E+00 -0.00000000000E+00 -0.16148690415E+03  0.16148690415E+03  0.00000000000E+00 0.  1.
         25    2    1    2    0    0 -0.51923750711E+02  0.65057985008E+02  0.12551338412E+02  0.15066586682E+03  0.12495619244E+03 0.  0.
          5    1    3    3  501    0 -0.15868264435E+01  0.87178335521E+01 -0.51107907388E+02  0.51870481370E+02  0.10000000000E+00 0.  1.
         -5    1    3    3    0  501 -0.50336924267E+02  0.56340151456E+02  0.63659245800E+02  0.98795385452E+02  0.10000000000E+00 0.  1.
         21    1    1    2  504  503  0.51923750711E+02 -0.65057985008E+02 -0.73689392483E+02  0.11116988741E+03  0.00000000000E+00 0.  1.
<mgrwt>
<rscale>  1 0.15014216E+03</rscale>
<asrwt>0</asrwt>
<pdfrwt beam="1">  1       21 0.15438285E-01 0.15014216E+03</pdfrwt>
<pdfrwt beam="2">  1       21 0.24844139E-01 0.15014216E+03</pdfrwt>
<totfact> 0.57363431E+05</totfact>
</mgrwt>
</event>
<event>
 6    1  0.4180481E-002  0.1286162E+03  0.7546771E-02  0.1229524E+00
         21   -1    0    0  503  502  0.00000000000E+00  0.00000000000E+00  0.15841300506E+03  0.15841300506E+03  0.00000000000E+00 0. -1.
         21   -1    0    0  504  503 -0.00000000000E+00 -0.00000000000E+00 -0.52636637976E+02  0.52636637976E+02  0.00000000000E+00 0. -1.
         25    2    1    2    0    0  0.27991780142E+02 -0.11566515850E+02  0.12149443595E+03  0.17692660487E+03  0.12499920600E+03 0.  0.
          5    1    3    3  501    0 -0.23386462673E+02 -0.55323567763E+02  0.68618587848E+02  0.91192896569E+02  0.10000000000E+00 0. -1.
         -5    1    3    3    0  501  0.51378242815E+02  0.43757051913E+02  0.52875848103E+02  0.85733708304E+02  0.10000000000E+00 0. -1.
         21    1    1    2  504  502 -0.27991780142E+02  0.11566515850E+02 -0.15718068868E+02  0.34123038161E+02  0.00000000000E+00 0. -1.
<mgrwt>
<rscale>  1 0.12861619E+03</rscale>
<asrwt>0</asrwt>
<pdfrwt beam="1">  1       21 0.24371231E-01 0.12861619E+03</pdfrwt>
<pdfrwt beam="2">  1       21 0.80979444E-02 0.12861619E+03</pdfrwt>
<totfact> 0.18585372E+06</totfact>
</mgrwt>
</event>
<event>
 6    1  0.4180481E-002  0.1264706E+03  0.7546771E-02  0.1232789E+00
         21   -1    0    0  503  502  0.00000000000E+00  0.00000000000E+00  0.60218571017E+02  0.60218571017E+02  0.00000000000E+00 0.  1.
         21   -1    0    0  504  503 -0.00000000000E+00 -0.00000000000E+00 -0.93617043264E+02  0.93617043264E+02  0.00000000000E+00 0.  1.
         25    2    1    2    0    0 -0.18924762620E+02  0.34713000476E+01 -0.15250591392E+02  0.12738675526E+03  0.12499843324E+03 0.  0.
          5    1    3    3  501    0 -0.39893372252E+02 -0.52268794821E+02 -0.16604496417E+02  0.67817603636E+02  0.10000000000E+00 0.  1.
         -5    1    3    3    0  501  0.20968609633E+02  0.55740094869E+02  0.13539050243E+01  0.59569151620E+02  0.10000000000E+00 0.  1.
         21    1    1    2  504  502  0.18924762620E+02 -0.34713000476E+01 -0.18147880854E+02  0.26448859025E+02  0.00000000000E+00 0. -1.
<mgrwt>
<rscale>  1 0.12647057E+03</rscale>
<asrwt>0</asrwt>
<pdfrwt beam="1">  1       21 0.92643956E-02 0.12647057E+03</pdfrwt>
<pdfrwt beam="2">  1       21 0.14402622E-01 0.12647057E+03</pdfrwt>
<totfact> 0.38685792E+06</totfact>
</mgrwt>
</event>
<event>
 6    1  0.4180481E-002  0.1266155E+03  0.7546771E-02  0.1232566E+00
         21   -1    0    0  504  502  0.00000000000E+00  0.00000000000E+00  0.24561497633E+02  0.24561497633E+02  0.00000000000E+00 0. -1.
         21   -1    0    0  502  503 -0.00000000000E+00 -0.00000000000E+00 -0.51356293755E+03  0.51356293755E+03  0.00000000000E+00 0.  1.
         25    2    1    2    0    0 -0.16220716864E+02 -0.11975479050E+02 -0.14086841237E+03  0.18940803376E+03  0.12499987958E+03 0.  0.
          5    1    3    3  501    0  0.16430554584E+02  0.20796414012E+02 -0.14067120808E+03  0.14314626345E+03  0.10000000000E+00 0. -1.
         -5    1    3    3    0  501 -0.32651271447E+02 -0.32771893063E+02 -0.19720429461E+00  0.46261770303E+02  0.10000000000E+00 0. -1.
         21    1    1    2  504  503  0.16220716864E+02  0.11975479050E+02 -0.34813302755E+03  0.34871640143E+03  0.00000000000E+00 0.  1.
<mgrwt>
<rscale>  1 0.12661553E+03</rscale>
<asrwt>0</asrwt>
<pdfrwt beam="1">  1       21 0.37786923E-02 0.12661553E+03</pdfrwt>
<pdfrwt beam="2">  1       21 0.79009676E-01 0.12661553E+03</pdfrwt>
<totfact> 0.61497544E+05</totfact>
</mgrwt>
</event>
<event>
 6    1  0.4180481E-002  0.1359729E+03  0.7546771E-02  0.1218853E+00
         21   -1    0    0  504  502  0.00000000000E+00  0.00000000000E+00  0.44470110571E+02  0.44470110571E+02  0.00000000000E+00 0.  1.
         21   -1    0    0  502  503 -0.00000000000E+00 -0.00000000000E+00 -0.21908217923E+03  0.21908217923E+03  0.00000000000E+00 0.  1.
         25    2    1    2    0    0 -0.48017574528E+02  0.23619838117E+02 -0.15589246646E+03  0.20686007056E+03  0.12500017391E+03 0.  0.
          5    1    3    3  501    0  0.89446864477E+01  0.57507998147E+02 -0.32161860714E+02  0.66494906204E+02  0.10000000000E+00 0.  1.
         -5    1    3    3    0  501 -0.56962260976E+02 -0.33888160030E+02 -0.12373060575E+03  0.14036516436E+03  0.10000000000E+00 0.  1.
         21    1    1    2  504  503  0.48017574528E+02 -0.23619838117E+02 -0.18719602198E+02  0.56692219243E+02  0.00000000000E+00 0.  1.
<mgrwt>
<rscale>  1 0.13597289E+03</rscale>
<asrwt>0</asrwt>
<pdfrwt beam="1">  1       21 0.68415554E-02 0.13597289E+03</pdfrwt>
<pdfrwt beam="2">  1       21 0.33704951E-01 0.13597289E+03</pdfrwt>
<totfact> 0.13334772E+06</totfact>
</mgrwt>
</event>
<event>
 6    1  0.4180481E-002  0.1269798E+03  0.7546771E-02  0.1232007E+00
         21   -1    0    0  504  502  0.00000000000E+00  0.00000000000E+00  0.32177760349E+02  0.32177760349E+02  0.00000000000E+00 0.  1.
         21   -1    0    0  502  503 -0.00000000000E+00 -0.00000000000E+00 -0.17514272871E+03  0.17514272871E+03  0.00000000000E+00 0.  1.
         25    2    1    2    0    0 -0.22007336549E+01  0.22240415013E+02 -0.11329698833E+03  0.17017660224E+03  0.12499755637E+03 0.  0.
          5    1    3    3  501    0 -0.52350224061E+02  0.34416506667E+02 -0.24098624391E+02  0.67125223187E+02  0.10000000000E+00 0. -1.
         -5    1    3    3    0  501  0.50149490406E+02 -0.12176091654E+02 -0.89198363940E+02  0.10305137906E+03  0.10000000000E+00 0. -1.
         21    1    1    2  504  503  0.22007336549E+01 -0.22240415013E+02 -0.29667980026E+02  0.37143886811E+02  0.00000000000E+00 0.  1.
<mgrwt>
<rscale>  1 0.12697980E+03</rscale>
<asrwt>0</asrwt>
<pdfrwt beam="1">  1       21 0.49504247E-02 0.12697980E+03</pdfrwt>
<pdfrwt beam="2">  1       21 0.26945035E-01 0.12697980E+03</pdfrwt>
<totfact> 0.35474262E+06</totfact>
</mgrwt>
</event>
<event>
 6    1  0.4180481E-002  0.1265172E+03  0.7546771E-02  0.1232717E+00
         21   -1    0    0  503  502  0.00000000000E+00  0.00000000000E+00  0.46338896262E+02  0.46338896262E+02  0.00000000000E+00 0.  1.
         21   -1    0    0  504  503 -0.00000000000E+00 -0.00000000000E+00 -0.11972981265E+03  0.11972981265E+03  0.00000000000E+00 0.  1.
         25    2    1    2    0    0 -0.10019067095E+02  0.16778352434E+02 -0.51159946390E+02  0.13646953928E+03  0.12499880088E+03 0.  0.
          5    1    3    3  501    0 -0.52523952600E+02 -0.32053542053E+02 -0.29178552446E+02  0.68099875754E+02  0.10000000000E+00 0.  1.
         -5    1    3    3    0  501  0.42504885505E+02  0.48831894487E+02 -0.21981393944E+02  0.68369663526E+02  0.10000000000E+00 0.  1.
         21    1    1    2  504  502  0.10019067095E+02 -0.16778352434E+02 -0.22230969997E+02  0.29599169631E+02  0.00000000000E+00 0. -1.
<mgrwt>
<rscale>  1 0.12651717E+03</rscale>
<asrwt>0</asrwt>
<pdfrwt beam="1">  1       21 0.71290610E-02 0.12651717E+03</pdfrwt>
<pdfrwt beam="2">  1       21 0.18419971E-01 0.12651717E+03</pdfrwt>
<totfact> 0.38905642E+06</totfact>
</mgrwt>
</event>
<event>
 6    1  0.4180481E-002  0.1259746E+03  0.7546771E-02  0.1233554E+00
         21   -1    0    0  504  502  0.00000000000E+00  0.00000000000E+00  0.11640371790E+03  0.11640371790E+03  0.00000000000E+00 0.  1.
         21   -1    0    0  502  503 -0.00000000000E+00 -0.00000000000E+00 -0.62778259253E+02  0.62778259253E+02  0.00000000000E+00 0.  1.
         25    2    1    2    0    0 -0.14424587816E+02 -0.63838051584E+01  0.79439249660E+02  0.14893014236E+03  0.12498308372E+03 0.  0.
          5    1    3    3  501    0 -0.69299787057E+02 -0.20773051997E+01  0.55919692193E+02  0.89071867938E+02  0.10000000000E+00 0.  1.
         -5    1    3    3    0  501  0.54875199240E+02 -0.43064999587E+01  0.23519557467E+02  0.59858274424E+02  0.10000000000E+00 0.  1.
         21    1    1    2  504  503  0.14424587816E+02  0.63838051584E+01 -0.25813791011E+02  0.30251834793E+02  0.00000000000E+00 0.  1.
<mgrwt>
<rscale>  1 0.12597457E+03</rscale>
<asrwt>0</asrwt>
<pdfrwt beam="1">  1       21 0.17908264E-01 0.12597457E+03</pdfrwt>
<pdfrwt beam="2">  1       21 0.96581937E-02 0.12597457E+03</pdfrwt>
<totfact> 0.24241766E+06</totfact>
</mgrwt>
</event>
<event>
 6    1  0.4180481E-002  0.1438505E+03  0.7546771E-02  0.1208240E+00
         21   -1    0    0  504  502  0.00000000000E+00  0.00000000000E+00  0.12280155847E+02  0.12280155847E+02  0.00000000000E+00 0. -1.
         21   -1    0    0  502  503 -0.00000000000E+00 -0.00000000000E+00 -0.10841457034E+04  0.10841457034E+04  0.00000000000E+00 0. -1.
         25    2    1    2    0    0  0.90589543677E+01 -0.70614683652E+02 -0.88195706003E+03  0.89361133355E+03  0.12499784600E+03 0.  0.
          5    1    3    3  501    0  0.14716910491E+02  0.11589248803E+02 -0.18832483448E+02  0.26562578471E+02  0.10000000000E+00 0. -1.
         -5    1    3    3    0  501 -0.56579561234E+01 -0.82203932455E+02 -0.86312457658E+03  0.86704875507E+03  0.10000000000E+00 0. -1.
         21    1    1    2  504  503 -0.90589543677E+01  0.70614683652E+02 -0.18990848752E+03  0.20281452569E+03  0.00000000000E+00 0. -1.
<mgrwt>
<rscale>  1 0.14385048E+03</rscale>
<asrwt>0</asrwt>
<pdfrwt beam="1">  1       21 0.18892537E-02 0.14385048E+03</pdfrwt>
<pdfrwt beam="2">  1       21 0.16679174E+00 0.14385048E+03</pdfrwt>
<totfact> 0.30920930E+05</totfact>
</mgrwt>
</event>
<event>
 6    1  0.4180481E-002  0.1260279E+03  0.7546771E-02  0.1233472E+00
         21   -1    0    0  504  502  0.00000000000E+00  0.00000000000E+00  0.54679042617E+03  0.54679042617E+03  0.00000000000E+00 0.  1.
         21   -1    0    0  502  503 -0.00000000000E+00 -0.00000000000E+00 -0.16160016744E+02  0.16160016744E+02  0.00000000000E+00 0.  1.
         25    2    1    2    0    0  0.67319049584E+01  0.14588489910E+02  0.53209562406E+03  0.54681695488E+03  0.12499954565E+03 0.  0.
          5    1    3    3  501    0 -0.26975411819E+02  0.40465068576E+02  0.86776890071E+02  0.99475289736E+02  0.10000000000E+00 0. -1.
         -5    1    3    3    0  501  0.33707316777E+02 -0.25876578666E+02  0.44531873399E+03  0.44734166514E+03  0.10000000000E+00 0. -1.
         21    1    1    2  504  503 -0.67319049584E+01 -0.14588489910E+02 -0.14652146382E+01  0.16133488034E+02  0.00000000000E+00 0.  1.
<mgrwt>
<rscale>  1 0.12602789E+03</rscale>
<asrwt>0</asrwt>
<pdfrwt beam="1">  1       21 0.84121590E-01 0.12602789E+03</pdfrwt>
<pdfrwt beam="2">  1       21 0.24861568E-02 0.12602789E+03</pdfrwt>
<totfact> 0.10621292E+06</totfact>
</mgrwt>
</event>
<event>
 6    1  0.4180481E-002  0.1262704E+03  0.7546771E-02  0.1233097E+00
         21   -1    0    0  503  502  0.00000000000E+00  0.00000000000E+00  0.49526063083E+02  0.49526063083E+02  0.00000000000E+00 0.  1.
         21   -1    0    0  504  503 -0.00000000000E+00 -0.00000000000E+00 -0.12108500011E+03  0.12108500011E+03  0.00000000000E+00 0.  1.
         25    2    1    2    0    0  0.12056517122E+02 -0.13163219337E+02 -0.36778654338E+02  0.13151761090E+03  0.12500233043E+03 0.  0.
          5    1    3    3  501    0 -0.12849118541E+02  0.43785779534E+02 -0.50291964426E+02  0.67908659408E+02  0.10000000000E+00 0.  1.
         -5    1    3    3    0  501  0.24905635663E+02 -0.56948998871E+02  0.13513310088E+02  0.63608951490E+02  0.10000000000E+00 0.  1.
         21    1    1    2  504  502 -0.12056517122E+02  0.13163219337E+02 -0.34780282684E+02  0.39093452291E+02  0.00000000000E+00 0. -1.
<mgrwt>
<rscale>  1 0.12627039E+03</rscale>
<asrwt>0</asrwt>
<pdfrwt beam="1">  1       21 0.76193944E-02 0.12627039E+03</pdfrwt>
<pdfrwt beam="2">  1       21 0.18628461E-01 0.12627039E+03</pdfrwt>
<totfact> 0.33999404E+06</totfact>
</mgrwt>
</event>
<event>
 6    1  0.4180481E-002  0.1275208E+03  0.7546771E-02  0.1231182E+00
         21   -1    0    0  503  502  0.00000000000E+00  0.00000000000E+00  0.27734396541E+02  0.27734396541E+02  0.00000000000E+00 0. -1.
         21   -1    0    0  504  503 -0.00000000000E+00 -0.00000000000E+00 -0.39158968972E+03  0.39158968972E+03  0.00000000000E+00 0. -1.
         25    2    1    2    0    0  0.15262879616E+02  0.20102003310E+02 -0.12307936045E+03  0.17722886571E+03  0.12499798335E+03 0.  0.
          5    1    3    3  501    0 -0.44366977651E+01  0.62415246173E+02 -0.11346449291E+03  0.12957448975E+03  0.10000000000E+00 0.  1.
         -5    1    3    3    0  501  0.19699577381E+02 -0.42313242864E+02 -0.96148675376E+01  0.47654375963E+02  0.10000000000E+00 0.  1.
         21    1    1    2  504  502 -0.15262879616E+02 -0.20102003310E+02 -0.24077593273E+03  0.24209522055E+03  0.00000000000E+00 0. -1.
<mgrwt>
<rscale>  1 0.12752075E+03</rscale>
<asrwt>0</asrwt>
<pdfrwt beam="1">  1       21 0.42668304E-02 0.12752075E+03</pdfrwt>
<pdfrwt beam="2">  1       21 0.60244566E-01 0.12752075E+03</pdfrwt>
<totfact> 0.90636369E+05</totfact>
</mgrwt>
</event>
<event>
 6    1  0.4180481E-002  0.1264056E+03  0.7546771E-02  0.1232889E+00
         21   -1    0    0  503  502  0.00000000000E+00  0.00000000000E+00  0.24780273629E+02  0.24780273629E+02  0.00000000000E+00 0. -1.
         21   -1    0    0  504  503 -0.00000000000E+00 -0.00000000000E+00 -0.21270021415E+03  0.21270021415E+03  0.00000000000E+00 0. -1.
         25    2    1    2    0    0  0.58857742640E+01  0.17845983646E+02 -0.16411037317E+03  0.20714870629E+03  0.12500100185E+03 0.  0.
          5    1    3    3  501    0  0.56471933641E+02 -0.11960604340E+02 -0.41154173631E+02  0.70892957003E+02  0.10000000000E+00 0. -1.
         -5    1    3    3    0  501 -0.50586159377E+02  0.29806587986E+02 -0.12295619954E+03  0.13625574928E+03  0.10000000000E+00 0. -1.
         21    1    1    2  504  502 -0.58857742640E+01 -0.17845983646E+02 -0.23809567350E+02  0.30331781490E+02  0.00000000000E+00 0. -1.
<mgrwt>
<rscale>  1 0.12640559E+03</rscale>
<asrwt>0</asrwt>
<pdfrwt beam="1">  1       21 0.38123497E-02 0.12640559E+03</pdfrwt>
<pdfrwt beam="2">  1       21 0.32723110E-01 0.12640559E+03</pdfrwt>
<totfact> 0.37711754E+06</totfact>
</mgrwt>
</event>
<event>
 6    1  0.4180481E-002  0.2090174E+03  0.7546771E-02  0.1142346E+00
         21   -1    0    0  503  502  0.00000000000E+00  0.00000000000E+00  0.94758704364E+02  0.94758704364E+02  0.00000000000E+00 0. -1.
         21   -1    0    0  504  503 -0.00000000000E+00 -0.00000000000E+00 -0.61288935962E+03  0.61288935962E+03  0.00000000000E+00 0. -1.
         25    2    1    2    0    0 -0.26740281834E+02 -0.16534782647E+03 -0.56425245458E+02  0.21649958152E+03  0.12503325190E+03 0.  0.
          5    1    3    3  501    0  0.45957963408E+02 -0.35752415279E+02 -0.30258481794E+02  0.65619778417E+02  0.10000000000E+00 0. -1.
         -5    1    3    3    0  501 -0.72698245242E+02 -0.12959541119E+03 -0.26166763664E+02  0.15087980310E+03  0.10000000000E+00 0. -1.
         21    1    1    2  504  502  0.26740281834E+02  0.16534782647E+03 -0.46170540980E+03  0.49114848247E+03  0.00000000000E+00 0. -1.
<mgrwt>
<rscale>  1 0.20901737E+03</rscale>
<asrwt>0</asrwt>
<pdfrwt beam="1">  1       21 0.14578262E-01 0.20901737E+03</pdfrwt>
<pdfrwt beam="2">  1       21 0.94290671E-01 0.20901737E+03</pdfrwt>
<totfact> 0.38611276E+04</totfact>
</mgrwt>
</event>
<event>
 6    1  0.4180481E-002  0.1265097E+03  0.7546771E-02  0.1232729E+00
         21   -1    0    0  503  502  0.00000000000E+00  0.00000000000E+00  0.12272324725E+03  0.12272324725E+03  0.00000000000E+00 0. -1.
         21   -1    0    0  504  503 -0.00000000000E+00 -0.00000000000E+00 -0.56727338806E+02  0.56727338806E+02  0.00000000000E+00 0. -1.
         25    2    1    2    0    0  0.13928882231E+02  0.13630904367E+02  0.84853957451E+02  0.15233156456E+03  0.12499958461E+03 0.  0.
          5    1    3    3  501    0  0.27409319770E+01 -0.25417617056E+02  0.10423546375E+03  0.10732478683E+03  0.10000000000E+00 0.  1.
         -5    1    3    3    0  501  0.11187950254E+02  0.39048521423E+02 -0.19381506294E+02  0.45006777739E+02  0.10000000000E+00 0.  1.
         21    1    1    2  504  502 -0.13928882231E+02 -0.13630904367E+02 -0.18858049010E+02  0.27119021489E+02  0.00000000000E+00 0. -1.
<mgrwt>
<rscale>  1 0.12650973E+03</rscale>
<asrwt>0</asrwt>
<pdfrwt beam="1">  1       21 0.18880500E-01 0.12650973E+03</pdfrwt>
<pdfrwt beam="2">  1       21 0.87272829E-02 0.12650973E+03</pdfrwt>
<totfact> 0.26246359E+06</totfact>
</mgrwt>
</event>
<event>
 6    1  0.4180481E-002  0.1283389E+03  0.7546771E-02  0.1229942E+00
         21   -1    0    0  504  502  0.00000000000E+00  0.00000000000E+00  0.80955575397E+02  0.80955575397E+02  0.00000000000E+00 0.  1.
         21   -1    0    0  502  503 -0.00000000000E+00 -0.00000000000E+00 -0.82701459089E+02  0.82701459089E+02  0.00000000000E+00 0.  1.
         25    2    1    2    0    0  0.28656792222E+02  0.48432685909E+01  0.16417857577E+02  0.12938473535E+03  0.12500477872E+03 0.  0.
          5    1    3    3  501    0  0.71094065321E+02  0.12126651727E+02  0.37671667977E+02  0.81366985775E+02  0.10000000000E+00 0. -1.
         -5    1    3    3    0  501 -0.42437273098E+02 -0.72833831357E+01 -0.21253810400E+02  0.48017749577E+02  0.10000000000E+00 0. -1.
         21    1    1    2  504  503 -0.28656792222E+02 -0.48432685909E+01 -0.18163741269E+02  0.34272299135E+02  0.00000000000E+00 0.  1.
<mgrwt>
<rscale>  1 0.12833886E+03</rscale>
<asrwt>0</asrwt>
<pdfrwt beam="1">  1       21 0.12454704E-01 0.12833886E+03</pdfrwt>
<pdfrwt beam="2">  1       21 0.12723301E-01 0.12833886E+03</pdfrwt>
<totfact> 0.28721631E+06</totfact>
</mgrwt>
</event>
<event>
 6    1  0.4180481E-002  0.1287701E+03  0.7546771E-02  0.1229292E+00
         21   -1    0    0  504  502  0.00000000000E+00  0.00000000000E+00  0.51196680637E+02  0.51196680637E+02  0.00000000000E+00 0.  1.
         21   -1    0    0  502  503 -0.00000000000E+00 -0.00000000000E+00 -0.12500851620E+03  0.12500851620E+03  0.00000000000E+00 0.  1.
         25    2    1    2    0    0 -0.30682677368E+02  0.39644336803E+01 -0.63643780805E+02  0.14363937484E+03  0.12499838297E+03 0.  0.
          5    1    3    3  501    0 -0.53043715811E+02 -0.10387677627E+02  0.18637421248E+02  0.57174322071E+02  0.10000000000E+00 0. -1.
         -5    1    3    3    0  501  0.22361038443E+02  0.14352111307E+02 -0.82281202053E+02  0.86465052770E+02  0.10000000000E+00 0. -1.
         21    1    1    2  504  503  0.30682677368E+02 -0.39644336803E+01 -0.10168054763E+02  0.32565822000E+02  0.00000000000E+00 0.  1.
<mgrwt>
<rscale>  1 0.12877010E+03</rscale>
<asrwt>0</asrwt>
<pdfrwt beam="1">  1       21 0.78764124E-02 0.12877010E+03</pdfrwt>
<pdfrwt beam="2">  1       21 0.19232079E-01 0.12877010E+03</pdfrwt>
<totfact> 0.30308545E+06</totfact>
</mgrwt>
</event>
<event>
 6    1  0.4180481E-002  0.1259339E+03  0.7546771E-02  0.1233617E+00
         21   -1    0    0  503  502  0.00000000000E+00  0.00000000000E+00  0.18407641306E+03  0.18407641306E+03  0.00000000000E+00 0. -1.
         21   -1    0    0  504  503 -0.00000000000E+00 -0.00000000000E+00 -0.24273072287E+03  0.24273072287E+03  0.00000000000E+00 0.  1.
         25    2    1    2    0    0 -0.96748975617E+01 -0.11883884959E+02  0.16224078762E+03  0.20538113377E+03  0.12499802630E+03 0.  0.
          5    1    3    3  501    0  0.39239284409E+02  0.38989702781E+02  0.73957796306E+02  0.92356288352E+02  0.10000000000E+00 0.  1.
         -5    1    3    3    0  501 -0.48914181971E+02 -0.50873587740E+02  0.88282991314E+02  0.11302484542E+03  0.10000000000E+00 0.  1.
         21    1    1    2  504  502  0.96748975617E+01  0.11883884959E+02 -0.22089509743E+03  0.22142600216E+03  0.00000000000E+00 0.  1.
<mgrwt>
<rscale>  1 0.12593386E+03</rscale>
<asrwt>0</asrwt>
<pdfrwt beam="1">  1       21 0.28319448E-01 0.12593386E+03</pdfrwt>
<pdfrwt beam="2">  1       21 0.37343188E-01 0.12593386E+03</pdfrwt>
<totfact> 0.84740656E+04</totfact>
</mgrwt>
</event>
<event>
 6    1  0.4180481E-002  0.1318001E+03  0.7546771E-02  0.1224809E+00
         21   -1    0    0  504  502  0.00000000000E+00  0.00000000000E+00  0.11556607593E+02  0.11556607593E+02  0.00000000000E+00 0. -1.
         21   -1    0    0  502  503 -0.00000000000E+00 -0.00000000000E+00 -0.81845713217E+03  0.81845713217E+03  0.00000000000E+00 0. -1.
         25    2    1    2    0    0  0.27768799460E+02 -0.31218572541E+02 -0.73608127876E+03  0.74778800733E+03  0.12500219790E+03 0.  0.
          5    1    3    3  501    0 -0.35368313114E+02 -0.41305707485E+02 -0.50838503645E+03  0.51128508127E+03  0.10000000000E+00 0. -1.
         -5    1    3    3    0  501  0.63137112574E+02  0.10087134944E+02 -0.22769624231E+03  0.23650292606E+03  0.10000000000E+00 0. -1.
         21    1    1    2  504  503 -0.27768799460E+02  0.31218572541E+02 -0.70819245819E+02  0.82225732428E+02  0.00000000000E+00 0. -1.
<mgrwt>
<rscale>  1 0.13180006E+03</rscale>
<asrwt>0</asrwt>
<pdfrwt beam="1">  1       21 0.17779389E-02 0.13180006E+03</pdfrwt>
<pdfrwt beam="2">  1       21 0.12591653E+00 0.13180006E+03</pdfrwt>
<totfact> 0.70559877E+05</totfact>
</mgrwt>
</event>
<event>
 6    1  0.4180481E-002  0.1364631E+03  0.7546771E-02  0.1218169E+00
         21   -1    0    0  503  502  0.00000000000E+00  0.00000000000E+00  0.19562690710E+03  0.19562690710E+03  0.00000000000E+00 0.  1.
         21   -1    0    0  504  503 -0.00000000000E+00 -0.00000000000E+00 -0.48447107665E+02  0.48447107665E+02  0.00000000000E+00 0.  1.
         25    2    1    2    0    0  0.54181438095E+02  0.78149051089E+01  0.83012565895E+02  0.15972868391E+03  0.12500186156E+03 0.  0.
          5    1    3    3  501    0  0.44581382641E+02  0.57218569533E+02  0.13296190243E+02  0.73744579818E+02  0.10000000000E+00 0.  1.
         -5    1    3    3    0  501  0.96000554539E+01 -0.49403664424E+02  0.69716375652E+02  0.85984104096E+02  0.10000000000E+00 0.  1.
         21    1    1    2  504  502 -0.54181438095E+02 -0.78149051089E+01  0.64167233538E+02  0.84345330848E+02  0.00000000000E+00 0.  1.
<mgrwt>
<rscale>  1 0.13646306E+03</rscale>
<asrwt>0</asrwt>
<pdfrwt beam="1">  1       21 0.30096447E-01 0.13646306E+03</pdfrwt>
<pdfrwt beam="2">  1       21 0.74534013E-02 0.13646306E+03</pdfrwt>
<totfact> 0.14350665E+06</totfact>
</mgrwt>
</event>
<event>
 6    1  0.4180481E-002  0.1620475E+03  0.7546771E-02  0.1186404E+00
         21   -1    0    0  503  502  0.00000000000E+00  0.00000000000E+00  0.45571444536E+02  0.45571444536E+02  0.00000000000E+00 0. -1.
         21   -1    0    0  504  503 -0.00000000000E+00 -0.00000000000E+00 -0.42282627781E+03  0.42282627781E+03  0.00000000000E+00 0. -1.
         25    2    1    2    0    0  0.22471773488E+01  0.10313770897E+03 -0.15917174823E+03  0.22714542950E+03  0.12496785143E+03 0.  0.
          5    1    3    3  501    0 -0.52273137208E+02  0.30299676151E+02 -0.25803863911E+02  0.65699319944E+02  0.10000000000E+00 0.  1.
         -5    1    3    3    0  501  0.54520314556E+02  0.72838032824E+02 -0.13336788431E+03  0.16144610956E+03  0.10000000000E+00 0.  1.
         21    1    1    2  504  502 -0.22471773488E+01 -0.10313770897E+03 -0.21808308505E+03  0.24125229285E+03  0.00000000000E+00 0. -1.
<mgrwt>
<rscale>  1 0.16204753E+03</rscale>
<asrwt>0</asrwt>
<pdfrwt beam="1">  1       21 0.70109912E-02 0.16204753E+03</pdfrwt>
<pdfrwt beam="2">  1       21 0.65050199E-01 0.16204753E+03</pdfrwt>
<totfact> 0.33066839E+05</totfact>
</mgrwt>
</event>
<event>
 6    1  0.4180481E-002  0.1259526E+03  0.7546771E-02  0.1233588E+00
         21   -1    0    0  503  502  0.00000000000E+00  0.00000000000E+00  0.25155744983E+02  0.25155744983E+02  0.00000000000E+00 0. -1.
         21   -1    0    0  504  503 -0.00000000000E+00 -0.00000000000E+00 -0.34342966940E+03  0.34342966940E+03  0.00000000000E+00 0. -1.
         25    2    1    2    0    0 -0.14312718469E+02  0.58398140954E+01 -0.13489253253E+03  0.18455364477E+03  0.12500038050E+03 0.  0.
          5    1    3    3  501    0  0.32197071932E+02  0.13395579856E+02  0.65380592527E+01  0.35480265211E+02  0.10000000000E+00 0. -1.
         -5    1    3    3    0  501 -0.46509790400E+02 -0.75557657608E+01 -0.14143059178E+03  0.14907337955E+03  0.10000000000E+00 0. -1.
         21    1    1    2  504  502  0.14312718469E+02 -0.58398140954E+01 -0.18338139189E+03  0.18403176962E+03  0.00000000000E+00 0. -1.
<mgrwt>
<rscale>  1 0.12595258E+03</rscale>
<asrwt>0</asrwt>
<pdfrwt beam="1">  1       21 0.38701146E-02 0.12595258E+03</pdfrwt>
<pdfrwt beam="2">  1       21 0.52835334E-01 0.12595258E+03</pdfrwt>
<totfact> 0.14041838E+06</totfact>
</mgrwt>
</event>
<event>
 6    1  0.4180481E-002  0.1260236E+03  0.7546771E-02  0.1233478E+00
         21   -1    0    0  504  502  0.00000000000E+00  0.00000000000E+00  0.69709109131E+02  0.69709109131E+02  0.00000000000E+00 0.  1.
         21   -1    0    0  502  503 -0.00000000000E+00 -0.00000000000E+00 -0.13359554482E+03  0.13359554482E+03  0.00000000000E+00 0.  1.
         25    2    1    2    0    0  0.15251289084E+02 -0.49647825171E+01  0.11203717857E+02  0.12652065794E+03  0.12499881082E+03 0.  0.
          5    1    3    3  501    0 -0.20203869370E+02 -0.18889860203E+02  0.59142507120E+02  0.65290652504E+02  0.10000000000E+00 0. -1.
         -5    1    3    3    0  501  0.35455158453E+02  0.13925077686E+02 -0.47938789263E+02  0.61230005435E+02  0.10000000000E+00 0. -1.
         21    1    1    2  504  503 -0.15251289084E+02  0.49647825171E+01 -0.75090153545E+02  0.76783996012E+02  0.00000000000E+00 0.  1.
<mgrwt>
<rscale>  1 0.12602362E+03</rscale>
<asrwt>0</asrwt>
<pdfrwt beam="1">  1       21 0.10724478E-01 0.12602362E+03</pdfrwt>
<pdfrwt beam="2">  1       21 0.20553161E-01 0.12602362E+03</pdfrwt>
<totfact> 0.15662195E+06</totfact>
</mgrwt>
</event>
<event>
 6    1  0.4180481E-002  0.1260971E+03  0.7546771E-02  0.1233365E+00
         21   -1    0    0  503  502  0.00000000000E+00  0.00000000000E+00  0.16177558872E+04  0.16177558872E+04  0.00000000000E+00 0. -1.
         21   -1    0    0  504  503 -0.00000000000E+00 -0.00000000000E+00 -0.31467116201E+01  0.31467116201E+01  0.00000000000E+00 0. -1.
         25    2    1    2    0    0 -0.16578775842E+02 -0.72734961626E+00  0.14223350483E+04  0.14279136746E+04  0.12500035070E+03 0.  0.
          5    1    3    3  501    0  0.50613663790E+02  0.21313246710E+02  0.68310079317E+03  0.68530482347E+03  0.10000000000E+00 0. -1.
         -5    1    3    3    0  501 -0.67192439632E+02 -0.22040596326E+02  0.73923425510E+03  0.74260885111E+03  0.10000000000E+00 0. -1.
         21    1    1    2  504  502  0.16578775842E+02  0.72734961626E+00  0.19227412732E+03  0.19298892424E+03  0.00000000000E+00 0. -1.
<mgrwt>
<rscale>  1 0.12609708E+03</rscale>
<asrwt>0</asrwt>
<pdfrwt beam="1">  1       21 0.24888486E+00 0.12609708E+03</pdfrwt>
<pdfrwt beam="2">  1       21 0.48411077E-03 0.12609708E+03</pdfrwt>
<totfact> 0.81838962E+05</totfact>
</mgrwt>
</event>
<event>
 6    1  0.4180481E-002  0.1653662E+03  0.7546771E-02  0.1182768E+00
         21   -1    0    0  503  502  0.00000000000E+00  0.00000000000E+00  0.33193326630E+02  0.33193326630E+02  0.00000000000E+00 0. -1.
         21   -1    0    0  504  503 -0.00000000000E+00 -0.00000000000E+00 -0.74076654363E+03  0.74076654363E+03  0.00000000000E+00 0. -1.
         25    2    1    2    0    0  0.35205708841E+02  0.10239209907E+03 -0.22408529459E+03  0.27849629440E+03  0.12498953098E+03 0.  0.
          5    1    3    3  501    0 -0.72580945602E+01  0.10534599938E+03 -0.20747997949E+03  0.23280552273E+03  0.10000000000E+00 0. -1.
         -5    1    3    3    0  501  0.42463803401E+02 -0.29539003128E+01 -0.16605315096E+02  0.45690771670E+02  0.10000000000E+00 0. -1.
         21    1    1    2  504  502 -0.35205708841E+02 -0.10239209907E+03 -0.48348792241E+03  0.49546357586E+03  0.00000000000E+00 0. -1.
<mgrwt>
<rscale>  1 0.16536616E+03</rscale>
<asrwt>0</asrwt>
<pdfrwt beam="1">  1       21 0.51066658E-02 0.16536616E+03</pdfrwt>
<pdfrwt beam="2">  1       21 0.11396408E+00 0.16536616E+03</pdfrwt>
<totfact> 0.15716858E+05</totfact>
</mgrwt>
</event>
<event>
 6    1  0.4180481E-002  0.1260965E+03  0.7546771E-02  0.1233366E+00
         21   -1    0    0  503  502  0.00000000000E+00  0.00000000000E+00  0.23391742763E+02  0.23391742763E+02  0.00000000000E+00 0.  1.
         21   -1    0    0  504  503 -0.00000000000E+00 -0.00000000000E+00 -0.32263418830E+03  0.32263418830E+03  0.00000000000E+00 0.  1.
         25    2    1    2    0    0 -0.29241039170E+01  0.16311279690E+02 -0.15041106496E+03  0.19627484401E+03  0.12500287077E+03 0.  0.
          5    1    3    3  501    0 -0.32804998186E+02 -0.42794503694E+02 -0.38574964186E+02  0.66299135095E+02  0.10000000000E+00 0. -1.
         -5    1    3    3    0  501  0.29880894269E+02  0.59105783385E+02 -0.11183610077E+03  0.12997570891E+03  0.10000000000E+00 0. -1.
         21    1    1    2  504  502  0.29241039170E+01 -0.16311279690E+02 -0.14883138058E+03  0.14975108705E+03  0.00000000000E+00 0.  1.
<mgrwt>
<rscale>  1 0.12609649E+03</rscale>
<asrwt>0</asrwt>
<pdfrwt beam="1">  1       21 0.35987296E-02 0.12609649E+03</pdfrwt>
<pdfrwt beam="2">  1       21 0.49636029E-01 0.12609649E+03</pdfrwt>
<totfact> 0.18022375E+06</totfact>
</mgrwt>
</event>
<event>
 6    1  0.4180481E-002  0.1326337E+03  0.7546771E-02  0.1223599E+00
         21   -1    0    0  504  502  0.00000000000E+00  0.00000000000E+00  0.75903079053E+03  0.75903079053E+03  0.00000000000E+00 0.  1.
         21   -1    0    0  502  503 -0.00000000000E+00 -0.00000000000E+00 -0.31149607683E+02  0.31149607683E+02  0.00000000000E+00 0.  1.
         25    2    1    2    0    0  0.40411412746E+02  0.18260451563E+02  0.73357667648E+03  0.74547061160E+03  0.12500066447E+03 0.  0.
          5    1    3    3  501    0  0.58047510226E+02  0.17570393991E+02  0.15237734391E+03  0.16400334486E+03  0.10000000000E+00 0.  1.
         -5    1    3    3    0  501 -0.17636097480E+02  0.69005757197E+00  0.58119933257E+03  0.58146726674E+03  0.10000000000E+00 0.  1.
         21    1    1    2  504  503 -0.40411412746E+02 -0.18260451563E+02 -0.56954936288E+01  0.44709786614E+02  0.00000000000E+00 0.  1.
<mgrwt>
<rscale>  1 0.13263368E+03</rscale>
<asrwt>0</asrwt>
<pdfrwt beam="1">  1       21 0.11677395E+00 0.13263368E+03</pdfrwt>
<pdfrwt beam="2">  1       21 0.47922479E-02 0.13263368E+03</pdfrwt>
<totfact> 0.16688603E+05</totfact>
</mgrwt>
</event>
<event>
 6    1  0.4180481E-002  0.1275475E+03  0.7546771E-02  0.1231141E+00
         21   -1    0    0  503  502  0.00000000000E+00  0.00000000000E+00  0.13627387594E+04  0.13627387594E+04  0.00000000000E+00 0.  1.
         21   -1    0    0  504  503 -0.00000000000E+00 -0.00000000000E+00 -0.89015862000E+01  0.89015862000E+01  0.00000000000E+00 0.  1.
         25    2    1    2    0    0 -0.23276267168E+02 -0.10083556447E+02  0.13322211396E+04  0.13383129450E+04  0.12499964454E+03 0.  0.
          5    1    3    3  501    0  0.59680313120E+01 -0.56926718830E+02  0.35974503298E+03  0.36427018471E+03  0.10000000000E+00 0. -1.
         -5    1    3    3    0  501 -0.29244298480E+02  0.46843162383E+02  0.97247610666E+03  0.97404276029E+03  0.10000000000E+00 0. -1.
         21    1    1    2  504  502  0.23276267168E+02  0.10083556447E+02  0.21616033568E+02  0.33327400605E+02  0.00000000000E+00 0.  1.
<mgrwt>
<rscale>  1 0.12754754E+03</rscale>
<asrwt>0</asrwt>
<pdfrwt beam="1">  1       21 0.20965195E+00 0.12754754E+03</pdfrwt>
<pdfrwt beam="2">  1       21 0.13694759E-02 0.12754754E+03</pdfrwt>
<totfact> 0.27366562E+05</totfact>
</mgrwt>
</event>
<event>
 6    1  0.4180481E-002  0.2003229E+03  0.7546771E-02  0.1149467E+00
         21   -1    0    0  504  502  0.00000000000E+00  0.00000000000E+00  0.89117274213E+02  0.89117274213E+02  0.00000000000E+00 0.  1.
         21   -1    0    0  502  503 -0.00000000000E+00 -0.00000000000E+00 -0.36646482127E+03  0.36646482127E+03  0.00000000000E+00 0. -1.
         25    2    1    2    0    0  0.15209537178E+03  0.37020901933E+02 -0.19111774940E+03  0.27686688264E+03  0.12500290904E+03 0.  0.
          5    1    3    3  501    0  0.14731388003E+03  0.10597067661E+02 -0.91608756198E+02  0.17379830639E+03  0.10000000000E+00 0.  1.
         -5    1    3    3    0  501  0.47814917510E+01  0.26423834271E+02 -0.99508993199E+02  0.10306857624E+03  0.10000000000E+00 0.  1.
         21    1    1    2  504  503 -0.15209537178E+03 -0.37020901933E+02 -0.86229797656E+02  0.17871521284E+03  0.00000000000E+00 0.  1.
<mgrwt>
<rscale>  1 0.20032293E+03</rscale>
<asrwt>0</asrwt>
<pdfrwt beam="1">  1       21 0.13710350E-01 0.20032293E+03</pdfrwt>
<pdfrwt beam="2">  1       21 0.56379203E-01 0.20032293E+03</pdfrwt>
<totfact> 0.13628405E+05</totfact>
</mgrwt>
</event>
<event>
 6    1  0.4180481E-002  0.1274930E+03  0.7546771E-02  0.1231224E+00
         21   -1    0    0  503  502  0.00000000000E+00  0.00000000000E+00  0.11867406448E+04  0.11867406448E+04  0.00000000000E+00 0.  1.
         21   -1    0    0  504  503 -0.00000000000E+00 -0.00000000000E+00 -0.51790999717E+01  0.51790999717E+01  0.00000000000E+00 0.  1.
         25    2    1    2    0    0 -0.12186338744E+02  0.21982980990E+02  0.10695981957E+04  0.10771697999E+04  0.12499087655E+03 0.  0.
          5    1    3    3  501    0  0.41914700621E+02 -0.29750744871E+02  0.51095533952E+03  0.51353414486E+03  0.10000000000E+00 0. -1.
         -5    1    3    3    0  501 -0.54101039365E+02  0.51733725860E+02  0.55864285615E+03  0.56363565499E+03  0.10000000000E+00 0. -1.
         21    1    1    2  504  502  0.12186338744E+02 -0.21982980990E+02  0.11196334916E+03  0.11474994492E+03  0.00000000000E+00 0.  1.
<mgrwt>
<rscale>  1 0.12749305E+03</rscale>
<asrwt>0</asrwt>
<pdfrwt beam="1">  1       21 0.18257527E+00 0.12749305E+03</pdfrwt>
<pdfrwt beam="2">  1       21 0.79678555E-03 0.12749305E+03</pdfrwt>
<totfact> 0.95586054E+05</totfact>
</mgrwt>
</event>
<event>
 6    1  0.4180481E-002  0.2041581E+03  0.7546771E-02  0.1146277E+00
         21   -1    0    0  504  502  0.00000000000E+00  0.00000000000E+00  0.23396284411E+03  0.23396284411E+03  0.00000000000E+00 0. -1.
         21   -1    0    0  502  503 -0.00000000000E+00 -0.00000000000E+00 -0.14511800703E+03  0.14511800703E+03  0.00000000000E+00 0. -1.
         25    2    1    2    0    0  0.33643975502E+02 -0.15788101152E+03  0.25805434211E+02  0.20578256147E+03  0.12498884464E+03 0.  0.
          5    1    3    3  501    0  0.23277337088E+02  0.80951159670E+00 -0.29342487541E+02  0.37463065892E+02  0.10000000000E+00 0.  1.
         -5    1    3    3    0  501  0.10366638414E+02 -0.15869052312E+03  0.55147921752E+02  0.16831949558E+03  0.10000000000E+00 0.  1.
         21    1    1    2  504  503 -0.33643975502E+02  0.15788101152E+03  0.63039402873E+02  0.17329828966E+03  0.00000000000E+00 0. -1.
<mgrwt>
<rscale>  1 0.20415813E+03</rscale>
<asrwt>0</asrwt>
<pdfrwt beam="1">  1       21 0.35994284E-01 0.20415813E+03</pdfrwt>
<pdfrwt beam="2">  1       21 0.22325847E-01 0.20415813E+03</pdfrwt>
<totfact> 0.13916286E+05</totfact>
</mgrwt>
</event>
<event>
 6    1  0.4180481E-002  0.1455664E+03  0.7546771E-02  0.1206029E+00
         21   -1    0    0  503  502  0.00000000000E+00  0.00000000000E+00  0.87879417283E+02  0.87879417283E+02  0.00000000000E+00 0. -1.
         21   -1    0    0  504  503 -0.00000000000E+00 -0.00000000000E+00 -0.27662084541E+03  0.27662084541E+03  0.00000000000E+00 0. -1.
         25    2    1    2    0    0 -0.13377846289E+02  0.73386812558E+02  0.16142700176E+02  0.14645875963E+03  0.12499996190E+03 0.  0.
          5    1    3    3  501    0 -0.57402056441E+02  0.41105693238E+02  0.45971189735E+02  0.84249833151E+02  0.10000000000E+00 0. -1.
         -5    1    3    3    0  501  0.44024210152E+02  0.32281119319E+02 -0.29828489559E+02  0.62208926477E+02  0.10000000000E+00 0. -1.
         21    1    1    2  504  502  0.13377846289E+02 -0.73386812558E+02 -0.20488412831E+03  0.21804150307E+03  0.00000000000E+00 0. -1.
<mgrwt>
<rscale>  1 0.14556642E+03</rscale>
<asrwt>0</asrwt>
<pdfrwt beam="1">  1       21 0.13519911E-01 0.14556642E+03</pdfrwt>
<pdfrwt beam="2">  1       21 0.42557053E-01 0.14556642E+03</pdfrwt>
<totfact> 0.25449532E+05</totfact>
</mgrwt>
</event>
<event>
 6    1  0.4180481E-002  0.1280891E+03  0.7546771E-02  0.1230319E+00
         21   -1    0    0  503  502  0.00000000000E+00  0.00000000000E+00  0.75232509865E+03  0.75232509865E+03  0.00000000000E+00 0. -1.
         21   -1    0    0  504  503 -0.00000000000E+00 -0.00000000000E+00 -0.85811941670E+01  0.85811941670E+01  0.00000000000E+00 0. -1.
         25    2    1    2    0    0 -0.19813719853E+02 -0.19727149540E+02  0.66793143807E+03  0.68010236973E+03  0.12500033368E+03 0.  0.
          5    1    3    3  501    0  0.22513625396E+02 -0.26050191388E+02  0.59152702693E+03  0.59252823510E+03  0.10000000000E+00 0. -1.
         -5    1    3    3    0  501 -0.42327345249E+02  0.63230418480E+01  0.76404411136E+02  0.87574134623E+02  0.10000000000E+00 0. -1.
         21    1    1    2  504  502  0.19813719853E+02  0.19727149540E+02  0.75812466415E+02  0.80803923093E+02  0.00000000000E+00 0. -1.
<mgrwt>
<rscale>  1 0.12808914E+03</rscale>
<asrwt>0</asrwt>
<pdfrwt beam="1">  1       21 0.11574227E+00 0.12808914E+03</pdfrwt>
<pdfrwt beam="2">  1       21 0.13201843E-02 0.12808914E+03</pdfrwt>
<totfact> 0.13955870E+06</totfact>
</mgrwt>
</event>
<event>
 6    1  0.4180481E-002  0.1285742E+03  0.7546771E-02  0.1229587E+00
         21   -1    0    0  504  502  0.00000000000E+00  0.00000000000E+00  0.18978433969E+03  0.18978433969E+03  0.00000000000E+00 0. -1.
         21   -1    0    0  502  503 -0.00000000000E+00 -0.00000000000E+00 -0.88369286399E+02  0.88369286399E+02  0.00000000000E+00 0. -1.
         25    2    1    2    0    0  0.38483199133E+00 -0.30097411164E+02  0.16418622024E+03  0.20853881694E+03  0.12500128399E+03 0.  0.
          5    1    3    3  501    0 -0.29422954236E+02  0.61893738088E+01  0.15839450514E+03  0.16122297554E+03  0.10000000000E+00 0.  1.
         -5    1    3    3    0  501  0.29807786227E+02 -0.36286784972E+02  0.57917150973E+01  0.47315841398E+02  0.10000000000E+00 0.  1.
         21    1    1    2  504  503 -0.38483199133E+00  0.30097411164E+02 -0.62771166942E+02  0.69614809155E+02  0.00000000000E+00 0. -1.
<mgrwt>
<rscale>  1 0.12857419E+03</rscale>
<asrwt>0</asrwt>
<pdfrwt beam="1">  1       21 0.29197591E-01 0.12857419E+03</pdfrwt>
<pdfrwt beam="2">  1       21 0.13595275E-01 0.12857419E+03</pdfrwt>
<totfact> 0.53066740E+05</totfact>
</mgrwt>
</event>
<event>
 6    1  0.4180481E-002  0.1410785E+03  0.7546771E-02  0.1211885E+00
         21   -1    0    0  504  502  0.00000000000E+00  0.00000000000E+00  0.36444881394E+01  0.36444881394E+01  0.00000000000E+00 0.  1.
         21   -1    0    0  502  503 -0.00000000000E+00 -0.00000000000E+00 -0.29712975127E+04  0.29712975127E+04  0.00000000000E+00 0.  1.
         25    2    1    2    0    0  0.19214117980E+02  0.62438443465E+02 -0.21970407575E+04  0.22015656321E+04  0.12504159650E+03 0.  0.
          5    1    3    3  501    0 -0.50216259355E+02  0.25958592186E+02 -0.12521608454E+04  0.12534362026E+04  0.10000000000E+00 0. -1.
         -5    1    3    3    0  501  0.69430377335E+02  0.36479851278E+02 -0.94487991213E+03  0.94812942956E+03  0.10000000000E+00 0. -1.
         21    1    1    2  504  503 -0.19214117980E+02 -0.62438443465E+02 -0.77061226702E+03  0.77337636868E+03  0.00000000000E+00 0.  1.
<mgrwt>
<rscale>  1 0.14107850E+03</rscale>
<asrwt>0</asrwt>
<pdfrwt beam="1">  1       21 0.56069099E-03 0.14107850E+03</pdfrwt>
<pdfrwt beam="2">  1       21 0.45712228E+00 0.14107850E+03</pdfrwt>
<totfact> 0.37405966E+04</totfact>
</mgrwt>
</event>
<event>
 6    1  0.4180481E-002  0.1459867E+03  0.7546771E-02  0.1205493E+00
         21   -1    0    0  504  502  0.00000000000E+00  0.00000000000E+00  0.87609107694E+02  0.87609107694E+02  0.00000000000E+00 0.  1.
         21   -1    0    0  502  503 -0.00000000000E+00 -0.00000000000E+00 -0.13998861875E+03  0.13998861875E+03  0.00000000000E+00 0.  1.
         25    2    1    2    0    0  0.42434934617E+02 -0.62343390014E+02 -0.37548471538E+02  0.15073823329E+03  0.12499882122E+03 0.  0.
          5    1    3    3  501    0 -0.59676184699E+01  0.19241726835E+02 -0.51085506504E+02  0.54914437960E+02  0.10000000000E+00 0.  1.
         -5    1    3    3    0  501  0.48402553087E+02 -0.81585116849E+02  0.13537034965E+02  0.95823795334E+02  0.10000000000E+00 0.  1.
         21    1    1    2  504  503 -0.42434934617E+02  0.62343390014E+02 -0.14831039520E+02  0.76859493152E+02  0.00000000000E+00 0.  1.
<mgrwt>
<rscale>  1 0.14598674E+03</rscale>
<asrwt>0</asrwt>
<pdfrwt beam="1">  1       21 0.13478324E-01 0.14598674E+03</pdfrwt>
<pdfrwt beam="2">  1       21 0.21536710E-01 0.14598674E+03</pdfrwt>
<totfact> 0.95887203E+05</totfact>
</mgrwt>
</event>
<event>
 6    1  0.4180481E-002  0.1277717E+03  0.7546771E-02  0.1230800E+00
         21   -1    0    0  503  502  0.00000000000E+00  0.00000000000E+00  0.13263633203E+03  0.13263633203E+03  0.00000000000E+00 0. -1.
         21   -1    0    0  504  503 -0.00000000000E+00 -0.00000000000E+00 -0.56157152677E+02  0.56157152677E+02  0.00000000000E+00 0. -1.
         25    2    1    2    0    0 -0.22114985640E+02  0.14537209036E+02  0.92605909632E+02  0.15780196222E+03  0.12500080698E+03 0.  0.
          5    1    3    3  501    0 -0.27941910180E+02 -0.51087314432E+02  0.62323209734E+02  0.85292769400E+02  0.10000000000E+00 0.  1.
         -5    1    3    3    0  501  0.58269245397E+01  0.65624523467E+02  0.30282699898E+02  0.72509192817E+02  0.10000000000E+00 0.  1.
         21    1    1    2  504  502  0.22114985640E+02 -0.14537209036E+02 -0.16126730282E+02  0.30991522487E+02  0.00000000000E+00 0. -1.
<mgrwt>
<rscale>  1 0.12777169E+03</rscale>
<asrwt>0</asrwt>
<pdfrwt beam="1">  1       21 0.20405589E-01 0.12777169E+03</pdfrwt>
<pdfrwt beam="2">  1       21 0.86395620E-02 0.12777169E+03</pdfrwt>
<totfact> 0.23150938E+06</totfact>
</mgrwt>
</event>
<event>
 6    1  0.4180481E-002  0.1624335E+03  0.7546771E-02  0.1185976E+00
         21   -1    0    0  503  502  0.00000000000E+00  0.00000000000E+00  0.13394918202E+04  0.13394918202E+04  0.00000000000E+00 0.  1.
         21   -1    0    0  504  503 -0.00000000000E+00 -0.00000000000E+00 -0.46708424562E+02  0.46708424562E+02  0.00000000000E+00 0.  1.
         25    2    1    2    0    0  0.63249298692E+01 -0.10357427490E+03  0.12695043647E+04  0.12798538840E+04  0.12496798473E+03 0.  0.
          5    1    3    3  501    0  0.54026719153E+02 -0.93139581064E+02  0.10159876829E+04  0.10216774686E+04  0.10000000000E+00 0.  1.
         -5    1    3    3    0  501 -0.47701789284E+02 -0.10434693836E+02  0.25351668179E+03  0.25817641542E+03  0.10000000000E+00 0.  1.
         21    1    1    2  504  502 -0.63249298692E+01  0.10357427490E+03  0.23279030882E+02  0.10634636072E+03  0.00000000000E+00 0.  1.
<mgrwt>
<rscale>  1 0.16243347E+03</rscale>
<asrwt>0</asrwt>
<pdfrwt beam="1">  1       21 0.20607564E+00 0.16243347E+03</pdfrwt>
<pdfrwt beam="2">  1       21 0.71859125E-02 0.16243347E+03</pdfrwt>
<totfact> 0.18207340E+04</totfact>
</mgrwt>
</event>
<event>
 6    1  0.4180481E-002  0.1285308E+03  0.7546771E-02  0.1229652E+00
         21   -1    0    0  503  502  0.00000000000E+00  0.00000000000E+00  0.69972044555E+02  0.69972044555E+02  0.00000000000E+00 0. -1.
         21   -1    0    0  504  503 -0.00000000000E+00 -0.00000000000E+00 -0.17661723281E+03  0.17661723281E+03  0.00000000000E+00 0.  1.
         25    2    1    2    0    0 -0.29711421359E+02  0.33433759970E+01  0.73475821275E+01  0.12874065233E+03  0.12500488742E+03 0.  0.
          5    1    3    3  501    0 -0.74355985120E+02  0.13507014796E+02  0.25100820922E+02  0.79632362660E+02  0.10000000000E+00 0.  1.
         -5    1    3    3    0  501  0.44644563761E+02 -0.10163638799E+02 -0.17753238794E+02  0.49108289675E+02  0.10000000000E+00 0.  1.
         21    1    1    2  504  502  0.29711421359E+02 -0.33433759970E+01 -0.11399277038E+03  0.11784862503E+03  0.00000000000E+00 0.  1.
<mgrwt>
<rscale>  1 0.12853081E+03</rscale>
<asrwt>0</asrwt>
<pdfrwt beam="1">  1       21 0.10764930E-01 0.12853081E+03</pdfrwt>
<pdfrwt beam="2">  1       21 0.27171882E-01 0.12853081E+03</pdfrwt>
<totfact> 0.92117050E+05</totfact>
</mgrwt>
</event>
<event>
 6    1  0.4180481E-002  0.1274470E+03  0.7546771E-02  0.1231294E+00
         21   -1    0    0  504  502  0.00000000000E+00  0.00000000000E+00  0.40983202619E+02  0.40983202619E+02  0.00000000000E+00 0.  1.
         21   -1    0    0  502  503 -0.00000000000E+00 -0.00000000000E+00 -0.15841421035E+03  0.15841421035E+03  0.00000000000E+00 0.  1.
         25    2    1    2    0    0 -0.21527490569E+02 -0.12428456430E+02 -0.68920201527E+02  0.14488871919E+03  0.12499938956E+03 0.  0.
          5    1    3    3  501    0  0.18716287597E+02  0.48377619602E+01 -0.92948958818E+02  0.94937991908E+02  0.10000000000E+00 0.  1.
         -5    1    3    3    0  501 -0.40243778166E+02 -0.17266218391E+02  0.24028757290E+02  0.49950727277E+02  0.10000000000E+00 0.  1.
         21    1    1    2  504  503  0.21527490569E+02  0.12428456430E+02 -0.48510806199E+02  0.54508693779E+02  0.00000000000E+00 0.  1.
<mgrwt>
<rscale>  1 0.12744704E+03</rscale>
<asrwt>0</asrwt>
<pdfrwt beam="1">  1       21 0.63051081E-02 0.12744704E+03</pdfrwt>
<pdfrwt beam="2">  1       21 0.24371417E-01 0.12744704E+03</pdfrwt>
<totfact> 0.28520314E+06</totfact>
</mgrwt>
</event>
<event>
 6    1  0.4180481E-002  0.1288949E+03  0.7546771E-02  0.1229105E+00
         21   -1    0    0  503  502  0.00000000000E+00  0.00000000000E+00  0.19670598851E+02  0.19670598851E+02  0.00000000000E+00 0. -1.
         21   -1    0    0  504  503 -0.00000000000E+00 -0.00000000000E+00 -0.43698956060E+03  0.43698956060E+03  0.00000000000E+00 0. -1.
         25    2    1    2    0    0  0.18850738780E+02 -0.25035900914E+02 -0.20580103423E+03  0.24283317250E+03  0.12502694625E+03 0.  0.
          5    1    3    3  501    0 -0.10395160474E+02  0.10902822734E+02  0.12557921570E+02  0.19612299687E+02  0.10000000000E+00 0.  1.
         -5    1    3    3    0  501  0.29245899254E+02 -0.35938723649E+02 -0.21835895580E+03  0.22322087281E+03  0.10000000000E+00 0.  1.
         21    1    1    2  504  502 -0.18850738780E+02  0.25035900914E+02 -0.21151792752E+03  0.21382698695E+03  0.00000000000E+00 0. -1.
<mgrwt>
<rscale>  1 0.12889486E+03</rscale>
<asrwt>0</asrwt>
<pdfrwt beam="1">  1       21 0.30262457E-02 0.12889486E+03</pdfrwt>
<pdfrwt beam="2">  1       21 0.67229169E-01 0.12889486E+03</pdfrwt>
<totfact> 0.12641036E+06</totfact>
</mgrwt>
</event>
<event>
 6    1  0.4180481E-002  0.1558092E+03  0.7546771E-02  0.1193511E+00
         21   -1    0    0  503  502  0.00000000000E+00  0.00000000000E+00  0.21048760263E+03  0.21048760263E+03  0.00000000000E+00 0. -1.
         21   -1    0    0  504  503 -0.00000000000E+00 -0.00000000000E+00 -0.79538868020E+02  0.79538868020E+02  0.00000000000E+00 0. -1.
         25    2    1    2    0    0  0.75014152560E+02 -0.54993743269E+02  0.11940263935E+03  0.19629948842E+03  0.12500025595E+03 0.  0.
          5    1    3    3  501    0  0.75891820522E+02 -0.86911252857E+02  0.62937117065E+02  0.13143144601E+03  0.10000000000E+00 0.  1.
         -5    1    3    3    0  501 -0.87766796183E+00  0.31917509588E+02  0.56465522286E+02  0.64868042412E+02  0.10000000000E+00 0.  1.
         21    1    1    2  504  502 -0.75014152560E+02  0.54993743269E+02  0.11546095264E+02  0.93726982235E+02  0.00000000000E+00 0. -1.
<mgrwt>
<rscale>  1 0.15580917E+03</rscale>
<asrwt>0</asrwt>
<pdfrwt beam="1">  1       21 0.32382708E-01 0.15580917E+03</pdfrwt>
<pdfrwt beam="2">  1       21 0.12236749E-01 0.15580917E+03</pdfrwt>
<totfact> 0.52285331E+05</totfact>
</mgrwt>
</event>
<event>
 6    1  0.4180481E-002  0.1351710E+03  0.7546771E-02  0.1219978E+00
         21   -1    0    0  503  502  0.00000000000E+00  0.00000000000E+00  0.75777514274E+02  0.75777514274E+02  0.00000000000E+00 0.  1.
         21   -1    0    0  504  503 -0.00000000000E+00 -0.00000000000E+00 -0.11714925888E+03  0.11714925888E+03  0.00000000000E+00 0.  1.
         25    2    1    2    0    0  0.48352064301E+02 -0.17531298669E+02 -0.17756995630E+02  0.13633238364E+03  0.12500375746E+03 0.  0.
          5    1    3    3  501    0  0.13513340296E+02 -0.64695329275E+01  0.53871576825E+02  0.55916205270E+02  0.10000000000E+00 0.  1.
         -5    1    3    3    0  501  0.34838724005E+02 -0.11061765741E+02 -0.71628572454E+02  0.80416178369E+02  0.10000000000E+00 0.  1.
         21    1    1    2  504  502 -0.48352064301E+02  0.17531298669E+02 -0.23614748976E+02  0.56594389513E+02  0.00000000000E+00 0.  1.
<mgrwt>
<rscale>  1 0.13517103E+03</rscale>
<asrwt>0</asrwt>
<pdfrwt beam="1">  1       21 0.11658079E-01 0.13517103E+03</pdfrwt>
<pdfrwt beam="2">  1       21 0.18022963E-01 0.13517103E+03</pdfrwt>
<totfact> 0.17248002E+06</totfact>
</mgrwt>
</event>
<event>
 6    1  0.4180481E-002  0.1268484E+03  0.7546771E-02  0.1232209E+00
         21   -1    0    0  504  502  0.00000000000E+00  0.00000000000E+00  0.10185096118E+03  0.10185096118E+03  0.00000000000E+00 0. -1.
         21   -1    0    0  502  503 -0.00000000000E+00 -0.00000000000E+00 -0.13646798904E+03  0.13646798904E+03  0.00000000000E+00 0. -1.
         25    2    1    2    0    0  0.18655119065E+02  0.10862028438E+02  0.60674691610E+02  0.14061271230E+03  0.12499807810E+03 0.  0.
          5    1    3    3  501    0 -0.13462239871E+02 -0.51906560759E+02  0.12043512474E+02  0.54959795714E+02  0.10000000000E+00 0.  1.
         -5    1    3    3    0  501  0.32117358936E+02  0.62768589197E+02  0.48631179135E+02  0.85652916581E+02  0.10000000000E+00 0.  1.
         21    1    1    2  504  503 -0.18655119065E+02 -0.10862028438E+02 -0.95291719469E+02  0.97706237920E+02  0.00000000000E+00 0. -1.
<mgrwt>
<rscale>  1 0.12684840E+03</rscale>
<asrwt>0</asrwt>
<pdfrwt beam="1">  1       21 0.15669379E-01 0.12684840E+03</pdfrwt>
<pdfrwt beam="2">  1       21 0.20995075E-01 0.12684840E+03</pdfrwt>
<totfact> 0.76626348E+05</totfact>
</mgrwt>
</event>
<event>
 6    1  0.4180481E-002  0.1268117E+03  0.7546771E-02  0.1232265E+00
         21   -1    0    0  503  502  0.00000000000E+00  0.00000000000E+00  0.63094094138E+01  0.63094094138E+01  0.00000000000E+00 0.  1.
         21   -1    0    0  504  503 -0.00000000000E+00 -0.00000000000E+00 -0.89244958262E+03  0.89244958262E+03  0.00000000000E+00 0.  1.
         25    2    1    2    0    0 -0.75257873938E+01 -0.20221406100E+02 -0.70231516385E+03  0.71367204813E+03  0.12496263506E+03 0.  0.
          5    1    3    3  501    0 -0.59122948665E+02 -0.56865212141E+01 -0.20367672588E+03  0.21216050115E+03  0.10000000000E+00 0.  1.
         -5    1    3    3    0  501  0.51597161271E+02 -0.14534884886E+02 -0.49863843797E+03  0.50151154698E+03  0.10000000000E+00 0.  1.
         21    1    1    2  504  502  0.75257873938E+01  0.20221406100E+02 -0.18382500935E+03  0.18508694390E+03  0.00000000000E+00 0.  1.
<mgrwt>
<rscale>  1 0.12681168E+03</rscale>
<asrwt>0</asrwt>
<pdfrwt beam="1">  1       21 0.97067908E-03 0.12681168E+03</pdfrwt>
<pdfrwt beam="2">  1       21 0.13729984E+00 0.12681168E+03</pdfrwt>
<totfact> 0.14891810E+06</totfact>
</mgrwt>
</event>
<event>
 6    1  0.4180481E-002  0.1274010E+03  0.7546771E-02  0.1231364E+00
         21   -1    0    0  503  502  0.00000000000E+00  0.00000000000E+00  0.66025968169E+03  0.66025968169E+03  0.00000000000E+00 0.  1.
         21   -1    0    0  504  503 -0.00000000000E+00 -0.00000000000E+00 -0.18873317517E+03  0.18873317517E+03  0.00000000000E+00 0.  1.
         25    2    1    2    0    0 -0.57638398886E+01  0.23917286186E+02  0.65327750692E+03  0.66558433860E+03  0.12500300923E+03 0.  0.
          5    1    3    3  501    0 -0.11226724909E+02 -0.50527001242E+02  0.30930297351E+03  0.31360382114E+03  0.10000000000E+00 0.  1.
         -5    1    3    3    0  501  0.54628850208E+01  0.74444287429E+02  0.34397453340E+03  0.35198051746E+03  0.10000000000E+00 0.  1.
         21    1    1    2  504  502  0.57638398886E+01 -0.23917286186E+02 -0.18175100039E+03  0.18340851826E+03  0.00000000000E+00 0.  1.
<mgrwt>
<rscale>  1 0.12740098E+03</rscale>
<asrwt>0</asrwt>
<pdfrwt beam="1">  1       21 0.10157841E+00 0.12740098E+03</pdfrwt>
<pdfrwt beam="2">  1       21 0.29035873E-01 0.12740098E+03</pdfrwt>
<totfact> 0.94643318E+03</totfact>
</mgrwt>
</event>
<event>
 6    1  0.4180481E-002  0.1295076E+03  0.7546771E-02  0.1228188E+00
         21   -1    0    0  504  502  0.00000000000E+00  0.00000000000E+00  0.35357827918E+02  0.35357827918E+02  0.00000000000E+00 0. -1.
         21   -1    0    0  502  503 -0.00000000000E+00 -0.00000000000E+00 -0.19145746390E+03  0.19145746390E+03  0.00000000000E+00 0. -1.
         25    2    1    2    0    0  0.32697132631E+02  0.88108347530E+01 -0.11204202605E+03  0.17124725888E+03  0.12500189912E+03 0.  0.
          5    1    3    3  501    0  0.24983249359E+02 -0.56211792451E+02 -0.37554188016E+02  0.72071182845E+02  0.10000000000E+00 0.  1.
         -5    1    3    3    0  501  0.77138832720E+01  0.65022627204E+02 -0.74487838034E+02  0.99176076039E+02  0.10000000000E+00 0.  1.
         21    1    1    2  504  503 -0.32697132631E+02 -0.88108347529E+01 -0.44057609936E+02  0.55568032938E+02  0.00000000000E+00 0. -1.
<mgrwt>
<rscale>  1 0.12950756E+03</rscale>
<asrwt>0</asrwt>
<pdfrwt beam="1">  1       21 0.54396659E-02 0.12950756E+03</pdfrwt>
<pdfrwt beam="2">  1       21 0.29454994E-01 0.12950756E+03</pdfrwt>
<totfact> 0.25544847E+06</totfact>
</mgrwt>
</event>
<event>
 6    1  0.4180481E-002  0.1314890E+03  0.7546771E-02  0.1225263E+00
         21   -1    0    0  504  502  0.00000000000E+00  0.00000000000E+00  0.25612372924E+02  0.25612372924E+02  0.00000000000E+00 0.  1.
         21   -1    0    0  502  503 -0.00000000000E+00 -0.00000000000E+00 -0.39176582664E+03  0.39176582664E+03  0.00000000000E+00 0. -1.
         25    2    1    2    0    0  0.40540076734E+02  0.46043145335E+01 -0.15938512461E+03  0.20662279760E+03  0.12499866003E+03 0.  0.
          5    1    3    3  501    0 -0.44646715377E+02  0.10389071372E+02 -0.49506570709E+02  0.67469789841E+02  0.10000000000E+00 0. -1.
         -5    1    3    3    0  501  0.85186792110E+02 -0.57847568390E+01 -0.10987855390E+03  0.13915300776E+03  0.10000000000E+00 0. -1.
         21    1    1    2  504  503 -0.40540076734E+02 -0.46043145335E+01 -0.20676832911E+03  0.21075540197E+03  0.00000000000E+00 0. -1.
<mgrwt>
<rscale>  1 0.13148902E+03</rscale>
<asrwt>0</asrwt>
<pdfrwt beam="1">  1       21 0.39403655E-02 0.13148902E+03</pdfrwt>
<pdfrwt beam="2">  1       21 0.60271660E-01 0.13148902E+03</pdfrwt>
<totfact> 0.10338108E+06</totfact>
</mgrwt>
</event>
<event>
 6    1  0.4180481E-002  0.1405945E+03  0.7546771E-02  0.1212531E+00
         21   -1    0    0  503  502  0.00000000000E+00  0.00000000000E+00  0.74248431804E+03  0.74248431804E+03  0.00000000000E+00 0. -1.
         21   -1    0    0  504  503 -0.00000000000E+00 -0.00000000000E+00 -0.45883248001E+02  0.45883248001E+02  0.00000000000E+00 0. -1.
         25    2    1    2    0    0  0.10488571547E+02  0.63481202611E+02  0.67453387848E+02  0.15593837694E+03  0.12500777837E+03 0.  0.
          5    1    3    3  501    0 -0.20381335222E+02  0.77882562798E+02  0.14983222430E+00  0.80505433749E+02  0.10000000000E+00 0.  1.
         -5    1    3    3    0  501  0.30869906768E+02 -0.14401360187E+02  0.67303555624E+02  0.75432943193E+02  0.10000000000E+00 0.  1.
         21    1    1    2  504  502 -0.10488571547E+02 -0.63481202611E+02  0.62914768220E+03  0.63242918910E+03  0.00000000000E+00 0. -1.
<mgrwt>
<rscale>  1 0.14059452E+03</rscale>
<asrwt>0</asrwt>
<pdfrwt beam="1">  1       21 0.11422835E+00 0.14059452E+03</pdfrwt>
<pdfrwt beam="2">  1       21 0.70589618E-02 0.14059452E+03</pdfrwt>
<totfact> 0.90963931E+04</totfact>
</mgrwt>
</event>
<event>
 6    1  0.4180481E-002  0.1329650E+03  0.7546771E-02  0.1223121E+00
         21   -1    0    0  503  502  0.00000000000E+00  0.00000000000E+00  0.83839729202E+02  0.83839729202E+02  0.00000000000E+00 0.  1.
         21   -1    0    0  504  503 -0.00000000000E+00 -0.00000000000E+00 -0.95654056885E+02  0.95654056885E+02  0.00000000000E+00 0.  1.
         25    2    1    2    0    0  0.16860939338E+02  0.42053122479E+02 -0.12488169906E+01  0.13297081970E+03  0.12500769161E+03 0.  0.
          5    1    3    3  501    0 -0.20590134770E+02 -0.37593694935E+02 -0.11457879649E+02  0.44368147975E+02  0.10000000000E+00 0. -1.
         -5    1    3    3    0  501  0.37451074108E+02  0.79646817413E+02  0.10209062658E+02  0.88602671722E+02  0.10000000000E+00 0. -1.
         21    1    1    2  504  502 -0.16860939338E+02 -0.42053122479E+02 -0.10565510692E+02  0.46522966390E+02  0.00000000000E+00 0.  1.
<mgrwt>
<rscale>  1 0.13296496E+03</rscale>
<asrwt>0</asrwt>
<pdfrwt beam="1">  1       21 0.12898420E-01 0.13296496E+03</pdfrwt>
<pdfrwt beam="2">  1       21 0.14716009E-01 0.13296496E+03</pdfrwt>
<totfact> 0.20823049E+06</totfact>
</mgrwt>
</event>
<event>
 6    1  0.4180481E-002  0.1269332E+03  0.7546771E-02  0.1232079E+00
         21   -1    0    0  504  502  0.00000000000E+00  0.00000000000E+00  0.20422825024E+02  0.20422825024E+02  0.00000000000E+00 0.  1.
         21   -1    0    0  502  503 -0.00000000000E+00 -0.00000000000E+00 -0.27549064890E+03  0.27549064890E+03  0.00000000000E+00 0.  1.
         25    2    1    2    0    0  0.32878682082E+01 -0.21801682633E+02 -0.20367369299E+03  0.23998959591E+03  0.12500363789E+03 0.  0.
          5    1    3    3  501    0  0.31900418486E+02 -0.64843326004E+02 -0.14348123518E+03  0.16065232173E+03  0.10000000000E+00 0.  1.
         -5    1    3    3    0  501 -0.28612550278E+02  0.43041643371E+02 -0.60192457813E+02  0.79337274185E+02  0.10000000000E+00 0.  1.
         21    1    1    2  504  503 -0.32878682082E+01  0.21801682633E+02 -0.51394130886E+02  0.55923878017E+02  0.00000000000E+00 0.  1.
<mgrwt>
<rscale>  1 0.12693318E+03</rscale>
<asrwt>0</asrwt>
<pdfrwt beam="1">  1       21 0.31419731E-02 0.12693318E+03</pdfrwt>
<pdfrwt beam="2">  1       21 0.42383177E-01 0.12693318E+03</pdfrwt>
<totfact> 0.31097049E+06</totfact>
</mgrwt>
</event>
<event>
 6    1  0.4180481E-002  0.1286277E+03  0.7546771E-02  0.1229506E+00
         21   -1    0    0  503  502  0.00000000000E+00  0.00000000000E+00  0.11323426515E+04  0.11323426515E+04  0.00000000000E+00 0.  1.
         21   -1    0    0  504  503 -0.00000000000E+00 -0.00000000000E+00 -0.56313363798E+01  0.56313363798E+01  0.00000000000E+00 0.  1.
         25    2    1    2    0    0 -0.26323863103E+02 -0.15075531998E+02  0.95170918417E+03  0.96036215474E+03  0.12499951837E+03 0.  0.
          5    1    3    3  501    0  0.46419675649E+02 -0.18555648214E+02  0.25477290159E+03  0.25963116098E+03  0.10000000000E+00 0. -1.
         -5    1    3    3    0  501 -0.72743538752E+02  0.34801162161E+01  0.69693628258E+03  0.70073099376E+03  0.10000000000E+00 0. -1.
         21    1    1    2  504  502  0.26323863103E+02  0.15075531998E+02  0.17500213093E+03  0.17761183312E+03  0.00000000000E+00 0.  1.
<mgrwt>
<rscale>  1 0.12862775E+03</rscale>
<asrwt>0</asrwt>
<pdfrwt beam="1">  1       21 0.17420638E+00 0.12862775E+03</pdfrwt>
<pdfrwt beam="2">  1       21 0.86636034E-03 0.12862775E+03</pdfrwt>
<totfact> 0.95389630E+05</totfact>
</mgrwt>
</event>
<event>
 6    1  0.4180481E-002  0.1262342E+03  0.7546771E-02  0.1233153E+00
         21   -1    0    0  504  502  0.00000000000E+00  0.00000000000E+00  0.15388635268E+03  0.15388635268E+03  0.00000000000E+00 0. -1.
         21   -1    0    0  502  503 -0.00000000000E+00 -0.00000000000E+00 -0.41857033735E+03  0.41857033735E+03  0.00000000000E+00 0.  1.
         25    2    1    2    0    0 -0.12277306256E+02 -0.12623265998E+02  0.12776793246E+03  0.17960991793E+03  0.12499999584E+03 0.  0.
          5    1    3    3  501    0 -0.21717232155E+01 -0.21664528381E+02  0.15107998162E+03  0.15264088253E+03  0.10000000000E+00 0.  1.
         -5    1    3    3    0  501 -0.10105583040E+02  0.90412623831E+01 -0.23312049165E+02  0.26969035398E+02  0.10000000000E+00 0.  1.
         21    1    1    2  504  503  0.12277306256E+02  0.12623265998E+02 -0.39245191713E+03  0.39284677211E+03  0.00000000000E+00 0.  1.
<mgrwt>
<rscale>  1 0.12623422E+03</rscale>
<asrwt>0</asrwt>
<pdfrwt beam="1">  1       21 0.23674823E-01 0.12623422E+03</pdfrwt>
<pdfrwt beam="2">  1       21 0.64395437E-01 0.12623422E+03</pdfrwt>
<totfact> 0.38761451E+04</totfact>
</mgrwt>
</event>
<event>
 6    1  0.4180481E-002  0.1306746E+03  0.7546771E-02  0.1226458E+00
         21   -1    0    0  503  502  0.00000000000E+00  0.00000000000E+00  0.25460308175E+03  0.25460308175E+03  0.00000000000E+00 0. -1.
         21   -1    0    0  504  503 -0.00000000000E+00 -0.00000000000E+00 -0.33132414646E+02  0.33132414646E+02  0.00000000000E+00 0. -1.
         25    2    1    2    0    0 -0.14730863437E+02  0.35125259195E+02  0.21107889166E+03  0.24825422023E+03  0.12500030874E+03 0.  0.
          5    1    3    3  501    0  0.19274929897E+02  0.35055417981E+02  0.21047465258E+03  0.21424284032E+03  0.10000000000E+00 0.  1.
         -5    1    3    3    0  501 -0.34005793334E+02  0.69841213963E-01  0.60423908157E+00  0.34011379903E+02  0.10000000000E+00 0.  1.
         21    1    1    2  504  502  0.14730863437E+02 -0.35125259195E+02  0.10391775447E+02  0.39481276171E+02  0.00000000000E+00 0. -1.
<mgrwt>
<rscale>  1 0.13067463E+03</rscale>
<asrwt>0</asrwt>
<pdfrwt beam="1">  1       21 0.39169704E-01 0.13067463E+03</pdfrwt>
<pdfrwt beam="2">  1       21 0.50972947E-02 0.13067463E+03</pdfrwt>
<totfact> 0.16313835E+06</totfact>
</mgrwt>
</event>
<event>
 6    1  0.4180481E-002  0.1301457E+03  0.7546771E-02  0.1227240E+00
         21   -1    0    0  503  502  0.00000000000E+00  0.00000000000E+00  0.36482609076E+03  0.36482609076E+03  0.00000000000E+00 0. -1.
         21   -1    0    0  504  503 -0.00000000000E+00 -0.00000000000E+00 -0.39055385879E+02  0.39055385879E+02  0.00000000000E+00 0. -1.
         25    2    1    2    0    0  0.32451636823E+02 -0.15996901103E+02  0.34072332366E+03  0.36473316395E+03  0.12501555113E+03 0.  0.
          5    1    3    3  501    0 -0.21802164858E+02  0.43472647683E+02  0.15099258743E+03  0.15863157614E+03  0.10000000000E+00 0.  1.
         -5    1    3    3    0  501  0.54253801681E+02 -0.59469548787E+02  0.18973073623E+03  0.20610158782E+03  0.10000000000E+00 0.  1.
         21    1    1    2  504  502 -0.32451636823E+02  0.15996901103E+02 -0.14952618782E+02  0.39148312682E+02  0.00000000000E+00 0. -1.
<mgrwt>
<rscale>  1 0.13014568E+03</rscale>
<asrwt>0</asrwt>
<pdfrwt beam="1">  1       21 0.56127088E-01 0.13014568E+03</pdfrwt>
<pdfrwt beam="2">  1       21 0.60085212E-02 0.13014568E+03</pdfrwt>
<totfact> 0.59208085E+05</totfact>
</mgrwt>
</event>
<event>
 6    1  0.4180481E-002  0.1267239E+03  0.7546771E-02  0.1232399E+00
         21   -1    0    0  504  502  0.00000000000E+00  0.00000000000E+00  0.10621928227E+03  0.10621928227E+03  0.00000000000E+00 0. -1.
         21   -1    0    0  502  503 -0.00000000000E+00 -0.00000000000E+00 -0.19823282344E+03  0.19823282344E+03  0.00000000000E+00 0. -1.
         25    2    1    2    0    0 -0.14717881568E+02 -0.14719984630E+02  0.67504252332E+02  0.14358190825E+03  0.12500258521E+03 0.  0.
          5    1    3    3  501    0 -0.16415466760E+00  0.55238015798E+02  0.27893726814E+02  0.61881623538E+02  0.10000000000E+00 0. -1.
         -5    1    3    3    0  501 -0.14553726900E+02 -0.69958000428E+02  0.39610525518E+02  0.81700284715E+02  0.10000000000E+00 0. -1.
         21    1    1    2  504  503  0.14717881568E+02  0.14719984630E+02 -0.15951779350E+03  0.16087019745E+03  0.00000000000E+00 0. -1.
<mgrwt>
<rscale>  1 0.12672387E+03</rscale>
<asrwt>0</asrwt>
<pdfrwt beam="1">  1       21 0.16341428E-01 0.12672387E+03</pdfrwt>
<pdfrwt beam="2">  1       21 0.30497357E-01 0.12672387E+03</pdfrwt>
<totfact> 0.35035445E+05</totfact>
</mgrwt>
</event>
<event>
 6    1  0.4180481E-002  0.1304826E+03  0.7546771E-02  0.1226741E+00
         21   -1    0    0  503  502  0.00000000000E+00  0.00000000000E+00  0.12117492560E+04  0.12117492560E+04  0.00000000000E+00 0.  1.
         21   -1    0    0  504  503 -0.00000000000E+00 -0.00000000000E+00 -0.24591671860E+02  0.24591671860E+02  0.00000000000E+00 0. -1.
         25    2    1    2    0    0  0.36806382718E+02 -0.67553930138E+01  0.11915407940E+04  0.11986639100E+04  0.12500144148E+03 0.  0.
          5    1    3    3  501    0  0.55993173368E+02  0.23381059460E+02  0.10763761111E+04  0.10780850856E+04  0.10000000000E+00 0.  1.
         -5    1    3    3    0  501 -0.19186790650E+02 -0.30136452474E+02  0.11516468289E+03  0.12057882438E+03  0.10000000000E+00 0.  1.
         21    1    1    2  504  502 -0.36806382718E+02  0.67553930138E+01 -0.43832098364E+01  0.37677017823E+02  0.00000000000E+00 0. -1.
<mgrwt>
<rscale>  1 0.13048259E+03</rscale>
<asrwt>0</asrwt>
<pdfrwt beam="1">  1       21 0.18642292E+00 0.13048259E+03</pdfrwt>
<pdfrwt beam="2">  1       21 0.37833351E-02 0.13048259E+03</pdfrwt>
<totfact> 0.73659212E+04</totfact>
</mgrwt>
</event>
<event>
 6    1  0.4180481E-002  0.1270290E+03  0.7546771E-02  0.1231932E+00
         21   -1    0    0  503  502  0.00000000000E+00  0.00000000000E+00  0.87963248661E+03  0.87963248661E+03  0.00000000000E+00 0. -1.
         21   -1    0    0  504  503 -0.00000000000E+00 -0.00000000000E+00 -0.24490735279E+02  0.24490735279E+02  0.00000000000E+00 0.  1.
         25    2    1    2    0    0  0.20445698082E+02 -0.10203196225E+02  0.86844256195E+03  0.87768379402E+03  0.12495690092E+03 0.  0.
          5    1    3    3  501    0  0.26947338121E+02  0.40236705647E+02  0.15403000908E+03  0.16146332466E+03  0.10000000000E+00 0.  1.
         -5    1    3    3    0  501 -0.65016400388E+01 -0.50439901873E+02  0.71441255287E+03  0.71622046936E+03  0.10000000000E+00 0.  1.
         21    1    1    2  504  502 -0.20445698082E+02  0.10203196225E+02 -0.13300810618E+02  0.26439427875E+02  0.00000000000E+00 0.  1.
<mgrwt>
<rscale>  1 0.12702897E+03</rscale>
<asrwt>0</asrwt>
<pdfrwt beam="1">  1       21 0.13532805E+00 0.12702897E+03</pdfrwt>
<pdfrwt beam="2">  1       21 0.37678061E-02 0.12702897E+03</pdfrwt>
<totfact> 0.17352258E+05</totfact>
</mgrwt>
</event>
<event>
 6    1  0.4180481E-002  0.1296462E+03  0.7546771E-02  0.1227982E+00
         21   -1    0    0  504  502  0.00000000000E+00  0.00000000000E+00  0.18980623856E+03  0.18980623856E+03  0.00000000000E+00 0.  1.
         21   -1    0    0  502  503 -0.00000000000E+00 -0.00000000000E+00 -0.79840595396E+02  0.79840595396E+02  0.00000000000E+00 0.  1.
         25    2    1    2    0    0  0.32963379219E+02 -0.98080581112E+01  0.16186623433E+03  0.20738566037E+03  0.12500140775E+03 0.  0.
          5    1    3    3  501    0 -0.32008367311E+02 -0.13566511070E+02  0.13066813372E+03  0.13521374550E+03  0.10000000000E+00 0.  1.
         -5    1    3    3    0  501  0.64971746530E+02  0.37584529592E+01  0.31198100606E+02  0.72171914879E+02  0.10000000000E+00 0.  1.
         21    1    1    2  504  503 -0.32963379219E+02  0.98080581112E+01 -0.51900591161E+02  0.62261173586E+02  0.00000000000E+00 0.  1.
<mgrwt>
<rscale>  1 0.12964619E+03</rscale>
<asrwt>0</asrwt>
<pdfrwt beam="1">  1       21 0.29200960E-01 0.12964619E+03</pdfrwt>
<pdfrwt beam="2">  1       21 0.12283169E-01 0.12964619E+03</pdfrwt>
<totfact> 0.63568434E+05</totfact>
</mgrwt>
</event>
<event>
 6    1  0.4180481E-002  0.1266537E+03  0.7546771E-02  0.1232507E+00
         21   -1    0    0  503  502  0.00000000000E+00  0.00000000000E+00  0.18307241841E+03  0.18307241841E+03  0.00000000000E+00 0. -1.
         21   -1    0    0  504  503 -0.00000000000E+00 -0.00000000000E+00 -0.69847411769E+02  0.69847411769E+02  0.00000000000E+00 0. -1.
         25    2    1    2    0    0 -0.16413683314E+02 -0.12095890677E+02  0.15872312107E+03  0.20306205256E+03  0.12500179381E+03 0.  0.
          5    1    3    3  501    0  0.48418133454E+02 -0.55797799134E+00  0.26140909509E+02  0.55027121827E+02  0.10000000000E+00 0.  1.
         -5    1    3    3    0  501 -0.64831816768E+02 -0.11537912686E+02  0.13258221157E+03  0.14803493074E+03  0.10000000000E+00 0.  1.
         21    1    1    2  504  502  0.16413683314E+02  0.12095890677E+02 -0.45498114436E+02  0.49857777613E+02  0.00000000000E+00 0. -1.
<mgrwt>
<rscale>  1 0.12665373E+03</rscale>
<asrwt>0</asrwt>
<pdfrwt beam="1">  1       21 0.28164987E-01 0.12665373E+03</pdfrwt>
<pdfrwt beam="2">  1       21 0.10745756E-01 0.12665373E+03</pdfrwt>
<totfact> 0.86271245E+05</totfact>
</mgrwt>
</event>
<event>
 6    1  0.4180481E-002  0.1357230E+03  0.7546771E-02  0.1219203E+00
         21   -1    0    0  503  502  0.00000000000E+00  0.00000000000E+00  0.76740564444E+02  0.76740564444E+02  0.00000000000E+00 0.  1.
         21   -1    0    0  504  503 -0.00000000000E+00 -0.00000000000E+00 -0.20247336420E+03  0.20247336420E+03  0.00000000000E+00 0.  1.
         25    2    1    2    0    0 -0.48608251279E+02  0.20750213278E+02  0.74502696889E+01  0.13592728087E+03  0.12500954253E+03 0.  0.
          5    1    3    3  501    0  0.35364788986E+02  0.13357380710E+02 -0.25302942027E+02  0.45489963669E+02  0.10000000000E+00 0. -1.
         -5    1    3    3    0  501 -0.83973040266E+02  0.73928325682E+01  0.32753211715E+02  0.90437317201E+02  0.10000000000E+00 0. -1.
         21    1    1    2  504  502  0.48608251279E+02 -0.20750213278E+02 -0.13318306945E+03  0.14328664778E+03  0.00000000000E+00 0.  1.
<mgrwt>
<rscale>  1 0.13572295E+03</rscale>
<asrwt>0</asrwt>
<pdfrwt beam="1">  1       21 0.11806241E-01 0.13572295E+03</pdfrwt>
<pdfrwt beam="2">  1       21 0.31149748E-01 0.13572295E+03</pdfrwt>
<totfact> 0.60178807E+05</totfact>
</mgrwt>
</event>
<event>
 6    1  0.4180481E-002  0.1261048E+03  0.7546771E-02  0.1233353E+00
         21   -1    0    0  503  502  0.00000000000E+00  0.00000000000E+00  0.15562762163E+02  0.15562762163E+02  0.00000000000E+00 0. -1.
         21   -1    0    0  504  503 -0.00000000000E+00 -0.00000000000E+00 -0.48564109484E+03  0.48564109484E+03  0.00000000000E+00 0. -1.
         25    2    1    2    0    0 -0.77051040406E+01  0.14833880940E+02 -0.24540420411E+03  0.27590876895E+03  0.12499205070E+03 0.  0.
          5    1    3    3  501    0 -0.37012085545E+02 -0.18078712020E+02 -0.22242635377E+03  0.22620837110E+03  0.10000000000E+00 0. -1.
         -5    1    3    3    0  501  0.29306981504E+02  0.32912592959E+02 -0.22977850334E+02  0.49700397847E+02  0.10000000000E+00 0. -1.
         21    1    1    2  504  502  0.77051040406E+01 -0.14833880940E+02 -0.22467412857E+03  0.22529508806E+03  0.00000000000E+00 0. -1.
<mgrwt>
<rscale>  1 0.12610482E+03</rscale>
<asrwt>0</asrwt>
<pdfrwt beam="1">  1       21 0.23942710E-02 0.12610482E+03</pdfrwt>
<pdfrwt beam="2">  1       21 0.74714017E-01 0.12610482E+03</pdfrwt>
<totfact> 0.14708313E+06</totfact>
</mgrwt>
</event>
<event>
 6    1  0.4180481E-002  0.1260294E+03  0.7546771E-02  0.1233469E+00
         21   -1    0    0  504  502  0.00000000000E+00  0.00000000000E+00  0.61499821146E+02  0.61499821146E+02  0.00000000000E+00 0.  1.
         21   -1    0    0  502  503 -0.00000000000E+00 -0.00000000000E+00 -0.46028358152E+03  0.46028358152E+03  0.00000000000E+00 0.  1.
         25    2    1    2    0    0 -0.11881879079E+02  0.10852248886E+02 -0.34030782262E+01  0.12607538636E+03  0.12499788697E+03 0.  0.
          5    1    3    3  501    0  0.55510954084E+02  0.10950755121E+02  0.97391339525E+01  0.57412940973E+02  0.10000000000E+00 0.  1.
         -5    1    3    3    0  501 -0.67392833163E+02 -0.98506235124E-01 -0.13142212179E+02  0.68662445384E+02  0.10000000000E+00 0.  1.
         21    1    1    2  504  503  0.11881879079E+02 -0.10852248886E+02 -0.39538068215E+03  0.39570801631E+03  0.00000000000E+00 0.  1.
<mgrwt>
<rscale>  1 0.12602945E+03</rscale>
<asrwt>0</asrwt>
<pdfrwt beam="1">  1       21 0.94615112E-02 0.12602945E+03</pdfrwt>
<pdfrwt beam="2">  1       21 0.70812857E-01 0.12602945E+03</pdfrwt>
<totfact> 0.16510354E+05</totfact>
</mgrwt>
</event>
<event>
 6    1  0.4180481E-002  0.1262811E+03  0.7546771E-02  0.1233081E+00
         21   -1    0    0  503  502  0.00000000000E+00  0.00000000000E+00  0.61263315274E+01  0.61263315274E+01  0.00000000000E+00 0. -1.
         21   -1    0    0  504  503 -0.00000000000E+00 -0.00000000000E+00 -0.87106088780E+03  0.87106088780E+03  0.00000000000E+00 0. -1.
         25    2    1    2    0    0 -0.40423258386E+00  0.17928847226E+02 -0.70190424526E+03  0.71317353308E+03  0.12500124723E+03 0.  0.
          5    1    3    3  501    0  0.21907501269E+02 -0.49630342421E+02 -0.26261754364E+03  0.26816243907E+03  0.10000000000E+00 0. -1.
         -5    1    3    3    0  501 -0.22311733853E+02  0.67559189648E+02 -0.43928670161E+03  0.44501109401E+03  0.10000000000E+00 0. -1.
         21    1    1    2  504  502  0.40423258386E+00 -0.17928847226E+02 -0.16303031102E+03  0.16401368625E+03  0.00000000000E+00 0.  1.
<mgrwt>
<rscale>  1 0.12628111E+03</rscale>
<asrwt>0</asrwt>
<pdfrwt beam="1">  1       21 0.94251226E-03 0.12628111E+03</pdfrwt>
<pdfrwt beam="2">  1       21 0.13400941E+00 0.12628111E+03</pdfrwt>
<totfact> 0.16577058E+06</totfact>
</mgrwt>
</event>
<event>
 6    1  0.4180481E-002  0.1259570E+03  0.7546771E-02  0.1233581E+00
         21   -1    0    0  504  502  0.00000000000E+00  0.00000000000E+00  0.36514584448E+02  0.36514584448E+02  0.00000000000E+00 0. -1.
         21   -1    0    0  502  503 -0.00000000000E+00 -0.00000000000E+00 -0.14034975546E+03  0.14034975546E+03  0.00000000000E+00 0. -1.
         25    2    1    2    0    0  0.14441958650E+02 -0.65054161891E+01 -0.83637642363E+02  0.15119664089E+03  0.12495710619E+03 0.  0.
          5    1    3    3  501    0  0.41274527659E+02 -0.53484167000E+02 -0.65599303670E+02  0.94166986759E+02  0.10000000000E+00 0.  1.
         -5    1    3    3    0  501 -0.26832569009E+02  0.46978750811E+02 -0.18038338693E+02  0.57029654130E+02  0.10000000000E+00 0.  1.
         21    1    1    2  504  503 -0.14441958650E+02  0.65054161891E+01 -0.20197528649E+02  0.25667699020E+02  0.00000000000E+00 0.  1.
<mgrwt>
<rscale>  1 0.12595701E+03</rscale>
<asrwt>0</asrwt>
<pdfrwt beam="1">  1       21 0.56176283E-02 0.12595701E+03</pdfrwt>
<pdfrwt beam="2">  1       21 0.21592270E-01 0.12595701E+03</pdfrwt>
<totfact> 0.43485409E+06</totfact>
</mgrwt>
</event>
<event>
 6    1  0.4180481E-002  0.1292399E+03  0.7546771E-02  0.1228588E+00
         21   -1    0    0  504  502  0.00000000000E+00  0.00000000000E+00  0.18931312050E+03  0.18931312050E+03  0.00000000000E+00 0. -1.
         21   -1    0    0  502  503 -0.00000000000E+00 -0.00000000000E+00 -0.39050058032E+02  0.39050058032E+02  0.00000000000E+00 0. -1.
         25    2    1    2    0    0  0.13634676026E+02  0.29855689574E+02  0.14644848466E+03  0.19532051529E+03  0.12500271375E+03 0.  0.
          5    1    3    3  501    0  0.11822852465E+02  0.28487391892E+02  0.16943624875E+03  0.17222068322E+03  0.10000000000E+00 0.  1.
         -5    1    3    3    0  501  0.18118235608E+01  0.13682976819E+01 -0.22987764099E+02  0.23099832066E+02  0.10000000000E+00 0.  1.
         21    1    1    2  504  503 -0.13634676026E+02 -0.29855689574E+02  0.38145778099E+01  0.33042663243E+02  0.00000000000E+00 0. -1.
<mgrwt>
<rscale>  1 0.12923987E+03</rscale>
<asrwt>0</asrwt>
<pdfrwt beam="1">  1       21 0.29125095E-01 0.12923987E+03</pdfrwt>
<pdfrwt beam="2">  1       21 0.60077013E-02 0.12923987E+03</pdfrwt>
<totfact> 0.22066476E+06</totfact>
</mgrwt>
</event>
<event>
 6    1  0.4180481E-002  0.1326692E+03  0.7546771E-02  0.1223548E+00
         21   -1    0    0  504  502  0.00000000000E+00  0.00000000000E+00  0.47006114733E+02  0.47006114733E+02  0.00000000000E+00 0.  1.
         21   -1    0    0  502  503 -0.00000000000E+00 -0.00000000000E+00 -0.51509662124E+03  0.51509662124E+03  0.00000000000E+00 0.  1.
         25    2    1    2    0    0  0.27168616722E+02  0.35185450066E+02 -0.50191622587E+02  0.14184611578E+03  0.12499988782E+03 0.  0.
          5    1    3    3  501    0 -0.10420819485E+02 -0.32314060441E+02  0.18323688726E+02  0.38581855184E+02  0.10000000000E+00 0. -1.
         -5    1    3    3    0  501  0.37589436207E+02  0.67499510506E+02 -0.68515311313E+02  0.10326426060E+03  0.10000000000E+00 0. -1.
         21    1    1    2  504  503 -0.27168616722E+02 -0.35185450066E+02 -0.41789888392E+03  0.42025662019E+03  0.00000000000E+00 0.  1.
<mgrwt>
<rscale>  1 0.13266922E+03</rscale>
<asrwt>0</asrwt>
<pdfrwt beam="1">  1       21 0.72317098E-02 0.13266922E+03</pdfrwt>
<pdfrwt beam="2">  1       21 0.79245635E-01 0.13266922E+03</pdfrwt>
<totfact> 0.20451257E+05</totfact>
</mgrwt>
</event>
<event>
 6    1  0.4180481E-002  0.1260035E+03  0.7546771E-02  0.1233509E+00
         21   -1    0    0  503  502  0.00000000000E+00  0.00000000000E+00  0.28382042149E+03  0.28382042149E+03  0.00000000000E+00 0. -1.
         21   -1    0    0  504  503 -0.00000000000E+00 -0.00000000000E+00 -0.31783214966E+02  0.31783214966E+02  0.00000000000E+00 0. -1.
         25    2    1    2    0    0 -0.15254422383E+02 -0.44674256197E+01  0.26607163004E+03  0.29439938365E+03  0.12499691792E+03 0.  0.
          5    1    3    3  501    0  0.55071162843E+02 -0.76762424051E+01  0.11682663504E+03  0.12938404202E+03  0.10000000000E+00 0.  1.
         -5    1    3    3    0  501 -0.70325585226E+02  0.32088167854E+01  0.14924499500E+03  0.16501534163E+03  0.10000000000E+00 0.  1.
         21    1    1    2  504  502  0.15254422383E+02  0.44674256197E+01 -0.14034423510E+02  0.21204252808E+02  0.00000000000E+00 0. -1.
<mgrwt>
<rscale>  1 0.12600351E+03</rscale>
<asrwt>0</asrwt>
<pdfrwt beam="1">  1       21 0.43664678E-01 0.12600351E+03</pdfrwt>
<pdfrwt beam="2">  1       21 0.48897256E-02 0.12600351E+03</pdfrwt>
<totfact> 0.14055169E+06</totfact>
</mgrwt>
</event>
<event>
 6    1  0.4180481E-002  0.1313426E+03  0.7546771E-02  0.1225477E+00
         21   -1    0    0  504  502  0.00000000000E+00  0.00000000000E+00  0.91590902416E+02  0.91590902416E+02  0.00000000000E+00 0.  1.
         21   -1    0    0  502  503 -0.00000000000E+00 -0.00000000000E+00 -0.80482033352E+02  0.80482033352E+02  0.00000000000E+00 0.  1.
         25    2    1    2    0    0 -0.37684586028E+02  0.14395563261E+02  0.71147093029E+01  0.13153513146E+03  0.12499404568E+03 0.  0.
          5    1    3    3  501    0  0.40994719167E+02  0.19267142558E+02 -0.18087374168E+02  0.48774510620E+02  0.10000000000E+00 0. -1.
         -5    1    3    3    0  501 -0.78679305196E+02 -0.48715792964E+01  0.25202083471E+02  0.82760620842E+02  0.10000000000E+00 0. -1.
         21    1    1    2  504  503  0.37684586028E+02 -0.14395563261E+02  0.39941597605E+01  0.40537804306E+02  0.00000000000E+00 0.  1.
<mgrwt>
<rscale>  1 0.13134257E+03</rscale>
<asrwt>0</asrwt>
<pdfrwt beam="1">  1       21 0.14090908E-01 0.13134257E+03</pdfrwt>
<pdfrwt beam="2">  1       21 0.12381851E-01 0.13134257E+03</pdfrwt>
<totfact> 0.24202580E+06</totfact>
</mgrwt>
</event>
<event>
 6    1  0.4180481E-002  0.1274583E+03  0.7546771E-02  0.1231277E+00
         21   -1    0    0  504  502  0.00000000000E+00  0.00000000000E+00  0.22254975871E+03  0.22254975871E+03  0.00000000000E+00 0.  1.
         21   -1    0    0  502  503 -0.00000000000E+00 -0.00000000000E+00 -0.39408860718E+02  0.39408860718E+02  0.00000000000E+00 0.  1.
         25    2    1    2    0    0 -0.10980687221E+02  0.22311399293E+02  0.19612711267E+03  0.23390481751E+03  0.12500898087E+03 0.  0.
          5    1    3    3  501    0 -0.16196834933E+02 -0.42435442014E+02  0.14283917743E+03  0.14988710688E+03  0.10000000000E+00 0. -1.
         -5    1    3    3    0  501  0.52161477117E+01  0.64746841307E+02  0.53287935242E+02  0.84017710624E+02  0.10000000000E+00 0. -1.
         21    1    1    2  504  503  0.10980687221E+02 -0.22311399293E+02 -0.12986214684E+02  0.28053801918E+02  0.00000000000E+00 0. -1.
<mgrwt>
<rscale>  1 0.12745830E+03</rscale>
<asrwt>0</asrwt>
<pdfrwt beam="1">  1       21 0.34238423E-01 0.12745830E+03</pdfrwt>
<pdfrwt beam="2">  1       21 0.60629018E-02 0.12745830E+03</pdfrwt>
<totfact> 0.15869037E+06</totfact>
</mgrwt>
</event>
<event>
 6    1  0.4180481E-002  0.1285179E+03  0.7546771E-02  0.1229672E+00
         21   -1    0    0  504  502  0.00000000000E+00  0.00000000000E+00  0.17243502787E+02  0.17243502787E+02  0.00000000000E+00 0.  1.
         21   -1    0    0  502  503 -0.00000000000E+00 -0.00000000000E+00 -0.41498677682E+03  0.41498677682E+03  0.00000000000E+00 0.  1.
         25    2    1    2    0    0 -0.84883573452E+01  0.28672733805E+02 -0.24578068751E+03  0.27735353643E+03  0.12499063942E+03 0.  0.
          5    1    3    3  501    0 -0.62291169552E+02 -0.75894133744E+01 -0.13710059666E+03  0.15077921807E+03  0.10000000000E+00 0.  1.
         -5    1    3    3    0  501  0.53802812206E+02  0.36262147179E+02 -0.10868009085E+03  0.12657431835E+03  0.10000000000E+00 0.  1.
         21    1    1    2  504  503  0.84883573452E+01 -0.28672733805E+02 -0.15196258653E+03  0.15487674318E+03  0.00000000000E+00 0.  1.
<mgrwt>
<rscale>  1 0.12851785E+03</rscale>
<asrwt>0</asrwt>
<pdfrwt beam="1">  1       21 0.26528467E-02 0.12851785E+03</pdfrwt>
<pdfrwt beam="2">  1       21 0.63844117E-01 0.12851785E+03</pdfrwt>
<totfact> 0.17525884E+06</totfact>
</mgrwt>
</event>
<event>
 6    1  0.4180481E-002  0.1259751E+03  0.7546771E-02  0.1233553E+00
         21   -1    0    0  504  502  0.00000000000E+00  0.00000000000E+00  0.74974414750E+01  0.74974414750E+01  0.00000000000E+00 0.  1.
         21   -1    0    0  502  503 -0.00000000000E+00 -0.00000000000E+00 -0.71922774335E+03  0.71922774335E+03  0.00000000000E+00 0.  1.
         25    2    1    2    0    0 -0.13763021329E+02 -0.74457149057E+01 -0.67716168054E+03  0.68877984245E+03  0.12499948142E+03 0.  0.
          5    1    3    3  501    0  0.28506883416E+02  0.42279844838E+02 -0.17139412821E+03  0.17881886049E+03  0.10000000000E+00 0. -1.
         -5    1    3    3    0  501 -0.42269904745E+02 -0.49725559744E+02 -0.50576755232E+03  0.50996098196E+03  0.10000000000E+00 0. -1.
         21    1    1    2  504  503  0.13763021329E+02  0.74457149057E+01 -0.34568621341E+02  0.37945342375E+02  0.00000000000E+00 0.  1.
<mgrwt>
<rscale>  1 0.12597512E+03</rscale>
<asrwt>0</asrwt>
<pdfrwt beam="1">  1       21 0.11534523E-02 0.12597512E+03</pdfrwt>
<pdfrwt beam="2">  1       21 0.11065044E+00 0.12597512E+03</pdfrwt>
<totfact> 0.19255549E+06</totfact>
</mgrwt>
</event>
<event>
 6    1  0.4180481E-002  0.1276477E+03  0.7546771E-02  0.1230988E+00
         21   -1    0    0  504  502  0.00000000000E+00  0.00000000000E+00  0.15762006950E+03  0.15762006950E+03  0.00000000000E+00 0.  1.
         21   -1    0    0  502  503 -0.00000000000E+00 -0.00000000000E+00 -0.49359352106E+02  0.49359352106E+02  0.00000000000E+00 0.  1.
         25    2    1    2    0    0 -0.99486939076E+01  0.23472057408E+02  0.12322267308E+03  0.17741975132E+03  0.12507608488E+03 0.  0.
          5    1    3    3  501    0 -0.50481581966E+02 -0.11531709625E+02  0.11100441669E+03  0.12248820747E+03  0.10000000000E+00 0. -1.
         -5    1    3    3    0  501  0.40532888058E+02  0.35003767033E+02  0.12218256396E+02  0.54931543854E+02  0.10000000000E+00 0. -1.
         21    1    1    2  504  503  0.99486939076E+01 -0.23472057408E+02 -0.14961955687E+02  0.29559670286E+02  0.00000000000E+00 0.  1.
<mgrwt>
<rscale>  1 0.12764772E+03</rscale>
<asrwt>0</asrwt>
<pdfrwt beam="1">  1       21 0.24249241E-01 0.12764772E+03</pdfrwt>
<pdfrwt beam="2">  1       21 0.75937466E-02 0.12764772E+03</pdfrwt>
<totfact> 0.20953387E+06</totfact>
</mgrwt>
</event>
<event>
 6    1  0.4180481E-002  0.1281264E+03  0.7546771E-02  0.1230263E+00
         21   -1    0    0  504  502  0.00000000000E+00  0.00000000000E+00  0.24520733200E+02  0.24520733200E+02  0.00000000000E+00 0. -1.
         21   -1    0    0  502  503 -0.00000000000E+00 -0.00000000000E+00 -0.14453763554E+04  0.14453763554E+04  0.00000000000E+00 0. -1.
         25    2    1    2    0    0  0.27000050425E+02 -0.85498371357E+01 -0.14408737279E+03  0.19281476348E+03  0.12495703093E+03 0.  0.
          5    1    3    3  501    0 -0.39128520178E+02  0.38762046890E+01 -0.67706872873E+01  0.39898850365E+02  0.10000000000E+00 0.  1.
         -5    1    3    3    0  501  0.66128570603E+02 -0.12426041825E+02 -0.13731668550E+03  0.15291591311E+03  0.10000000000E+00 0.  1.
         21    1    1    2  504  503 -0.27000050425E+02  0.85498371357E+01 -0.12767682494E+04  0.12770823251E+04  0.00000000000E+00 0. -1.
<mgrwt>
<rscale>  1 0.12812635E+03</rscale>
<asrwt>0</asrwt>
<pdfrwt beam="1">  1       21 0.37724187E-02 0.12812635E+03</pdfrwt>
<pdfrwt beam="2">  1       21 0.22236570E+00 0.12812635E+03</pdfrwt>
<totfact> 0.44287048E+04</totfact>
</mgrwt>
</event>
<event>
 6    1  0.4180481E-002  0.1261215E+03  0.7546771E-02  0.1233327E+00
         21   -1    0    0  503  502  0.00000000000E+00  0.00000000000E+00  0.21717076400E+02  0.21717076400E+02  0.00000000000E+00 0.  1.
         21   -1    0    0  504  503 -0.00000000000E+00 -0.00000000000E+00 -0.25942545413E+03  0.25942545413E+03  0.00000000000E+00 0.  1.
         25    2    1    2    0    0 -0.92903435255E+01  0.13988183325E+02 -0.17177212401E+03  0.21310159204E+03  0.12499858475E+03 0.  0.
          5    1    3    3  501    0 -0.65826249798E+02  0.13364719748E+02 -0.11365409164E+03  0.13201883745E+03  0.10000000000E+00 0.  1.
         -5    1    3    3    0  501  0.56535906273E+02  0.62346357658E+00 -0.58118032371E+02  0.81082754588E+02  0.10000000000E+00 0.  1.
         21    1    1    2  504  502  0.92903435255E+01 -0.13988183325E+02 -0.65936253720E+02  0.68040938486E+02  0.00000000000E+00 0. -1.
<mgrwt>
<rscale>  1 0.12612147E+03</rscale>
<asrwt>0</asrwt>
<pdfrwt beam="1">  1       21 0.33410887E-02 0.12612147E+03</pdfrwt>
<pdfrwt beam="2">  1       21 0.39911608E-01 0.12612147E+03</pdfrwt>
<totfact> 0.31700665E+06</totfact>
</mgrwt>
</event>
<event>
 6    1  0.4180481E-002  0.1311882E+03  0.7546771E-02  0.1225703E+00
         21   -1    0    0  504  502  0.00000000000E+00  0.00000000000E+00  0.52561327908E+02  0.52561327908E+02  0.00000000000E+00 0. -1.
         21   -1    0    0  502  503 -0.00000000000E+00 -0.00000000000E+00 -0.18101330280E+03  0.18101330280E+03  0.00000000000E+00 0. -1.
         25    2    1    2    0    0  0.29854364434E+02  0.26352979431E+02 -0.40939224224E+02  0.13742763840E+03  0.12499829245E+03 0.  0.
          5    1    3    3  501    0  0.57780856842E+02 -0.29460661928E+02 -0.37508476575E+02  0.74922986016E+02  0.10000000000E+00 0. -1.
         -5    1    3    3    0  501 -0.27926492408E+02  0.55813641358E+02 -0.34307476480E+01  0.62504652382E+02  0.10000000000E+00 0. -1.
         21    1    1    2  504  503 -0.29854364434E+02 -0.26352979431E+02 -0.87512750666E+02  0.96146992308E+02  0.00000000000E+00 0. -1.
<mgrwt>
<rscale>  1 0.13118817E+03</rscale>
<asrwt>0</asrwt>
<pdfrwt beam="1">  1       21 0.80863582E-02 0.13118817E+03</pdfrwt>
<pdfrwt beam="2">  1       21 0.27848200E-01 0.13118817E+03</pdfrwt>
<totfact> 0.14470246E+06</totfact>
</mgrwt>
</event>
<event>
 6    1  0.4180481E-002  0.1621389E+03  0.7546771E-02  0.1186303E+00
         21   -1    0    0  504  502  0.00000000000E+00  0.00000000000E+00  0.67546443873E+02  0.67546443873E+02  0.00000000000E+00 0.  1.
         21   -1    0    0  502  503 -0.00000000000E+00 -0.00000000000E+00 -0.28090317054E+03  0.28090317054E+03  0.00000000000E+00 0.  1.
         25    2    1    2    0    0  0.40352437217E+02  0.95051506686E+02 -0.82998859688E+02  0.18214783572E+03  0.12500366089E+03 0.  0.
          5    1    3    3  501    0  0.32419242578E+02  0.11653908819E+03 -0.30322609473E+02  0.12470700466E+03  0.10000000000E+00 0. -1.
         -5    1    3    3    0  501  0.79331946387E+01 -0.21487581508E+02 -0.52676250215E+02  0.57440831060E+02  0.10000000000E+00 0. -1.
         21    1    1    2  504  503 -0.40352437217E+02 -0.95051506686E+02 -0.13035786698E+03  0.16630177869E+03  0.00000000000E+00 0.  1.
<mgrwt>
<rscale>  1 0.16213890E+03</rscale>
<asrwt>0</asrwt>
<pdfrwt beam="1">  1       21 0.10391761E-01 0.16213890E+03</pdfrwt>
<pdfrwt beam="2">  1       21 0.43215873E-01 0.16213890E+03</pdfrwt>
<totfact> 0.39272952E+05</totfact>
</mgrwt>
</event>
<event>
 6    1  0.4180481E-002  0.1441945E+03  0.7546771E-02  0.1207794E+00
         21   -1    0    0  504  502  0.00000000000E+00  0.00000000000E+00  0.29005849474E+03  0.29005849474E+03  0.00000000000E+00 0.  1.
         21   -1    0    0  502  503 -0.00000000000E+00 -0.00000000000E+00 -0.10855640520E+03  0.10855640520E+03  0.00000000000E+00 0. -1.
         25    2    1    2    0    0 -0.64711437869E+02 -0.31299445986E+02  0.25680021948E+03  0.29451382462E+03  0.12499925863E+03 0.  0.
          5    1    3    3  501    0 -0.83870028961E+02 -0.54747375472E+02  0.12977745939E+03  0.16393186342E+03  0.10000000000E+00 0. -1.
         -5    1    3    3    0  501  0.19158591093E+02  0.23447929487E+02  0.12702276009E+03  0.13058196120E+03  0.10000000000E+00 0. -1.
         21    1    1    2  504  503  0.64711437869E+02  0.31299445986E+02 -0.75298129938E+02  0.10410107532E+03  0.00000000000E+00 0. -1.
<mgrwt>
<rscale>  1 0.14419445E+03</rscale>
<asrwt>0</asrwt>
<pdfrwt beam="1">  1       21 0.44624384E-01 0.14419445E+03</pdfrwt>
<pdfrwt beam="2">  1       21 0.16700985E-01 0.14419445E+03</pdfrwt>
<totfact> 0.15778326E+05</totfact>
</mgrwt>
</event>
<event>
 6    1  0.4180481E-002  0.1278009E+03  0.7546771E-02  0.1230756E+00
         21   -1    0    0  503  502  0.00000000000E+00  0.00000000000E+00  0.20981427388E+03  0.20981427388E+03  0.00000000000E+00 0. -1.
         21   -1    0    0  504  503 -0.00000000000E+00 -0.00000000000E+00 -0.15644655796E+03  0.15644655796E+03  0.00000000000E+00 0.  1.
         25    2    1    2    0    0  0.26566448354E+02  0.19910267098E+01  0.18893549078E+03  0.22810019365E+03  0.12499335302E+03 0.  0.
          5    1    3    3  501    0 -0.25945785920E+02 -0.42657218961E+02  0.12285902163E+03  0.13261663294E+03  0.10000000000E+00 0.  1.
         -5    1    3    3    0  501  0.52512234274E+02  0.44648245671E+02  0.66076469159E+02  0.95483560713E+02  0.10000000000E+00 0.  1.
         21    1    1    2  504  502 -0.26566448354E+02 -0.19910267098E+01 -0.13556777486E+03  0.13816063819E+03  0.00000000000E+00 0.  1.
<mgrwt>
<rscale>  1 0.12780093E+03</rscale>
<asrwt>0</asrwt>
<pdfrwt beam="1">  1       21 0.32279119E-01 0.12780093E+03</pdfrwt>
<pdfrwt beam="2">  1       21 0.24068701E-01 0.12780093E+03</pdfrwt>
<totfact> 0.15345841E+05</totfact>
</mgrwt>
</event>
<event>
 6    1  0.4180481E-002  0.1348277E+03  0.7546771E-02  0.1220463E+00
         21   -1    0    0  504  502  0.00000000000E+00  0.00000000000E+00  0.17359453498E+02  0.17359453498E+02  0.00000000000E+00 0.  1.
         21   -1    0    0  502  503 -0.00000000000E+00 -0.00000000000E+00 -0.15781262159E+04  0.15781262159E+04  0.00000000000E+00 0.  1.
         25    2    1    2    0    0  0.50516316564E+02 -0.60959060251E+00 -0.25248846749E+03  0.28623230707E+03  0.12500495012E+03 0.  0.
          5    1    3    3  501    0  0.65274734466E+02  0.26921780950E+02 -0.24378537628E+03  0.25380483237E+03  0.10000000000E+00 0. -1.
         -5    1    3    3    0  501 -0.14758417902E+02 -0.27531371552E+02 -0.87030912157E+01  0.32427474697E+02  0.10000000000E+00 0. -1.
         21    1    1    2  504  503 -0.50516316564E+02  0.60959060251E+00 -0.13082782949E+04  0.13092533623E+04  0.00000000000E+00 0.  1.
<mgrwt>
<rscale>  1 0.13482770E+03</rscale>
<asrwt>0</asrwt>
<pdfrwt beam="1">  1       21 0.26706861E-02 0.13482770E+03</pdfrwt>
<pdfrwt beam="2">  1       21 0.24278856E+00 0.13482770E+03</pdfrwt>
<totfact> 0.58912947E+04</totfact>
</mgrwt>
</event>
<event>
 6    1  0.4180481E-002  0.1259132E+03  0.7546771E-02  0.1233649E+00
         21   -1    0    0  504  502  0.00000000000E+00  0.00000000000E+00  0.35281210819E+02  0.35281210819E+02  0.00000000000E+00 0.  1.
         21   -1    0    0  502  503 -0.00000000000E+00 -0.00000000000E+00 -0.22350919719E+03  0.22350919719E+03  0.00000000000E+00 0.  1.
         25    2    1    2    0    0  0.37895143894E+01 -0.14649018065E+02 -0.79272704799E+02  0.14878946469E+03  0.12500075570E+03 0.  0.
          5    1    3    3  501    0 -0.15492318054E+02  0.30351331691E+02 -0.92081087318E+02  0.98184275196E+02  0.10000000000E+00 0.  1.
         -5    1    3    3    0  501  0.19281832443E+02 -0.45000349756E+02  0.12808382519E+02  0.50605189489E+02  0.10000000000E+00 0.  1.
         21    1    1    2  504  503 -0.37895143894E+01  0.14649018065E+02 -0.10895528157E+03  0.11000094332E+03  0.00000000000E+00 0.  1.
<mgrwt>
<rscale>  1 0.12591324E+03</rscale>
<asrwt>0</asrwt>
<pdfrwt beam="1">  1       21 0.54278786E-02 0.12591324E+03</pdfrwt>
<pdfrwt beam="2">  1       21 0.34386030E-01 0.12591324E+03</pdfrwt>
<totfact> 0.18967313E+06</totfact>
</mgrwt>
</event>
<event>
 6    1  0.4180481E-002  0.1267815E+03  0.7546771E-02  0.1232311E+00
         21   -1    0    0  504  502  0.00000000000E+00  0.00000000000E+00  0.41074516089E+02  0.41074516089E+02  0.00000000000E+00 0.  1.
         21   -1    0    0  502  503 -0.00000000000E+00 -0.00000000000E+00 -0.20036116692E+03  0.20036116692E+03  0.00000000000E+00 0.  1.
         25    2    1    2    0    0  0.20764512406E+02  0.38121313062E+01 -0.60607327714E+02  0.14052331443E+03  0.12501142510E+03 0.  0.
          5    1    3    3  501    0  0.53929746640E+02 -0.42942503086E+02 -0.26737346646E+02  0.73941678704E+02  0.10000000000E+00 0.  1.
         -5    1    3    3    0  501 -0.33165234234E+02  0.46754634392E+02 -0.33869981068E+02  0.66581635730E+02  0.10000000000E+00 0.  1.
         21    1    1    2  504  503 -0.20764512406E+02 -0.38121313062E+01 -0.98679323114E+02  0.10091236857E+03  0.00000000000E+00 0.  1.
<mgrwt>
<rscale>  1 0.12678152E+03</rscale>
<asrwt>0</asrwt>
<pdfrwt beam="1">  1       21 0.63191564E-02 0.12678152E+03</pdfrwt>
<pdfrwt beam="2">  1       21 0.30824795E-01 0.12678152E+03</pdfrwt>
<totfact> 0.18144151E+06</totfact>
</mgrwt>
</event>
<event>
 6    1  0.4180481E-002  0.1370861E+03  0.7546771E-02  0.1217304E+00
         21   -1    0    0  503  502  0.00000000000E+00  0.00000000000E+00  0.20277278603E+03  0.20277278603E+03  0.00000000000E+00 0. -1.
         21   -1    0    0  504  503 -0.00000000000E+00 -0.00000000000E+00 -0.26758512264E+03  0.26758512264E+03  0.00000000000E+00 0. -1.
         25    2    1    2    0    0  0.40814494417E+01  0.56136557331E+02  0.17598102867E+03  0.22307382900E+03  0.12499855774E+03 0.  0.
          5    1    3    3  501    0 -0.22446446507E+02 -0.34215042620E+02  0.71804367777E+02  0.82646169507E+02  0.10000000000E+00 0.  1.
         -5    1    3    3    0  501  0.26527895949E+02  0.90351599951E+02  0.10417666089E+03  0.14042765950E+03  0.10000000000E+00 0.  1.
         21    1    1    2  504  502 -0.40814494417E+01 -0.56136557331E+02 -0.24079336527E+03  0.24728407967E+03  0.00000000000E+00 0. -1.
<mgrwt>
<rscale>  1 0.13708614E+03</rscale>
<asrwt>0</asrwt>
<pdfrwt beam="1">  1       21 0.31195813E-01 0.13708614E+03</pdfrwt>
<pdfrwt beam="2">  1       21 0.41166942E-01 0.13708614E+03</pdfrwt>
<totfact> 0.57592257E+04</totfact>
</mgrwt>
</event>
<event>
 6    1  0.4180481E-002  0.1264712E+03  0.7546771E-02  0.1232788E+00
         21   -1    0    0  504  502  0.00000000000E+00  0.00000000000E+00  0.68712153315E+02  0.68712153315E+02  0.00000000000E+00 0.  1.
         21   -1    0    0  502  503 -0.00000000000E+00 -0.00000000000E+00 -0.10384798796E+03  0.10384798796E+03  0.00000000000E+00 0.  1.
         25    2    1    2    0    0 -0.17699753047E+02 -0.74834966854E+01  0.65682096860E+01  0.12664161240E+03  0.12500269050E+03 0.  0.
          5    1    3    3  501    0  0.11192532983E+02  0.54363903261E+02 -0.99966643023E+01  0.56397252323E+02  0.10000000000E+00 0.  1.
         -5    1    3    3    0  501 -0.28892286030E+02 -0.61847399947E+02  0.16564873988E+02  0.70244360076E+02  0.10000000000E+00 0.  1.
         21    1    1    2  504  503  0.17699753047E+02  0.74834966854E+01 -0.41704044327E+02  0.45918528872E+02  0.00000000000E+00 0.  1.
<mgrwt>
<rscale>  1 0.12647117E+03</rscale>
<asrwt>0</asrwt>
<pdfrwt beam="1">  1       21 0.10571101E-01 0.12647117E+03</pdfrwt>
<pdfrwt beam="2">  1       21 0.15976613E-01 0.12647117E+03</pdfrwt>
<totfact> 0.25479535E+06</totfact>
</mgrwt>
</event>
<event>
 6    1  0.4180481E-002  0.1277187E+03  0.7546771E-02  0.1230881E+00
         21   -1    0    0  503  502  0.00000000000E+00  0.00000000000E+00  0.26666889784E+02  0.26666889784E+02  0.00000000000E+00 0. -1.
         21   -1    0    0  504  503 -0.00000000000E+00 -0.00000000000E+00 -0.45783845232E+03  0.45783845232E+03  0.00000000000E+00 0.  1.
         25    2    1    2    0    0  0.19511739662E+02 -0.17588005131E+02 -0.13018192696E+03  0.18237158591E+03  0.12498806075E+03 0.  0.
          5    1    3    3  501    0 -0.91697846892E+01 -0.40050356956E+02  0.58903491111E+01  0.41506894080E+02  0.10000000000E+00 0.  1.
         -5    1    3    3    0  501  0.28681524352E+02  0.22462351825E+02 -0.13607227607E+03  0.14086469183E+03  0.10000000000E+00 0.  1.
         21    1    1    2  504  502 -0.19511739662E+02  0.17588005131E+02 -0.30098963558E+03  0.30213375620E+03  0.00000000000E+00 0.  1.
<mgrwt>
<rscale>  1 0.12771868E+03</rscale>
<asrwt>0</asrwt>
<pdfrwt beam="1">  1       21 0.41025987E-02 0.12771868E+03</pdfrwt>
<pdfrwt beam="2">  1       21 0.70436681E-01 0.12771868E+03</pdfrwt>
<totfact> 0.69108549E+05</totfact>
</mgrwt>
</event>
<event>
 6    1  0.4180481E-002  0.1308312E+03  0.7546771E-02  0.1226228E+00
         21   -1    0    0  504  502  0.00000000000E+00  0.00000000000E+00  0.47446245159E+02  0.47446245159E+02  0.00000000000E+00 0.  1.
         21   -1    0    0  502  503 -0.00000000000E+00 -0.00000000000E+00 -0.67787952311E+03  0.67787952311E+03  0.00000000000E+00 0.  1.
         25    2    1    2    0    0 -0.29861467739E+02  0.24488734852E+02 -0.44604882744E+02  0.13822585001E+03  0.12500153861E+03 0.  0.
          5    1    3    3  501    0  0.32900958144E+02  0.42880387977E+02  0.75522057472E+01  0.54573313363E+02  0.10000000000E+00 0. -1.
         -5    1    3    3    0  501 -0.62762425883E+02 -0.18391653125E+02 -0.52157088491E+02  0.83652536645E+02  0.10000000000E+00 0. -1.
         21    1    1    2  504  503  0.29861467739E+02 -0.24488734852E+02 -0.58582839521E+03  0.58709991826E+03  0.00000000000E+00 0.  1.
<mgrwt>
<rscale>  1 0.13083115E+03</rscale>
<asrwt>0</asrwt>
<pdfrwt beam="1">  1       21 0.72994225E-02 0.13083115E+03</pdfrwt>
<pdfrwt beam="2">  1       21 0.10428915E+00 0.13083115E+03</pdfrwt>
<totfact> 0.10722630E+05</totfact>
</mgrwt>
</event>
<event>
 6    1  0.4180481E-002  0.1267503E+03  0.7546771E-02  0.1232359E+00
         21   -1    0    0  504  502  0.00000000000E+00  0.00000000000E+00  0.26396981994E+03  0.26396981994E+03  0.00000000000E+00 0.  1.
         21   -1    0    0  502  503 -0.00000000000E+00 -0.00000000000E+00 -0.95346750023E+02  0.95346750023E+02  0.00000000000E+00 0.  1.
         25    2    1    2    0    0 -0.18334515491E+02 -0.10648905763E+02  0.24726907410E+03  0.27786260979E+03  0.12496431993E+03 0.  0.
          5    1    3    3  501    0 -0.28122629126E+02 -0.61631494787E+02  0.92750527478E+02  0.11485640499E+03  0.10000000000E+00 0.  1.
         -5    1    3    3    0  501  0.97881136344E+01  0.50982589024E+02  0.15451854663E+03  0.16300620480E+03  0.10000000000E+00 0.  1.
         21    1    1    2  504  503  0.18334515491E+02  0.10648905763E+02 -0.78646004192E+02  0.81453960172E+02  0.00000000000E+00 0.  1.
<mgrwt>
<rscale>  1 0.12675029E+03</rscale>
<asrwt>0</asrwt>
<pdfrwt beam="1">  1       21 0.40610741E-01 0.12675029E+03</pdfrwt>
<pdfrwt beam="2">  1       21 0.14668731E-01 0.12675029E+03</pdfrwt>
<totfact> 0.24253347E+05</totfact>
</mgrwt>
</event>
<event>
 6    1  0.4180481E-002  0.1264550E+03  0.7546771E-02  0.1232813E+00
         21   -1    0    0  503  502  0.00000000000E+00  0.00000000000E+00  0.20119272731E+03  0.20119272731E+03  0.00000000000E+00 0.  1.
         21   -1    0    0  504  503 -0.00000000000E+00 -0.00000000000E+00 -0.26332623251E+02  0.26332623251E+02  0.00000000000E+00 0.  1.
         25    2    1    2    0    0 -0.18488958667E+02  0.47009475597E+01  0.15006635150E+03  0.19624163808E+03  0.12500772042E+03 0.  0.
          5    1    3    3  501    0 -0.21100357292E+02  0.54897141343E+02  0.29879701991E+02  0.65967626883E+02  0.10000000000E+00 0.  1.
         -5    1    3    3    0  501  0.26113986249E+01 -0.50196193783E+02  0.12018664951E+03  0.13027401120E+03  0.10000000000E+00 0.  1.
         21    1    1    2  504  502  0.18488958667E+02 -0.47009475597E+01  0.24793752552E+02  0.31283712474E+02  0.00000000000E+00 0.  1.
<mgrwt>
<rscale>  1 0.12645501E+03</rscale>
<asrwt>0</asrwt>
<pdfrwt beam="1">  1       21 0.30952726E-01 0.12645501E+03</pdfrwt>
<pdfrwt beam="2">  1       21 0.40511730E-02 0.12645501E+03</pdfrwt>
<totfact> 0.37983745E+06</totfact>
</mgrwt>
</event>
<event>
 6    1  0.4180481E-002  0.1279052E+03  0.7546771E-02  0.1230598E+00
         21   -1    0    0  503  502  0.00000000000E+00  0.00000000000E+00  0.39653424070E+02  0.39653424070E+02  0.00000000000E+00 0. -1.
         21   -1    0    0  504  503 -0.00000000000E+00 -0.00000000000E+00 -0.18156387109E+03  0.18156387109E+03  0.00000000000E+00 0. -1.
         25    2    1    2    0    0 -0.58070918835E+00 -0.27097209650E+02 -0.73236461466E+02  0.14738835581E+03  0.12500060858E+03 0.  0.
          5    1    3    3  501    0  0.52015936648E+01 -0.41585843947E+02  0.24412082194E+02  0.48501533486E+02  0.10000000000E+00 0.  1.
         -5    1    3    3    0  501 -0.57823028532E+01  0.14488634297E+02 -0.97648543659E+02  0.98886822321E+02  0.10000000000E+00 0.  1.
         21    1    1    2  504  502  0.58070918835E+00  0.27097209650E+02 -0.68673985557E+02  0.73828939355E+02  0.00000000000E+00 0. -1.
<mgrwt>
<rscale>  1 0.12790523E+03</rscale>
<asrwt>0</asrwt>
<pdfrwt beam="1">  1       21 0.61005268E-02 0.12790523E+03</pdfrwt>
<pdfrwt beam="2">  1       21 0.27932903E-01 0.12790523E+03</pdfrwt>
<totfact> 0.23286895E+06</totfact>
</mgrwt>
</event>
<event>
 6    1  0.4180481E-002  0.1267442E+03  0.7546771E-02  0.1232368E+00
         21   -1    0    0  503  502  0.00000000000E+00  0.00000000000E+00  0.12777613271E+04  0.12777613271E+04  0.00000000000E+00 0.  1.
         21   -1    0    0  504  503 -0.00000000000E+00 -0.00000000000E+00 -0.44214368518E+01  0.44214368518E+01  0.00000000000E+00 0.  1.
         25    2    1    2    0    0 -0.27241470755E+01  0.20780888763E+02  0.11616096777E+04  0.11685038005E+04  0.12499928940E+03 0.  0.
          5    1    3    3  501    0  0.30920677835E+02 -0.41420614133E+02  0.64640623243E+03  0.64846956977E+03  0.10000000000E+00 0. -1.
         -5    1    3    3    0  501 -0.33644824911E+02  0.62201502896E+02  0.51520344522E+03  0.52003423077E+03  0.10000000000E+00 0. -1.
         21    1    1    2  504  502  0.27241470755E+01 -0.20780888763E+02  0.11173021255E+03  0.11367896336E+03  0.00000000000E+00 0.  1.
<mgrwt>
<rscale>  1 0.12674419E+03</rscale>
<asrwt>0</asrwt>
<pdfrwt beam="1">  1       21 0.19657837E+00 0.12674419E+03</pdfrwt>
<pdfrwt beam="2">  1       21 0.68022207E-03 0.12674419E+03</pdfrwt>
<totfact> 0.99336238E+05</totfact>
</mgrwt>
</event>
<event>
 6    1  0.4180481E-002  0.1298834E+03  0.7546771E-02  0.1227629E+00
         21   -1    0    0  504  502  0.00000000000E+00  0.00000000000E+00  0.23829080410E+03  0.23829080410E+03  0.00000000000E+00 0. -1.
         21   -1    0    0  502  503 -0.00000000000E+00 -0.00000000000E+00 -0.48046935492E+03  0.48046935492E+03  0.00000000000E+00 0. -1.
         25    2    1    2    0    0 -0.27719595197E+01 -0.35116726524E+02  0.21987180655E+03  0.25536896252E+03  0.12501530891E+03 0.  0.
          5    1    3    3  501    0  0.50293359685E+02 -0.53127078298E+02  0.13735982760E+03  0.15562660670E+03  0.10000000000E+00 0. -1.
         -5    1    3    3    0  501 -0.53065319205E+02  0.18010351774E+02  0.82511978955E+02  0.99742355819E+02  0.10000000000E+00 0. -1.
         21    1    1    2  504  503  0.27719595197E+01  0.35116726524E+02 -0.46205035737E+03  0.46339119650E+03  0.00000000000E+00 0. -1.
<mgrwt>
<rscale>  1 0.12988339E+03</rscale>
<asrwt>0</asrwt>
<pdfrwt beam="1">  1       21 0.36660124E-01 0.12988339E+03</pdfrwt>
<pdfrwt beam="2">  1       21 0.73918362E-01 0.12988339E+03</pdfrwt>
<totfact> 0.12341746E+04</totfact>
</mgrwt>
</event>
<event>
 6    1  0.4180481E-002  0.1370378E+03  0.7546771E-02  0.1217371E+00
         21   -1    0    0  504  502  0.00000000000E+00  0.00000000000E+00  0.59486295401E+03  0.59486295401E+03  0.00000000000E+00 0.  1.
         21   -1    0    0  502  503 -0.00000000000E+00 -0.00000000000E+00 -0.23438023841E+03  0.23438023841E+03  0.00000000000E+00 0. -1.
         25    2    1    2    0    0  0.51388040240E+02  0.22649234507E+02  0.58344235798E+03  0.59931989949E+03  0.12500255328E+03 0.  0.
          5    1    3    3  501    0  0.89978539679E+02  0.14640291331E+02  0.31247969696E+03  0.32550583212E+03  0.10000000000E+00 0. -1.
         -5    1    3    3    0  501 -0.38590499438E+02  0.80089431759E+01  0.27096266103E+03  0.27381406737E+03  0.10000000000E+00 0. -1.
         21    1    1    2  504  503 -0.51388040240E+02 -0.22649234507E+02 -0.22295964238E+03  0.22992329294E+03  0.00000000000E+00 0. -1.
<mgrwt>
<rscale>  1 0.13703779E+03</rscale>
<asrwt>0</asrwt>
<pdfrwt beam="1">  1       21 0.91517377E-01 0.13703779E+03</pdfrwt>
<pdfrwt beam="2">  1       21 0.36058498E-01 0.13703779E+03</pdfrwt>
<totfact> 0.78387226E+03</totfact>
</mgrwt>
</event>
<event>
 6    1  0.4180481E-002  0.1271043E+03  0.7546771E-02  0.1231817E+00
         21   -1    0    0  503  502  0.00000000000E+00  0.00000000000E+00  0.25438939549E+03  0.25438939549E+03  0.00000000000E+00 0. -1.
         21   -1    0    0  504  503 -0.00000000000E+00 -0.00000000000E+00 -0.22538812018E+02  0.22538812018E+02  0.00000000000E+00 0. -1.
         25    2    1    2    0    0 -0.16341731468E+02 -0.16324639193E+02  0.20773436102E+03  0.24353452221E+03  0.12498781032E+03 0.  0.
          5    1    3    3  501    0  0.29738403362E+02 -0.57822784057E+02  0.11037477454E+03  0.12810327024E+03  0.10000000000E+00 0.  1.
         -5    1    3    3    0  501 -0.46080134829E+02  0.41498144864E+02  0.97359586479E+02  0.11543125197E+03  0.10000000000E+00 0.  1.
         21    1    1    2  504  502  0.16341731468E+02  0.16324639193E+02  0.24116222446E+02  0.33393685290E+02  0.00000000000E+00 0. -1.
<mgrwt>
<rscale>  1 0.12710428E+03</rscale>
<asrwt>0</asrwt>
<pdfrwt beam="1">  1       21 0.39136828E-01 0.12710428E+03</pdfrwt>
<pdfrwt beam="2">  1       21 0.34675097E-02 0.12710428E+03</pdfrwt>
<totfact> 0.31016094E+06</totfact>
</mgrwt>
</event>
<event>
 6    1  0.4180481E-002  0.1291876E+03  0.7546771E-02  0.1228666E+00
         21   -1    0    0  504  502  0.00000000000E+00  0.00000000000E+00  0.13620590612E+04  0.13620590612E+04  0.00000000000E+00 0. -1.
         21   -1    0    0  502  503 -0.00000000000E+00 -0.00000000000E+00 -0.59322562432E+01  0.59322562432E+01  0.00000000000E+00 0. -1.
         25    2    1    2    0    0  0.31663614104E+01 -0.32459634543E+02  0.12573568366E+04  0.12639761245E+04  0.12500309989E+03 0.  0.
          5    1    3    3  501    0  0.19795984964E+02  0.20676341495E+02  0.74507160942E+02  0.79816784889E+02  0.10000000000E+00 0. -1.
         -5    1    3    3    0  501 -0.16629623553E+02 -0.53135976038E+02  0.11828496756E+04  0.11841593396E+04  0.10000000000E+00 0. -1.
         21    1    1    2  504  503 -0.31663614104E+01  0.32459634543E+02  0.98769968405E+02  0.10401519301E+03  0.00000000000E+00 0. -1.
<mgrwt>
<rscale>  1 0.12918757E+03</rscale>
<asrwt>0</asrwt>
<pdfrwt beam="1">  1       21 0.20954730E+00 0.12918757E+03</pdfrwt>
<pdfrwt beam="2">  1       21 0.91265589E-03 0.12918757E+03</pdfrwt>
<totfact> 0.52022258E+05</totfact>
</mgrwt>
</event>
<event>
 6    1  0.4180481E-002  0.1268416E+03  0.7546771E-02  0.1232219E+00
         21   -1    0    0  504  502  0.00000000000E+00  0.00000000000E+00  0.11320700532E+03  0.11320700532E+03  0.00000000000E+00 0.  1.
         21   -1    0    0  502  503 -0.00000000000E+00 -0.00000000000E+00 -0.18115118818E+03  0.18115118818E+03  0.00000000000E+00 0. -1.
         25    2    1    2    0    0 -0.21397679273E+02 -0.23331283830E+01  0.76628806143E+02  0.14819166752E+03  0.12500196889E+03 0.  0.
          5    1    3    3  501    0 -0.43440447199E+02 -0.37120797152E+02  0.88489045018E+02  0.10533445363E+03  0.10000000000E+00 0.  1.
         -5    1    3    3    0  501  0.22042767926E+02  0.34787668769E+02 -0.11860238875E+02  0.42857213890E+02  0.10000000000E+00 0.  1.
         21    1    1    2  504  503  0.21397679273E+02  0.23331283830E+01 -0.14457298900E+03  0.14616652597E+03  0.00000000000E+00 0. -1.
<mgrwt>
<rscale>  1 0.12684162E+03</rscale>
<asrwt>0</asrwt>
<pdfrwt beam="1">  1       21 0.17416462E-01 0.12684162E+03</pdfrwt>
<pdfrwt beam="2">  1       21 0.27869413E-01 0.12684162E+03</pdfrwt>
<totfact> 0.37099432E+05</totfact>
</mgrwt>
</event>
<event>
 6    1  0.4180481E-002  0.1294035E+03  0.7546771E-02  0.1228343E+00
         21   -1    0    0  504  502  0.00000000000E+00  0.00000000000E+00  0.28236757327E+02  0.28236757327E+02  0.00000000000E+00 0.  1.
         21   -1    0    0  502  503 -0.00000000000E+00 -0.00000000000E+00 -0.23586314929E+03  0.23586314929E+03  0.00000000000E+00 0.  1.
         25    2    1    2    0    0  0.22548613218E+02  0.24721155900E+02 -0.15767111836E+03  0.20397416447E+03  0.12500281078E+03 0.  0.
          5    1    3    3  501    0  0.36575238404E+02  0.19273051945E+02  0.40627969158E+01  0.41541724981E+02  0.10000000000E+00 0. -1.
         -5    1    3    3    0  501 -0.14026625186E+02  0.54481039549E+01 -0.16173391527E+03  0.16243243949E+03  0.10000000000E+00 0. -1.
         21    1    1    2  504  503 -0.22548613218E+02 -0.24721155900E+02 -0.49955273606E+02  0.60125742142E+02  0.00000000000E+00 0. -1.
<mgrwt>
<rscale>  1 0.12940355E+03</rscale>
<asrwt>0</asrwt>
<pdfrwt beam="1">  1       21 0.43441166E-02 0.12940355E+03</pdfrwt>
<pdfrwt beam="2">  1       21 0.36286638E-01 0.12940355E+03</pdfrwt>
<totfact> 0.24808242E+06</totfact>
</mgrwt>
</event>
<event>
 6    1  0.4180481E-002  0.1265145E+03  0.7546771E-02  0.1232721E+00
         21   -1    0    0  503  502  0.00000000000E+00  0.00000000000E+00  0.20123583078E+03  0.20123583078E+03  0.00000000000E+00 0. -1.
         21   -1    0    0  504  503 -0.00000000000E+00 -0.00000000000E+00 -0.41540607295E+02  0.41540607295E+02  0.00000000000E+00 0. -1.
         25    2    1    2    0    0  0.15616340172E+02  0.11693192927E+02  0.17641006821E+03  0.21708622836E+03  0.12500127014E+03 0.  0.
          5    1    3    3  501    0 -0.29507265169E+02  0.16701859979E+01 -0.49164695454E+01  0.29960805927E+02  0.10000000000E+00 0. -1.
         -5    1    3    3    0  501  0.45123605341E+02  0.10023006929E+02  0.18132653776E+03  0.18712542244E+03  0.10000000000E+00 0. -1.
         21    1    1    2  504  502 -0.15616340172E+02 -0.11693192927E+02 -0.16714844723E+02  0.25690209717E+02  0.00000000000E+00 0. -1.
<mgrwt>
<rscale>  1 0.12651450E+03</rscale>
<asrwt>0</asrwt>
<pdfrwt beam="1">  1       21 0.30959358E-01 0.12651450E+03</pdfrwt>
<pdfrwt beam="2">  1       21 0.63908628E-02 0.12651450E+03</pdfrwt>
<totfact> 0.17649042E+06</totfact>
</mgrwt>
</event>
<event>
 6    1  0.4180481E-002  0.1282489E+03  0.7546771E-02  0.1230077E+00
         21   -1    0    0  503  502  0.00000000000E+00  0.00000000000E+00  0.16929561445E+03  0.16929561445E+03  0.00000000000E+00 0.  1.
         21   -1    0    0  504  503 -0.00000000000E+00 -0.00000000000E+00 -0.30060435295E+03  0.30060435295E+03  0.00000000000E+00 0. -1.
         25    2    1    2    0    0 -0.21999137155E+02 -0.18423595257E+02  0.14415441753E+03  0.19294628676E+03  0.12499753031E+03 0.  0.
          5    1    3    3  501    0 -0.65400313823E+02 -0.27640967477E+02  0.12675742371E+03  0.14528826036E+03  0.10000000000E+00 0.  1.
         -5    1    3    3    0  501  0.43401176668E+02  0.92173722194E+01  0.17396993815E+02  0.47658026403E+02  0.10000000000E+00 0.  1.
         21    1    1    2  504  502  0.21999137155E+02  0.18423595257E+02 -0.27546315603E+03  0.27695368065E+03  0.00000000000E+00 0. -1.
<mgrwt>
<rscale>  1 0.12824887E+03</rscale>
<asrwt>0</asrwt>
<pdfrwt beam="1">  1       21 0.26045479E-01 0.12824887E+03</pdfrwt>
<pdfrwt beam="2">  1       21 0.46246823E-01 0.12824887E+03</pdfrwt>
<totfact> 0.64616593E+04</totfact>
</mgrwt>
</event>
<event>
 6    1  0.4180481E-002  0.1290121E+03  0.7546771E-02  0.1228929E+00
         21   -1    0    0  503  502  0.00000000000E+00  0.00000000000E+00  0.19697369871E+03  0.19697369871E+03  0.00000000000E+00 0. -1.
         21   -1    0    0  504  503 -0.00000000000E+00 -0.00000000000E+00 -0.71704480119E+02  0.71704480119E+02  0.00000000000E+00 0.  1.
         25    2    1    2    0    0  0.22218559913E+02 -0.22913589349E+02  0.17019683676E+03  0.21356749151E+03  0.12500165281E+03 0.  0.
          5    1    3    3  501    0  0.51644597606E+02 -0.11860152497E+02  0.17401381901E+03  0.18190285013E+03  0.10000000000E+00 0. -1.
         -5    1    3    3    0  501 -0.29426037693E+02 -0.11053436852E+02 -0.38169822437E+01  0.31664641384E+02  0.10000000000E+00 0. -1.
         21    1    1    2  504  502 -0.22218559913E+02  0.22913589349E+02 -0.44927618175E+02  0.55110687315E+02  0.00000000000E+00 0.  1.
<mgrwt>
<rscale>  1 0.12901205E+03</rscale>
<asrwt>0</asrwt>
<pdfrwt beam="1">  1       21 0.30303646E-01 0.12901205E+03</pdfrwt>
<pdfrwt beam="2">  1       21 0.11031458E-01 0.12901205E+03</pdfrwt>
<totfact> 0.71570686E+05</totfact>
</mgrwt>
</event>
<event>
 6    1  0.4180481E-002  0.1265398E+03  0.7546771E-02  0.1232682E+00
         21   -1    0    0  503  502  0.00000000000E+00  0.00000000000E+00  0.12714361536E+02  0.12714361536E+02  0.00000000000E+00 0. -1.
         21   -1    0    0  504  503 -0.00000000000E+00 -0.00000000000E+00 -0.79052212156E+03  0.79052212156E+03  0.00000000000E+00 0. -1.
         25    2    1    2    0    0 -0.10542465230E+02  0.16622419150E+02 -0.30752082077E+03  0.33253779643E+03  0.12499952984E+03 0.  0.
          5    1    3    3  501    0 -0.23645169558E+02  0.61710095666E+02 -0.24839950774E+03  0.25703998793E+03  0.10000000000E+00 0. -1.
         -5    1    3    3    0  501  0.13102704328E+02 -0.45087676516E+02 -0.59121313025E+02  0.75497808499E+02  0.10000000000E+00 0. -1.
         21    1    1    2  504  502  0.10542465230E+02 -0.16622419150E+02 -0.47028693926E+03  0.47069868666E+03  0.00000000000E+00 0. -1.
<mgrwt>
<rscale>  1 0.12653984E+03</rscale>
<asrwt>0</asrwt>
<pdfrwt beam="1">  1       21 0.19560557E-02 0.12653984E+03</pdfrwt>
<pdfrwt beam="2">  1       21 0.12161878E+00 0.12653984E+03</pdfrwt>
<totfact> 0.65959237E+05</totfact>
</mgrwt>
</event>
<event>
 6    1  0.4180481E-002  0.1295878E+03  0.7546771E-02  0.1228069E+00
         21   -1    0    0  503  502  0.00000000000E+00  0.00000000000E+00  0.16675751586E+03  0.16675751586E+03  0.00000000000E+00 0. -1.
         21   -1    0    0  504  503 -0.00000000000E+00 -0.00000000000E+00 -0.45983647593E+02  0.45983647593E+02  0.00000000000E+00 0. -1.
         25    2    1    2    0    0 -0.27753037420E+02  0.19881744812E+02  0.12281576272E+03  0.17854051732E+03  0.12500995916E+03 0.  0.
          5    1    3    3  501    0  0.80805534131E+01 -0.46879785001E+02  0.21964293544E+02  0.52397039764E+02  0.10000000000E+00 0. -1.
         -5    1    3    3    0  501 -0.35833590833E+02  0.66761529813E+02  0.10085146918E+03  0.12614347756E+03  0.10000000000E+00 0. -1.
         21    1    1    2  504  502  0.27753037420E+02 -0.19881744812E+02 -0.20418944546E+01  0.34200646131E+02  0.00000000000E+00 0. -1.
<mgrwt>
<rscale>  1 0.12958783E+03</rscale>
<asrwt>0</asrwt>
<pdfrwt beam="1">  1       21 0.25655002E-01 0.12958783E+03</pdfrwt>
<pdfrwt beam="2">  1       21 0.70744074E-02 0.12958783E+03</pdfrwt>
<totfact> 0.21280296E+06</totfact>
</mgrwt>
</event>
<event>
 6    1  0.4180481E-002  0.1259285E+03  0.7546771E-02  0.1233625E+00
         21   -1    0    0  504  502  0.00000000000E+00  0.00000000000E+00  0.10681150018E+04  0.10681150018E+04  0.00000000000E+00 0. -1.
         21   -1    0    0  502  503 -0.00000000000E+00 -0.00000000000E+00 -0.47480474674E+01  0.47480474674E+01  0.00000000000E+00 0. -1.
         25    2    1    2    0    0 -0.15191124672E+02  0.12764751127E+01  0.98594653255E+03  0.99395600670E+03  0.12500231418E+03 0.  0.
          5    1    3    3  501    0 -0.69112846661E+02 -0.32395759959E+01  0.45047338389E+03  0.45575581184E+03  0.10000000000E+00 0.  1.
         -5    1    3    3    0  501  0.53921721989E+02  0.45160511085E+01  0.53547314866E+03  0.53820019487E+03  0.10000000000E+00 0.  1.
         21    1    1    2  504  503  0.15191124672E+02 -0.12764751127E+01  0.77420421735E+02  0.78907042519E+02  0.00000000000E+00 0.  1.
<mgrwt>
<rscale>  1 0.12592846E+03</rscale>
<asrwt>0</asrwt>
<pdfrwt beam="1">  1       21 0.16432519E+00 0.12592846E+03</pdfrwt>
<pdfrwt beam="2">  1       21 0.73046969E-03 0.12592846E+03</pdfrwt>
<totfact> 0.14588596E+06</totfact>
</mgrwt>
</event>
<event>
 6    1  0.4180481E-002  0.1291803E+03  0.7546771E-02  0.1228677E+00
         21   -1    0    0  504  502  0.00000000000E+00  0.00000000000E+00  0.52541507738E+02  0.52541507738E+02  0.00000000000E+00 0. -1.
         21   -1    0    0  502  503 -0.00000000000E+00 -0.00000000000E+00 -0.12679257662E+03  0.12679257662E+03  0.00000000000E+00 0. -1.
         25    2    1    2    0    0  0.13207408212E+01  0.32592028070E+02 -0.49305724240E+02  0.13827005059E+03  0.12499427106E+03 0.  0.
          5    1    3    3  501    0  0.42826970004E+01 -0.40762472202E+02 -0.50254716475E+02  0.64849573334E+02  0.10000000000E+00 0.  1.
         -5    1    3    3    0  501 -0.29619561792E+01  0.73354500272E+02  0.94899223419E+00  0.73420477258E+02  0.10000000000E+00 0.  1.
         21    1    1    2  504  503 -0.13207408212E+01 -0.32592028070E+02 -0.24945344645E+02  0.41064033770E+02  0.00000000000E+00 0. -1.
<mgrwt>
<rscale>  1 0.12918031E+03</rscale>
<asrwt>0</asrwt>
<pdfrwt beam="1">  1       21 0.80833090E-02 0.12918031E+03</pdfrwt>
<pdfrwt beam="2">  1       21 0.19506550E-01 0.12918031E+03</pdfrwt>
<totfact> 0.28239787E+06</totfact>
</mgrwt>
</event>
<event>
 6    1  0.4180481E-002  0.1276495E+03  0.7546771E-02  0.1230986E+00
         21   -1    0    0  503  502  0.00000000000E+00  0.00000000000E+00  0.28058112492E+03  0.28058112492E+03  0.00000000000E+00 0. -1.
         21   -1    0    0  504  503 -0.00000000000E+00 -0.00000000000E+00 -0.28812892267E+03  0.28812892267E+03  0.00000000000E+00 0. -1.
         25    2    1    2    0    0  0.18578511849E+02 -0.18014605136E+02  0.26541897712E+03  0.29451933425E+03  0.12499887091E+03 0.  0.
          5    1    3    3  501    0 -0.41318824332E+02 -0.38253843276E+02  0.74378581885E+02  0.93288719644E+02  0.10000000000E+00 0. -1.
         -5    1    3    3    0  501  0.59897336181E+02  0.20239238140E+02  0.19104039524E+03  0.20123061460E+03  0.10000000000E+00 0. -1.
         21    1    1    2  504  502 -0.18578511849E+02  0.18014605136E+02 -0.27296677487E+03  0.27419071335E+03  0.00000000000E+00 0. -1.
<mgrwt>
<rscale>  1 0.12764954E+03</rscale>
<asrwt>0</asrwt>
<pdfrwt beam="1">  1       21 0.43166327E-01 0.12764954E+03</pdfrwt>
<pdfrwt beam="2">  1       21 0.44327527E-01 0.12764954E+03</pdfrwt>
<totfact> 0.26234871E+04</totfact>
</mgrwt>
</event>
<event>
 6    1  0.4180481E-002  0.1280051E+03  0.7546771E-02  0.1230446E+00
         21   -1    0    0  503  502  0.00000000000E+00  0.00000000000E+00  0.16981371867E+04  0.16981371867E+04  0.00000000000E+00 0. -1.
         21   -1    0    0  504  503 -0.00000000000E+00 -0.00000000000E+00 -0.56091691066E+02  0.56091691066E+02  0.00000000000E+00 0. -1.
         25    2    1    2    0    0 -0.14851095132E+02 -0.23245980604E+02  0.16921756961E+04  0.16970102826E+04  0.12499752913E+03 0.  0.
          5    1    3    3  501    0  0.86276368397E+01  0.49886369613E+02  0.75204264687E+03  0.75374481007E+03  0.10000000000E+00 0. -1.
         -5    1    3    3    0  501 -0.23478731971E+02 -0.73132350217E+02  0.94013304921E+03  0.94326547256E+03  0.10000000000E+00 0. -1.
         21    1    1    2  504  502  0.14851095132E+02  0.23245980604E+02 -0.50130200411E+02  0.57218595177E+02  0.00000000000E+00 0. -1.
<mgrwt>
<rscale>  1 0.12800513E+03</rscale>
<asrwt>0</asrwt>
<pdfrwt beam="1">  1       21 0.26125184E+00 0.12800513E+03</pdfrwt>
<pdfrwt beam="2">  1       21 0.86294922E-02 0.12800513E+03</pdfrwt>
<totfact> 0.64966887E+03</totfact>
</mgrwt>
</event>
<event>
 6    1  0.4180481E-002  0.1389864E+03  0.7546771E-02  0.1214699E+00
         21   -1    0    0  503  502  0.00000000000E+00  0.00000000000E+00  0.98488168282E+02  0.98488168282E+02  0.00000000000E+00 0. -1.
         21   -1    0    0  504  503 -0.00000000000E+00 -0.00000000000E+00 -0.13613408809E+03  0.13613408809E+03  0.00000000000E+00 0.  1.
         25    2    1    2    0    0 -0.26983287441E+02 -0.54453708473E+02  0.31555668822E+02  0.14252359169E+03  0.12499563907E+03 0.  0.
          5    1    3    3  501    0  0.27645128475E+02 -0.17239346547E+02 -0.35625481591E+02  0.48276631369E+02  0.10000000000E+00 0.  1.
         -5    1    3    3    0  501 -0.54628415916E+02 -0.37214361926E+02  0.67181150413E+02  0.94246960321E+02  0.10000000000E+00 0.  1.
         21    1    1    2  504  502  0.26983287441E+02  0.54453708473E+02 -0.69201588635E+02  0.92098664687E+02  0.00000000000E+00 0.  1.
<mgrwt>
<rscale>  1 0.13898638E+03</rscale>
<asrwt>0</asrwt>
<pdfrwt beam="1">  1       21 0.15152026E-01 0.13898638E+03</pdfrwt>
<pdfrwt beam="2">  1       21 0.20943706E-01 0.13898638E+03</pdfrwt>
<totfact> 0.81806898E+05</totfact>
</mgrwt>
</event>
<event>
 6    1  0.4180481E-002  0.1277596E+03  0.7546771E-02  0.1230818E+00
         21   -1    0    0  504  502  0.00000000000E+00  0.00000000000E+00  0.82759153850E+02  0.82759153850E+02  0.00000000000E+00 0.  1.
         21   -1    0    0  502  503 -0.00000000000E+00 -0.00000000000E+00 -0.14583758417E+03  0.14583758417E+03  0.00000000000E+00 0.  1.
         25    2    1    2    0    0 -0.26405879996E+02 -0.75734257765E+00  0.30509471450E+02  0.13135199819E+03  0.12499870205E+03 0.  0.
          5    1    3    3  501    0 -0.28579998392E+02  0.41488193856E+02  0.61068277182E+02  0.79167108167E+02  0.10000000000E+00 0.  1.
         -5    1    3    3    0  501  0.21741183967E+01 -0.42245536434E+02 -0.30558805732E+02  0.52184890027E+02  0.10000000000E+00 0.  1.
         21    1    1    2  504  503  0.26405879996E+02  0.75734257765E+00 -0.93587901767E+02  0.97244739823E+02  0.00000000000E+00 0.  1.
<mgrwt>
<rscale>  1 0.12775962E+03</rscale>
<asrwt>0</asrwt>
<pdfrwt beam="1">  1       21 0.12732178E-01 0.12775962E+03</pdfrwt>
<pdfrwt beam="2">  1       21 0.22436551E-01 0.12775962E+03</pdfrwt>
<totfact> 0.98260007E+05</totfact>
</mgrwt>
</event>
<event>
 6    1  0.4180481E-002  0.1289240E+03  0.7546771E-02  0.1229061E+00
         21   -1    0    0  504  502  0.00000000000E+00  0.00000000000E+00  0.55308907453E+02  0.55308907453E+02  0.00000000000E+00 0.  1.
         21   -1    0    0  502  503 -0.00000000000E+00 -0.00000000000E+00 -0.19977880766E+03  0.19977880766E+03  0.00000000000E+00 0.  1.
         25    2    1    2    0    0  0.31332860437E+02 -0.37110588601E+01 -0.24747726390E+02  0.13127770338E+03  0.12500346132E+03 0.  0.
          5    1    3    3  501    0  0.75051771107E+02 -0.25945220774E+02 -0.98584029817E+01  0.80019503476E+02  0.10000000000E+00 0. -1.
         -5    1    3    3    0  501 -0.43718910670E+02  0.22234161914E+02 -0.14889323408E+02  0.51258199907E+02  0.10000000000E+00 0. -1.
         21    1    1    2  504  503 -0.31332860437E+02  0.37110588601E+01 -0.11972217382E+03  0.12381001173E+03  0.00000000000E+00 0.  1.
<mgrwt>
<rscale>  1 0.12892395E+03</rscale>
<asrwt>0</asrwt>
<pdfrwt beam="1">  1       21 0.85090626E-02 0.12892395E+03</pdfrwt>
<pdfrwt beam="2">  1       21 0.30735201E-01 0.12892395E+03</pdfrwt>
<totfact> 0.10957131E+06</totfact>
</mgrwt>
</event>
<event>
 6    1  0.4180481E-002  0.1269452E+03  0.7546771E-02  0.1232060E+00
         21   -1    0    0  504  502  0.00000000000E+00  0.00000000000E+00  0.34173189900E+02  0.34173189900E+02  0.00000000000E+00 0.  1.
         21   -1    0    0  502  503 -0.00000000000E+00 -0.00000000000E+00 -0.19478760152E+03  0.19478760152E+03  0.00000000000E+00 0.  1.
         25    2    1    2    0    0 -0.11251497410E+02  0.19027904929E+02 -0.91736906873E+02  0.15662291738E+03  0.12500568310E+03 0.  0.
          5    1    3    3  501    0 -0.65854939185E+02 -0.71261794946E+01 -0.43976658444E+02  0.79508565181E+02  0.10000000000E+00 0.  1.
         -5    1    3    3    0  501  0.54603441775E+02  0.26154084424E+02 -0.47760248429E+02  0.77114352203E+02  0.10000000000E+00 0.  1.
         21    1    1    2  504  503  0.11251497410E+02 -0.19027904929E+02 -0.68877504750E+02  0.72337874040E+02  0.00000000000E+00 0.  1.
<mgrwt>
<rscale>  1 0.12694518E+03</rscale>
<asrwt>0</asrwt>
<pdfrwt beam="1">  1       21 0.52574139E-02 0.12694518E+03</pdfrwt>
<pdfrwt beam="2">  1       21 0.29967323E-01 0.12694518E+03</pdfrwt>
<totfact> 0.26153054E+06</totfact>
</mgrwt>
</event>
<event>
 6    1  0.4180481E-002  0.1273730E+03  0.7546771E-02  0.1231407E+00
         21   -1    0    0  504  502  0.00000000000E+00  0.00000000000E+00  0.76810608288E+03  0.76810608288E+03  0.00000000000E+00 0.  1.
         21   -1    0    0  502  503 -0.00000000000E+00 -0.00000000000E+00 -0.10105508802E+03  0.10105508802E+03  0.00000000000E+00 0. -1.
         25    2    1    2    0    0  0.78377308017E+01  0.23188581575E+02  0.76125071295E+03  0.77183323438E+03  0.12499901358E+03 0.  0.
          5    1    3    3  501    0  0.45458447687E+02 -0.19062925681E+01  0.11032729057E+03  0.11934079546E+03  0.10000000000E+00 0. -1.
         -5    1    3    3    0  501 -0.37620716886E+02  0.25094874143E+02  0.65092342238E+03  0.65249243892E+03  0.10000000000E+00 0. -1.
         21    1    1    2  504  503 -0.78377308017E+01 -0.23188581575E+02 -0.94199718089E+02  0.97327936522E+02  0.00000000000E+00 0. -1.
<mgrwt>
<rscale>  1 0.12737305E+03</rscale>
<asrwt>0</asrwt>
<pdfrwt beam="1">  1       21 0.11817016E+00 0.12737305E+03</pdfrwt>
<pdfrwt beam="2">  1       21 0.15546937E-01 0.12737305E+03</pdfrwt>
<totfact> 0.21088868E+04</totfact>
</mgrwt>
</event>
<event>
 6    1  0.4180481E-002  0.1258633E+03  0.7546771E-02  0.1233726E+00
         21   -1    0    0  503  502  0.00000000000E+00  0.00000000000E+00  0.16226448616E+02  0.16226448616E+02  0.00000000000E+00 0. -1.
         21   -1    0    0  504  503 -0.00000000000E+00 -0.00000000000E+00 -0.60113293471E+03  0.60113293471E+03  0.00000000000E+00 0. -1.
         25    2    1    2    0    0  0.14787536325E+02  0.29667533484E+01 -0.23044016284E+03  0.26257233850E+03  0.12495635814E+03 0.  0.
          5    1    3    3  501    0  0.24015831688E+02  0.13388438060E+02 -0.24256094132E+03  0.24411438036E+03  0.10000000000E+00 0.  1.
         -5    1    3    3    0  501 -0.92282953627E+01 -0.10421684712E+02  0.12120778481E+02  0.18457958135E+02  0.10000000000E+00 0.  1.
         21    1    1    2  504  502 -0.14787536325E+02 -0.29667533484E+01 -0.35446632326E+03  0.35478704483E+03  0.00000000000E+00 0. -1.
<mgrwt>
<rscale>  1 0.12586328E+03</rscale>
<asrwt>0</asrwt>
<pdfrwt beam="1">  1       21 0.24963763E-02 0.12586328E+03</pdfrwt>
<pdfrwt beam="2">  1       21 0.92482005E-01 0.12586328E+03</pdfrwt>
<totfact> 0.85042892E+05</totfact>
</mgrwt>
</event>
<event>
 6    1  0.4180481E-002  0.1272840E+03  0.7546771E-02  0.1231542E+00
         21   -1    0    0  504  502  0.00000000000E+00  0.00000000000E+00  0.93913965811E+02  0.93913965811E+02  0.00000000000E+00 0.  1.
         21   -1    0    0  502  503 -0.00000000000E+00 -0.00000000000E+00 -0.63197494970E+02  0.63197494970E+02  0.00000000000E+00 0.  1.
         25    2    1    2    0    0  0.65333608593E+01  0.23084150328E+02  0.36537840821E+02  0.13242439638E+03  0.12500257655E+03 0.  0.
          5    1    3    3  501    0 -0.28610450961E+02  0.65917218898E+02  0.21792101719E+02  0.75090234710E+02  0.10000000000E+00 0.  1.
         -5    1    3    3    0  501  0.35143811820E+02 -0.42833068570E+02  0.14745739101E+02  0.57334161667E+02  0.10000000000E+00 0.  1.
         21    1    1    2  504  503 -0.65333608593E+01 -0.23084150328E+02 -0.58213699790E+01  0.24687064404E+02  0.00000000000E+00 0.  1.
<mgrwt>
<rscale>  1 0.12728396E+03</rscale>
<asrwt>0</asrwt>
<pdfrwt beam="1">  1       21 0.14448303E-01 0.12728396E+03</pdfrwt>
<pdfrwt beam="2">  1       21 0.97226915E-02 0.12728396E+03</pdfrwt>
<totfact> 0.35372330E+06</totfact>
</mgrwt>
</event>
<event>
 6    1  0.4180481E-002  0.1296054E+03  0.7546771E-02  0.1228042E+00
         21   -1    0    0  504  502  0.00000000000E+00  0.00000000000E+00  0.10335338185E+03  0.10335338185E+03  0.00000000000E+00 0. -1.
         21   -1    0    0  502  503 -0.00000000000E+00 -0.00000000000E+00 -0.90187625205E+02  0.90187625205E+02  0.00000000000E+00 0. -1.
         25    2    1    2    0    0 -0.28982190189E+02  0.18236907543E+02  0.53864744852E+02  0.14035304050E+03  0.12500005238E+03 0.  0.
          5    1    3    3  501    0  0.14550815809E+02  0.58165345750E+02  0.54867140112E+02  0.81273284362E+02  0.10000000000E+00 0.  1.
         -5    1    3    3    0  501 -0.43533005997E+02 -0.39928438207E+02 -0.10023952603E+01  0.59079756136E+02  0.10000000000E+00 0.  1.
         21    1    1    2  504  503  0.28982190189E+02 -0.18236907543E+02 -0.40698988210E+02  0.53187966554E+02  0.00000000000E+00 0. -1.
<mgrwt>
<rscale>  1 0.12960542E+03</rscale>
<asrwt>0</asrwt>
<pdfrwt beam="1">  1       21 0.15900520E-01 0.12960542E+03</pdfrwt>
<pdfrwt beam="2">  1       21 0.13875019E-01 0.12960542E+03</pdfrwt>
<totfact> 0.15880531E+06</totfact>
</mgrwt>
</event>
<event>
 6    1  0.4180481E-002  0.1281922E+03  0.7546771E-02  0.1230163E+00
         21   -1    0    0  504  502  0.00000000000E+00  0.00000000000E+00  0.11486326503E+03  0.11486326503E+03  0.00000000000E+00 0.  1.
         21   -1    0    0  502  503 -0.00000000000E+00 -0.00000000000E+00 -0.68590987906E+02  0.68590987906E+02  0.00000000000E+00 0.  1.
         25    2    1    2    0    0  0.28252912709E+02  0.29795426102E+01  0.70338311582E+02  0.14622148826E+03  0.12500456313E+03 0.  0.
          5    1    3    3  501    0  0.63735681248E+02 -0.36221620830E+02  0.53411919388E+02  0.90703285565E+02  0.10000000000E+00 0. -1.
         -5    1    3    3    0  501 -0.35482768538E+02  0.39201163440E+02  0.16926392195E+02  0.55518202699E+02  0.10000000000E+00 0. -1.
         21    1    1    2  504  503 -0.28252912709E+02 -0.29795426102E+01 -0.24066034457E+02  0.37232764674E+02  0.00000000000E+00 0.  1.
<mgrwt>
<rscale>  1 0.12819222E+03</rscale>
<asrwt>0</asrwt>
<pdfrwt beam="1">  1       21 0.17671271E-01 0.12819222E+03</pdfrwt>
<pdfrwt beam="2">  1       21 0.10552460E-01 0.12819222E+03</pdfrwt>
<totfact> 0.21285669E+06</totfact>
</mgrwt>
</event>
<event>
 6    1  0.4180481E-002  0.1575524E+03  0.7546771E-02  0.1191488E+00
         21   -1    0    0  503  502  0.00000000000E+00  0.00000000000E+00  0.12533783645E+03  0.12533783645E+03  0.00000000000E+00 0. -1.
         21   -1    0    0  504  503 -0.00000000000E+00 -0.00000000000E+00 -0.36226334928E+03  0.36226334928E+03  0.00000000000E+00 0.  1.
         25    2    1    2    0    0  0.85168643635E+02  0.44087639676E+02  0.65281871161E+02  0.17054169482E+03  0.12500131655E+03 0.  0.
          5    1    3    3  501    0  0.58903883327E+02  0.88289752165E+02  0.44078091487E+02  0.11492447937E+03  0.10000000000E+00 0. -1.
         -5    1    3    3    0  501  0.26264760308E+02 -0.44202112489E+02  0.21203779674E+02  0.55617215455E+02  0.10000000000E+00 0. -1.
         21    1    1    2  504  502 -0.85168643635E+02 -0.44087639676E+02 -0.30220738399E+03  0.31705949090E+03  0.00000000000E+00 0.  1.
<mgrwt>
<rscale>  1 0.15755236E+03</rscale>
<asrwt>0</asrwt>
<pdfrwt beam="1">  1       21 0.19282744E-01 0.15755236E+03</pdfrwt>
<pdfrwt beam="2">  1       21 0.55732823E-01 0.15755236E+03</pdfrwt>
<totfact> 0.76097045E+04</totfact>
</mgrwt>
</event>
<event>
 6    1  0.4180481E-002  0.1264549E+03  0.7546771E-02  0.1232813E+00
         21   -1    0    0  503  502  0.00000000000E+00  0.00000000000E+00  0.17316615506E+03  0.17316615506E+03  0.00000000000E+00 0. -1.
         21   -1    0    0  504  503 -0.00000000000E+00 -0.00000000000E+00 -0.59982614580E+02  0.59982614580E+02  0.00000000000E+00 0. -1.
         25    2    1    2    0    0 -0.15030866716E+02 -0.11965909907E+02  0.14721431619E+03  0.19406931661E+03  0.12498693853E+03 0.  0.
          5    1    3    3  501    0 -0.30741176197E+02  0.52048996771E+02  0.74104313937E+02  0.95632511851E+02  0.10000000000E+00 0. -1.
         -5    1    3    3    0  501  0.15710309480E+02 -0.64014906678E+02  0.73110002255E+02  0.98436804756E+02  0.10000000000E+00 0. -1.
         21    1    1    2  504  502  0.15030866716E+02  0.11965909907E+02 -0.34030775709E+02  0.39079453035E+02  0.00000000000E+00 0. -1.
<mgrwt>
<rscale>  1 0.12645491E+03</rscale>
<asrwt>0</asrwt>
<pdfrwt beam="1">  1       21 0.26640947E-01 0.12645491E+03</pdfrwt>
<pdfrwt beam="2">  1       21 0.92280946E-02 0.12645491E+03</pdfrwt>
<totfact> 0.12518325E+06</totfact>
</mgrwt>
</event>
<event>
 6    1  0.4180481E-002  0.1315102E+03  0.7546771E-02  0.1225232E+00
         21   -1    0    0  504  502  0.00000000000E+00  0.00000000000E+00  0.54266500831E+03  0.54266500831E+03  0.00000000000E+00 0. -1.
         21   -1    0    0  502  503 -0.00000000000E+00 -0.00000000000E+00 -0.16078864249E+02  0.16078864249E+02  0.00000000000E+00 0. -1.
         25    2    1    2    0    0 -0.40433024663E+02  0.58873728691E+01  0.47537212721E+03  0.49322772062E+03  0.12500173766E+03 0.  0.
          5    1    3    3  501    0 -0.12175686071E+02  0.15638917384E+02  0.45844853100E+03  0.45887676847E+03  0.10000000000E+00 0.  1.
         -5    1    3    3    0  501 -0.28257338591E+02 -0.97515445145E+01  0.16923596208E+02  0.34350952145E+02  0.10000000000E+00 0.  1.
         21    1    1    2  504  503  0.40433024663E+02 -0.58873728691E+01  0.51214016848E+02  0.65516151935E+02  0.00000000000E+00 0. -1.
<mgrwt>
<rscale>  1 0.13151017E+03</rscale>
<asrwt>0</asrwt>
<pdfrwt beam="1">  1       21 0.83486910E-01 0.13151017E+03</pdfrwt>
<pdfrwt beam="2">  1       21 0.24736718E-02 0.13151017E+03</pdfrwt>
<totfact> 0.10894351E+06</totfact>
</mgrwt>
</event>
<event>
 6    1  0.4180481E-002  0.1276870E+03  0.7546771E-02  0.1230929E+00
         21   -1    0    0  503  502  0.00000000000E+00  0.00000000000E+00  0.86957208811E+02  0.86957208811E+02  0.00000000000E+00 0.  1.
         21   -1    0    0  504  503 -0.00000000000E+00 -0.00000000000E+00 -0.27373028340E+03  0.27373028340E+03  0.00000000000E+00 0. -1.
         25    2    1    2    0    0 -0.29289625953E+00  0.26054394600E+02  0.38926586388E+02  0.13348878132E+03  0.12500023338E+03 0.  0.
          5    1    3    3  501    0 -0.97185244945E+01 -0.45259955871E+02  0.40543261049E+02  0.61536000360E+02  0.10000000000E+00 0.  1.
         -5    1    3    3    0  501  0.94256282349E+01  0.71314350471E+02 -0.16166746612E+01  0.71952780959E+02  0.10000000000E+00 0.  1.
         21    1    1    2  504  502  0.29289625953E+00 -0.26054394600E+02 -0.22569966098E+03  0.22719871089E+03  0.00000000000E+00 0. -1.
<mgrwt>
<rscale>  1 0.12768702E+03</rscale>
<asrwt>0</asrwt>
<pdfrwt beam="1">  1       21 0.13378032E-01 0.12768702E+03</pdfrwt>
<pdfrwt beam="2">  1       21 0.42112351E-01 0.12768702E+03</pdfrwt>
<totfact> 0.26590379E+05</totfact>
</mgrwt>
</event>
<event>
 6    1  0.4180481E-002  0.1667368E+03  0.7546771E-02  0.1181294E+00
         21   -1    0    0  504  502  0.00000000000E+00  0.00000000000E+00  0.12416510868E+04  0.12416510868E+04  0.00000000000E+00 0.  1.
         21   -1    0    0  502  503 -0.00000000000E+00 -0.00000000000E+00 -0.22042826301E+02  0.22042826301E+02  0.00000000000E+00 0.  1.
         25    2    1    2    0    0  0.10964478606E+03  0.12279760138E+02  0.10371830700E+04  0.10504998190E+04  0.12501350906E+03 0.  0.
          5    1    3    3  501    0 -0.58300542570E+01  0.12304494512E+00 -0.93643703201E+00  0.59069101070E+01  0.10000000000E+00 0. -1.
         -5    1    3    3    0  501  0.11547484032E+03  0.12156715193E+02  0.10381195071E+04  0.10445929089E+04  0.10000000000E+00 0. -1.
         21    1    1    2  504  503 -0.10964478606E+03 -0.12279760138E+02  0.18242519046E+03  0.21319409404E+03  0.00000000000E+00 0.  1.
<mgrwt>
<rscale>  1 0.16673677E+03</rscale>
<asrwt>0</asrwt>
<pdfrwt beam="1">  1       21 0.19102319E+00 0.16673677E+03</pdfrwt>
<pdfrwt beam="2">  1       21 0.33912050E-02 0.16673677E+03</pdfrwt>
<totfact> 0.80524438E+04</totfact>
</mgrwt>
</event>
<event>
 6    1  0.4180481E-002  0.1495521E+03  0.7546771E-02  0.1201024E+00
         21   -1    0    0  503  502  0.00000000000E+00  0.00000000000E+00  0.23598028590E+02  0.23598028590E+02  0.00000000000E+00 0. -1.
         21   -1    0    0  504  503 -0.00000000000E+00 -0.00000000000E+00 -0.10666033697E+04  0.10666033697E+04  0.00000000000E+00 0. -1.
         25    2    1    2    0    0 -0.82024358969E+02  0.35756770780E+01 -0.23845146592E+03  0.28146923063E+03  0.12500018104E+03 0.  0.
          5    1    3    3  501    0 -0.69286695241E+02  0.59609158103E+02 -0.13301185459E+03  0.16138792188E+03  0.10000000000E+00 0.  1.
         -5    1    3    3    0  501 -0.12737663728E+02 -0.56033481025E+02 -0.10543961133E+03  0.12008130875E+03  0.10000000000E+00 0.  1.
         21    1    1    2  504  502  0.82024358969E+02 -0.35756770780E+01 -0.80455387516E+03  0.80873216763E+03  0.00000000000E+00 0. -1.
<mgrwt>
<rscale>  1 0.14955209E+03</rscale>
<asrwt>0</asrwt>
<pdfrwt beam="1">  1       21 0.36304663E-02 0.14955209E+03</pdfrwt>
<pdfrwt beam="2">  1       21 0.16409281E+00 0.14955209E+03</pdfrwt>
<totfact> 0.11070897E+05</totfact>
</mgrwt>
</event>
<event>
 6    1  0.4180481E-002  0.1385920E+03  0.7546771E-02  0.1215236E+00
         21   -1    0    0  503  502  0.00000000000E+00  0.00000000000E+00  0.61260030227E+03  0.61260030227E+03  0.00000000000E+00 0. -1.
         21   -1    0    0  504  503 -0.00000000000E+00 -0.00000000000E+00 -0.23303259204E+02  0.23303259204E+02  0.00000000000E+00 0. -1.
         25    2    1    2    0    0 -0.49704877215E+02  0.33333628290E+02  0.54252508223E+03  0.55994750895E+03  0.12500416929E+03 0.  0.
          5    1    3    3  501    0 -0.67820096335E+02  0.55378124321E+02  0.50639787384E+03  0.51391158651E+03  0.10000000000E+00 0. -1.
         -5    1    3    3    0  501  0.18115219120E+02 -0.22044496031E+02  0.36127208386E+02  0.46035922439E+02  0.10000000000E+00 0. -1.
         21    1    1    2  504  502  0.49704877215E+02 -0.33333628290E+02  0.46771960832E+02  0.75956052517E+02  0.00000000000E+00 0. -1.
<mgrwt>
<rscale>  1 0.13859202E+03</rscale>
<asrwt>0</asrwt>
<pdfrwt beam="1">  1       21 0.94246188E-01 0.13859202E+03</pdfrwt>
<pdfrwt beam="2">  1       21 0.35851173E-02 0.13859202E+03</pdfrwt>
<totfact> 0.44898066E+05</totfact>
</mgrwt>
</event>
<event>
 6    1  0.4180481E-002  0.1262915E+03  0.7546771E-02  0.1233065E+00
         21   -1    0    0  504  502  0.00000000000E+00  0.00000000000E+00  0.24059734279E+03  0.24059734279E+03  0.00000000000E+00 0. -1.
         21   -1    0    0  502  503 -0.00000000000E+00 -0.00000000000E+00 -0.22519438523E+02  0.22519438523E+02  0.00000000000E+00 0. -1.
         25    2    1    2    0    0  0.95999209976E+01  0.15245366887E+02  0.20528108230E+03  0.24101840248E+03  0.12499987155E+03 0.  0.
          5    1    3    3  501    0  0.24980389729E+02 -0.41521061099E+02  0.15887912811E+03  0.16610420144E+03  0.10000000000E+00 0.  1.
         -5    1    3    3    0  501 -0.15380468731E+02  0.56766427986E+02  0.46401954184E+02  0.74914201036E+02  0.10000000000E+00 0.  1.
         21    1    1    2  504  503 -0.95999209976E+01 -0.15245366887E+02  0.12796821968E+02  0.22098378835E+02  0.00000000000E+00 0.  1.
<mgrwt>
<rscale>  1 0.12629152E+03</rscale>
<asrwt>0</asrwt>
<pdfrwt beam="1">  1       21 0.37014974E-01 0.12629152E+03</pdfrwt>
<pdfrwt beam="2">  1       21 0.34645292E-02 0.12629152E+03</pdfrwt>
<totfact> 0.34684088E+06</totfact>
</mgrwt>
</event>
<event>
 6    1  0.4180481E-002  0.1600005E+03  0.7546771E-02  0.1188696E+00
         21   -1    0    0  503  502  0.00000000000E+00  0.00000000000E+00  0.14683930327E+03  0.14683930327E+03  0.00000000000E+00 0. -1.
         21   -1    0    0  504  503 -0.00000000000E+00 -0.00000000000E+00 -0.69576338465E+03  0.69576338465E+03  0.00000000000E+00 0. -1.
         25    2    1    2    0    0 -0.36259917600E+02 -0.93067014551E+02  0.98255269114E+02  0.18776120900E+03  0.12499569142E+03 0.  0.
          5    1    3    3  501    0 -0.33760702111E+02 -0.12387395753E+03  0.71972597097E+02  0.14718901825E+03  0.10000000000E+00 0.  1.
         -5    1    3    3    0  501 -0.24992154886E+01  0.30806942978E+02  0.26282672017E+02  0.40572190747E+02  0.10000000000E+00 0.  1.
         21    1    1    2  504  502  0.36259917600E+02  0.93067014551E+02 -0.64717935049E+03  0.65484147893E+03  0.00000000000E+00 0. -1.
<mgrwt>
<rscale>  1 0.16000054E+03</rscale>
<asrwt>0</asrwt>
<pdfrwt beam="1">  1       21 0.22590663E-01 0.16000054E+03</pdfrwt>
<pdfrwt beam="2">  1       21 0.10704052E+00 0.16000054E+03</pdfrwt>
<totfact> 0.13111794E+04</totfact>
</mgrwt>
</event>
<event>
 6    1  0.4180481E-002  0.1350976E+03  0.7546771E-02  0.1220082E+00
         21   -1    0    0  504  502  0.00000000000E+00  0.00000000000E+00  0.71405971935E+02  0.71405971935E+02  0.00000000000E+00 0.  1.
         21   -1    0    0  502  503 -0.00000000000E+00 -0.00000000000E+00 -0.14460335871E+03  0.14460335871E+03  0.00000000000E+00 0.  1.
         25    2    1    2    0    0 -0.47516778354E+02  0.19075148638E+02 -0.89755907690E+02  0.16219585524E+03  0.12501866649E+03 0.  0.
          5    1    3    3  501    0  0.26970751596E+02 -0.23164595635E+02  0.33366221448E+01  0.35709424245E+02  0.10000000000E+00 0. -1.
         -5    1    3    3    0  501 -0.74487529950E+02  0.42239744273E+02 -0.93092529835E+02  0.12648643099E+03  0.10000000000E+00 0. -1.
         21    1    1    2  504  503  0.47516778354E+02 -0.19075148638E+02  0.16558520913E+02  0.53813475408E+02  0.00000000000E+00 0.  1.
<mgrwt>
<rscale>  1 0.13509764E+03</rscale>
<asrwt>0</asrwt>
<pdfrwt beam="1">  1       21 0.10985534E-01 0.13509764E+03</pdfrwt>
<pdfrwt beam="2">  1       21 0.22246671E-01 0.13509764E+03</pdfrwt>
<totfact> 0.12972417E+06</totfact>
</mgrwt>
</event>
<event>
 6    1  0.4180481E-002  0.1562160E+03  0.7546771E-02  0.1193036E+00
         21   -1    0    0  503  502  0.00000000000E+00  0.00000000000E+00  0.75759132516E+02  0.75759132516E+02  0.00000000000E+00 0.  1.
         21   -1    0    0  504  503 -0.00000000000E+00 -0.00000000000E+00 -0.21200155210E+03  0.21200155210E+03  0.00000000000E+00 0.  1.
         25    2    1    2    0    0 -0.46408091778E+02  0.81416949887E+02 -0.61482417157E+02  0.16787954067E+03  0.12498408637E+03 0.  0.
          5    1    3    3  501    0 -0.66394138885E+02  0.31768059566E+02  0.14422930698E+02  0.75002814725E+02  0.10000000000E+00 0.  1.
         -5    1    3    3    0  501  0.19986047107E+02  0.49648890321E+02 -0.75905347855E+02  0.92876725944E+02  0.10000000000E+00 0.  1.
         21    1    1    2  504  502  0.46408091778E+02 -0.81416949887E+02 -0.74760002431E+02  0.11988114395E+03  0.00000000000E+00 0.  1.
<mgrwt>
<rscale>  1 0.15621604E+03</rscale>
<asrwt>0</asrwt>
<pdfrwt beam="1">  1       21 0.11655251E-01 0.15621604E+03</pdfrwt>
<pdfrwt beam="2">  1       21 0.32615623E-01 0.15621604E+03</pdfrwt>
<totfact> 0.56221325E+05</totfact>
</mgrwt>
</event>
<event>
 6    1  0.4180481E-002  0.1308628E+03  0.7546771E-02  0.1226181E+00
         21   -1    0    0  503  502  0.00000000000E+00  0.00000000000E+00  0.36483633700E+02  0.36483633700E+02  0.00000000000E+00 0. -1.
         21   -1    0    0  504  503 -0.00000000000E+00 -0.00000000000E+00 -0.48629362943E+03  0.48629362943E+03  0.00000000000E+00 0. -1.
         25    2    1    2    0    0  0.36246077497E+01  0.38564752774E+02 -0.85285987402E+02  0.15620103561E+03  0.12499874375E+03 0.  0.
          5    1    3    3  501    0  0.44291271255E+02 -0.28301019692E+02 -0.36173550177E+02  0.63805957068E+02  0.10000000000E+00 0. -1.
         -5    1    3    3    0  501 -0.40666663505E+02  0.66865772466E+02 -0.49112437225E+02  0.92395078539E+02  0.10000000000E+00 0. -1.
         21    1    1    2  504  502 -0.36246077497E+01 -0.38564752774E+02 -0.36452400833E+03  0.36657622752E+03  0.00000000000E+00 0. -1.
<mgrwt>
<rscale>  1 0.13086277E+03</rscale>
<asrwt>0</asrwt>
<pdfrwt beam="1">  1       21 0.56128674E-02 0.13086277E+03</pdfrwt>
<pdfrwt beam="2">  1       21 0.74814395E-01 0.13086277E+03</pdfrwt>
<totfact> 0.35787456E+05</totfact>
</mgrwt>
</event>
<event>
 6    1  0.4180481E-002  0.1414302E+03  0.7546771E-02  0.1211417E+00
         21   -1    0    0  504  502  0.00000000000E+00  0.00000000000E+00  0.13999324826E+02  0.13999324826E+02  0.00000000000E+00 0. -1.
         21   -1    0    0  502  503 -0.00000000000E+00 -0.00000000000E+00 -0.77642109765E+03  0.77642109765E+03  0.00000000000E+00 0. -1.
         25    2    1    2    0    0  0.62743401890E+02 -0.21012016908E+02 -0.55267827970E+03  0.57048731391E+03  0.12499702055E+03 0.  0.
          5    1    3    3  501    0  0.27722326866E+02 -0.22374594741E+02 -0.29827845539E+02  0.46463536953E+02  0.10000000000E+00 0.  1.
         -5    1    3    3    0  501  0.35021075024E+02  0.13625778336E+01 -0.52285043416E+03  0.52402377696E+03  0.10000000000E+00 0.  1.
         21    1    1    2  504  503 -0.62743401890E+02  0.21012016908E+02 -0.20974349312E+03  0.21993310856E+03  0.00000000000E+00 0. -1.
<mgrwt>
<rscale>  1 0.14143018E+03</rscale>
<asrwt>0</asrwt>
<pdfrwt beam="1">  1       21 0.21537416E-02 0.14143018E+03</pdfrwt>
<pdfrwt beam="2">  1       21 0.11944944E+00 0.14143018E+03</pdfrwt>
<totfact> 0.58869403E+05</totfact>
</mgrwt>
</event>
<event>
 6    1  0.4180481E-002  0.1336474E+03  0.7546771E-02  0.1222142E+00
         21   -1    0    0  504  502  0.00000000000E+00  0.00000000000E+00  0.23934131046E+03  0.23934131046E+03  0.00000000000E+00 0.  1.
         21   -1    0    0  502  503 -0.00000000000E+00 -0.00000000000E+00 -0.55662827603E+02  0.55662827603E+02  0.00000000000E+00 0.  1.
         25    2    1    2    0    0 -0.11323085372E+02 -0.45914832565E+02  0.20371677972E+03  0.24364347751E+03  0.12500093472E+03 0.  0.
          5    1    3    3  501    0 -0.62844862475E+02  0.20293810066E+01  0.10545582241E+03  0.12277840041E+03  0.10000000000E+00 0. -1.
         -5    1    3    3    0  501  0.51521777103E+02 -0.47944213572E+02  0.98260957313E+02  0.12086507710E+03  0.10000000000E+00 0. -1.
         21    1    1    2  504  503  0.11323085372E+02  0.45914832565E+02 -0.20038296860E+02  0.51360660558E+02  0.00000000000E+00 0.  1.
<mgrwt>
<rscale>  1 0.13364736E+03</rscale>
<asrwt>0</asrwt>
<pdfrwt beam="1">  1       21 0.36821740E-01 0.13364736E+03</pdfrwt>
<pdfrwt beam="2">  1       21 0.85635120E-02 0.13364736E+03</pdfrwt>
<totfact> 0.76120605E+05</totfact>
</mgrwt>
</event>
<event>
 6    1  0.4180481E-002  0.1288591E+03  0.7546771E-02  0.1229158E+00
         21   -1    0    0  504  502  0.00000000000E+00  0.00000000000E+00  0.22304104342E+04  0.22304104342E+04  0.00000000000E+00 0.  1.
         21   -1    0    0  502  503 -0.00000000000E+00 -0.00000000000E+00 -0.10418944329E+02  0.10418944329E+02  0.00000000000E+00 0. -1.
         25    2    1    2    0    0  0.29050214079E+02  0.11586307177E+02  0.21998688207E+04  0.22036396048E+04  0.12500608897E+03 0.  0.
          5    1    3    3  501    0  0.46114345553E+02  0.51201584895E+02  0.75795668454E+03  0.76108244021E+03  0.10000000000E+00 0.  1.
         -5    1    3    3    0  501 -0.17064131474E+02 -0.39615277717E+02  0.14419121362E+04  0.14425571646E+04  0.10000000000E+00 0.  1.
         21    1    1    2  504  503 -0.29050214079E+02 -0.11586307177E+02  0.20122669157E+02  0.37189773676E+02  0.00000000000E+00 0. -1.
<mgrwt>
<rscale>  1 0.12885915E+03</rscale>
<asrwt>0</asrwt>
<pdfrwt beam="1">  1       21 0.34313969E+00 0.12885915E+03</pdfrwt>
<pdfrwt beam="2">  1       21 0.16029163E-02 0.12885915E+03</pdfrwt>
<totfact> 0.36527895E+04</totfact>
</mgrwt>
</event>
<event>
 6    1  0.4180481E-002  0.1696169E+03  0.7546771E-02  0.1178248E+00
         21   -1    0    0  504  502  0.00000000000E+00  0.00000000000E+00  0.84219880962E+02  0.84219880962E+02  0.00000000000E+00 0.  1.
         21   -1    0    0  502  503 -0.00000000000E+00 -0.00000000000E+00 -0.22290796456E+04  0.22290796456E+04  0.00000000000E+00 0. -1.
         25    2    1    2    0    0  0.11443111907E+03  0.71006052189E+01 -0.42998459917E+01  0.16967137202E+03  0.12499994481E+03 0.  0.
          5    1    3    3  501    0  0.62478021408E+02  0.57482262226E+02  0.29392980282E+02  0.89842478369E+02  0.10000000000E+00 0. -1.
         -5    1    3    3    0  501  0.51953097667E+02 -0.50381657007E+02 -0.33692826274E+02  0.79828893655E+02  0.10000000000E+00 0. -1.
         21    1    1    2  504  503 -0.11443111907E+03 -0.71006052189E+01 -0.21405599187E+04  0.21436281546E+04  0.00000000000E+00 0. -1.
<mgrwt>
<rscale>  1 0.16961688E+03</rscale>
<asrwt>0</asrwt>
<pdfrwt beam="1">  1       21 0.12956906E-01 0.16961688E+03</pdfrwt>
<pdfrwt beam="2">  1       21 0.34293530E+00 0.16961688E+03</pdfrwt>
<totfact> 0.10196303E+03</totfact>
</mgrwt>
</event>
<event>
 6    1  0.4180481E-002  0.1552757E+03  0.7546771E-02  0.1194136E+00
         21   -1    0    0  503  502  0.00000000000E+00  0.00000000000E+00  0.37569601337E+03  0.37569601337E+03  0.00000000000E+00 0.  1.
         21   -1    0    0  504  503 -0.00000000000E+00 -0.00000000000E+00 -0.23968939860E+03  0.23968939860E+03  0.00000000000E+00 0.  1.
         25    2    1    2    0    0  0.84438151705E+01  0.91722573240E+02  0.34973399257E+03  0.38265440743E+03  0.12500480595E+03 0.  0.
          5    1    3    3  501    0 -0.32525682450E+02 -0.15517772825E+02  0.49563396961E+02  0.61280189382E+02  0.10000000000E+00 0.  1.
         -5    1    3    3    0  501  0.40969497621E+02  0.10724034606E+03  0.30017059561E+03  0.32137421805E+03  0.10000000000E+00 0.  1.
         21    1    1    2  504  502 -0.84438151705E+01 -0.91722573240E+02 -0.21372737780E+03  0.23273100455E+03  0.00000000000E+00 0.  1.
<mgrwt>
<rscale>  1 0.15527566E+03</rscale>
<asrwt>0</asrwt>
<pdfrwt beam="1">  1       21 0.57799387E-01 0.15527566E+03</pdfrwt>
<pdfrwt beam="2">  1       21 0.36875292E-01 0.15527566E+03</pdfrwt>
<totfact> 0.20379180E+04</totfact>
</mgrwt>
</event>
<event>
 6    1  0.4180481E-002  0.1269543E+03  0.7546771E-02  0.1232046E+00
         21   -1    0    0  503  502  0.00000000000E+00  0.00000000000E+00  0.11743341099E+03  0.11743341099E+03  0.00000000000E+00 0.  1.
         21   -1    0    0  504  503 -0.00000000000E+00 -0.00000000000E+00 -0.87525708189E+02  0.87525708189E+02  0.00000000000E+00 0.  1.
         25    2    1    2    0    0 -0.10638931133E+02 -0.19480588149E+02  0.80076929755E+02  0.15009901070E+03  0.12499887265E+03 0.  0.
          5    1    3    3  501    0  0.81862920869E+01 -0.38236626733E+02 -0.21830078611E+02  0.44784119219E+02  0.10000000000E+00 0.  1.
         -5    1    3    3    0  501 -0.18825223220E+02  0.18756038584E+02  0.10190700837E+03  0.10531489148E+03  0.10000000000E+00 0.  1.
         21    1    1    2  504  502  0.10638931133E+02  0.19480588149E+02 -0.50169226950E+02  0.54860108486E+02  0.00000000000E+00 0.  1.
<mgrwt>
<rscale>  1 0.12695432E+03</rscale>
<asrwt>0</asrwt>
<pdfrwt beam="1">  1       21 0.18066679E-01 0.12695432E+03</pdfrwt>
<pdfrwt beam="2">  1       21 0.13465494E-01 0.12695432E+03</pdfrwt>
<totfact> 0.13273175E+06</totfact>
</mgrwt>
</event>
<event>
 6    1  0.4180481E-002  0.1265420E+03  0.7546771E-02  0.1232679E+00
         21   -1    0    0  503  502  0.00000000000E+00  0.00000000000E+00  0.12416232551E+03  0.12416232551E+03  0.00000000000E+00 0. -1.
         21   -1    0    0  504  503 -0.00000000000E+00 -0.00000000000E+00 -0.62561052731E+02  0.62561052731E+02  0.00000000000E+00 0. -1.
         25    2    1    2    0    0  0.19510142364E+02  0.55341128073E+00  0.87825427115E+02  0.15403304037E+03  0.12502767677E+03 0.  0.
          5    1    3    3  501    0  0.64978069358E+02 -0.30047263473E+02  0.53401671833E+02  0.89312575230E+02  0.10000000000E+00 0.  1.
         -5    1    3    3    0  501 -0.45467926994E+02  0.30600674753E+02  0.34423755282E+02  0.64720465142E+02  0.10000000000E+00 0.  1.
         21    1    1    2  504  502 -0.19510142364E+02 -0.55341128073E+00 -0.26224154338E+02  0.32690337867E+02  0.00000000000E+00 0. -1.
<mgrwt>
<rscale>  1 0.12654198E+03</rscale>
<asrwt>0</asrwt>
<pdfrwt beam="1">  1       21 0.19101896E-01 0.12654198E+03</pdfrwt>
<pdfrwt beam="2">  1       21 0.96247774E-02 0.12654198E+03</pdfrwt>
<totfact> 0.21669882E+06</totfact>
</mgrwt>
</event>
<event>
 6    1  0.4180481E-002  0.1343191E+03  0.7546771E-02  0.1221184E+00
         21   -1    0    0  504  502  0.00000000000E+00  0.00000000000E+00  0.11433157490E+03  0.11433157490E+03  0.00000000000E+00 0. -1.
         21   -1    0    0  502  503 -0.00000000000E+00 -0.00000000000E+00 -0.78235205399E+02  0.78235205399E+02  0.00000000000E+00 0. -1.
         25    2    1    2    0    0 -0.48926718481E+02  0.50729025801E+01  0.46777775116E+02  0.14223139962E+03  0.12498821013E+03 0.  0.
          5    1    3    3  501    0 -0.76207910025E+02  0.42660178280E+02  0.24418822619E+02  0.90685308950E+02  0.10000000000E+00 0.  1.
         -5    1    3    3    0  501  0.27281191544E+02 -0.37587275700E+02  0.22358952497E+02  0.51546090670E+02  0.10000000000E+00 0.  1.
         21    1    1    2  504  503  0.48926718481E+02 -0.50729025801E+01 -0.10681405618E+02  0.50335380676E+02  0.00000000000E+00 0. -1.
<mgrwt>
<rscale>  1 0.13431906E+03</rscale>
<asrwt>0</asrwt>
<pdfrwt beam="1">  1       21 0.17589473E-01 0.13431906E+03</pdfrwt>
<pdfrwt beam="2">  1       21 0.12036185E-01 0.13431906E+03</pdfrwt>
<totfact> 0.17040493E+06</totfact>
</mgrwt>
</event>
<event>
 6    1  0.4180481E-002  0.1272654E+03  0.7546771E-02  0.1231571E+00
         21   -1    0    0  503  502  0.00000000000E+00  0.00000000000E+00  0.11179693786E+02  0.11179693786E+02  0.00000000000E+00 0.  1.
         21   -1    0    0  504  503 -0.00000000000E+00 -0.00000000000E+00 -0.60360130241E+03  0.60360130241E+03  0.00000000000E+00 0.  1.
         25    2    1    2    0    0 -0.19088819827E+01  0.23878187528E+02 -0.37421820150E+03  0.39526667195E+03  0.12499067145E+03 0.  0.
          5    1    3    3  501    0  0.36844193415E+01  0.73262117443E+02 -0.17119760327E+03  0.18625128769E+03  0.10000000000E+00 0. -1.
         -5    1    3    3    0  501 -0.55933013242E+01 -0.49383929916E+02 -0.20302059823E+03  0.20901538426E+03  0.10000000000E+00 0. -1.
         21    1    1    2  504  502  0.19088819827E+01 -0.23878187528E+02 -0.21820340712E+03  0.21951432424E+03  0.00000000000E+00 0.  1.
<mgrwt>
<rscale>  1 0.12726539E+03</rscale>
<asrwt>0</asrwt>
<pdfrwt beam="1">  1       21 0.17199520E-02 0.12726539E+03</pdfrwt>
<pdfrwt beam="2">  1       21 0.92861786E-01 0.12726539E+03</pdfrwt>
<totfact> 0.15377151E+06</totfact>
</mgrwt>
</event>
<event>
 6    1  0.4180481E-002  0.1259873E+03  0.7546771E-02  0.1233534E+00
         21   -1    0    0  503  502  0.00000000000E+00  0.00000000000E+00  0.92818930501E+03  0.92818930501E+03  0.00000000000E+00 0.  1.
         21   -1    0    0  504  503 -0.00000000000E+00 -0.00000000000E+00 -0.89053211296E+01  0.89053211296E+01  0.00000000000E+00 0.  1.
         25    2    1    2    0    0  0.53930076840E+01 -0.14803970538E+02  0.91026043925E+03  0.91893790746E+03  0.12499827367E+03 0.  0.
          5    1    3    3  501    0  0.19219926740E+02  0.27087879604E+02  0.69580837296E+02  0.77101632435E+02  0.10000000000E+00 0. -1.
         -5    1    3    3    0  501 -0.13826919056E+02 -0.41891850141E+02  0.84067960196E+03  0.84183627502E+03  0.10000000000E+00 0. -1.
         21    1    1    2  504  502 -0.53930076840E+01  0.14803970538E+02  0.90235446236E+01  0.18156718678E+02  0.00000000000E+00 0.  1.
<mgrwt>
<rscale>  1 0.12598734E+03</rscale>
<asrwt>0</asrwt>
<pdfrwt beam="1">  1       21 0.14279828E+00 0.12598734E+03</pdfrwt>
<pdfrwt beam="2">  1       21 0.13700501E-02 0.12598734E+03</pdfrwt>
<totfact> 0.78131118E+05</totfact>
</mgrwt>
</event>
<event>
 6    1  0.4180481E-002  0.1864423E+03  0.7546771E-02  0.1161710E+00
         21   -1    0    0  504  502  0.00000000000E+00  0.00000000000E+00  0.80244023774E+03  0.80244023774E+03  0.00000000000E+00 0.  1.
         21   -1    0    0  502  503 -0.00000000000E+00 -0.00000000000E+00 -0.69096059128E+02  0.69096059128E+02  0.00000000000E+00 0.  1.
         25    2    1    2    0    0 -0.45262892300E+02  0.13071739667E+03  0.70641881286E+03  0.73060815017E+03  0.12499985088E+03 0.  0.
          5    1    3    3  501    0 -0.79212419458E+02  0.41439192582E+02  0.38839142527E+03  0.39854701517E+03  0.10000000000E+00 0.  1.
         -5    1    3    3    0  501  0.33949527157E+02  0.89278204088E+02  0.31802738759E+03  0.33206113500E+03  0.10000000000E+00 0.  1.
         21    1    1    2  504  503  0.45262892300E+02 -0.13071739667E+03  0.26925365756E+02  0.14092814670E+03  0.00000000000E+00 0.  1.
<mgrwt>
<rscale>  1 0.18644230E+03</rscale>
<asrwt>0</asrwt>
<pdfrwt beam="1">  1       21 0.12345234E+00 0.18644230E+03</pdfrwt>
<pdfrwt beam="2">  1       21 0.10630164E-01 0.18644230E+03</pdfrwt>
<totfact> 0.35963225E+04</totfact>
</mgrwt>
</event>
<event>
 6    1  0.4180481E-002  0.1267491E+03  0.7546771E-02  0.1232361E+00
         21   -1    0    0  503  502  0.00000000000E+00  0.00000000000E+00  0.59245159836E+01  0.59245159836E+01  0.00000000000E+00 0. -1.
         21   -1    0    0  504  503 -0.00000000000E+00 -0.00000000000E+00 -0.10217755483E+04  0.10217755483E+04  0.00000000000E+00 0. -1.
         25    2    1    2    0    0  0.67222320576E+01 -0.19911658148E+02 -0.71746672787E+03  0.72857658531E+03  0.12499468999E+03 0.  0.
          5    1    3    3  501    0  0.33022392288E+02  0.17000677251E+02 -0.67602028367E+02  0.77133297990E+02  0.10000000000E+00 0.  1.
         -5    1    3    3    0  501 -0.26300160231E+02 -0.36912335400E+02 -0.64986469951E+03  0.65144328732E+03  0.10000000000E+00 0.  1.
         21    1    1    2  504  502 -0.67222320576E+01  0.19911658148E+02 -0.29838430445E+03  0.29912347898E+03  0.00000000000E+00 0. -1.
<mgrwt>
<rscale>  1 0.12674910E+03</rscale>
<asrwt>0</asrwt>
<pdfrwt beam="1">  1       21 0.91146284E-03 0.12674910E+03</pdfrwt>
<pdfrwt beam="2">  1       21 0.15719644E+00 0.12674910E+03</pdfrwt>
<totfact> 0.11602826E+06</totfact>
</mgrwt>
</event>
<event>
 6    1  0.4180481E-002  0.1406990E+03  0.7546771E-02  0.1212391E+00
         21   -1    0    0  503  502  0.00000000000E+00  0.00000000000E+00  0.23861753306E+03  0.23861753306E+03  0.00000000000E+00 0. -1.
         21   -1    0    0  504  503 -0.00000000000E+00 -0.00000000000E+00 -0.44163799773E+02  0.44163799773E+02  0.00000000000E+00 0. -1.
         25    2    1    2    0    0 -0.61731701083E+02 -0.18927778344E+02  0.13053042616E+03  0.19192291052E+03  0.12500859057E+03 0.  0.
          5    1    3    3  501    0 -0.86128991508E+02  0.25648438694E+02  0.84768748394E+02  0.12353864290E+03  0.10000000000E+00 0. -1.
         -5    1    3    3    0  501  0.24397290425E+02 -0.44576217038E+02  0.45761677762E+02  0.68384267615E+02  0.10000000000E+00 0. -1.
         21    1    1    2  504  502  0.61731701083E+02  0.18927778344E+02  0.63923307134E+02  0.90858422321E+02  0.00000000000E+00 0. -1.
<mgrwt>
<rscale>  1 0.14069901E+03</rscale>
<asrwt>0</asrwt>
<pdfrwt beam="1">  1       21 0.36710389E-01 0.14069901E+03</pdfrwt>
<pdfrwt beam="2">  1       21 0.67944309E-02 0.14069901E+03</pdfrwt>
<totfact> 0.11408062E+06</totfact>
</mgrwt>
</event>
<event>
 6    1  0.4180481E-002  0.1483003E+03  0.7546771E-02  0.1202577E+00
         21   -1    0    0  503  502  0.00000000000E+00  0.00000000000E+00  0.29205084102E+02  0.29205084102E+02  0.00000000000E+00 0.  1.
         21   -1    0    0  504  503 -0.00000000000E+00 -0.00000000000E+00 -0.46377271397E+03  0.46377271397E+03  0.00000000000E+00 0.  1.
         25    2    1    2    0    0  0.54516967558E+01  0.79614681116E+02 -0.32685222439E+03  0.35892248477E+03  0.12499902015E+03 0.  0.
          5    1    3    3  501    0 -0.71060928514E+01  0.59802037124E+02 -0.42750200947E+02  0.73853705938E+02  0.10000000000E+00 0.  1.
         -5    1    3    3    0  501  0.12557789607E+02  0.19812643993E+02 -0.28410202344E+03  0.28506877883E+03  0.10000000000E+00 0.  1.
         21    1    1    2  504  502 -0.54516967558E+01 -0.79614681116E+02 -0.10771540549E+03  0.13405531331E+03  0.00000000000E+00 0.  1.
<mgrwt>
<rscale>  1 0.14830028E+03</rscale>
<asrwt>0</asrwt>
<pdfrwt beam="1">  1       21 0.44930903E-02 0.14830028E+03</pdfrwt>
<pdfrwt beam="2">  1       21 0.71349641E-01 0.14830028E+03</pdfrwt>
<totfact> 0.57637536E+05</totfact>
</mgrwt>
</event>
<event>
 6    1  0.4180481E-002  0.1265219E+03  0.7546771E-02  0.1232710E+00
         21   -1    0    0  504  502  0.00000000000E+00  0.00000000000E+00  0.40058635146E+03  0.40058635146E+03  0.00000000000E+00 0.  1.
         21   -1    0    0  502  503 -0.00000000000E+00 -0.00000000000E+00 -0.14211104462E+02  0.14211104462E+02  0.00000000000E+00 0.  1.
         25    2    1    2    0    0 -0.16446984578E+02 -0.10513207200E+02  0.36257545735E+03  0.38401660449E+03  0.12500703751E+03 0.  0.
          5    1    3    3  501    0  0.32214397671E+02 -0.35659226456E+02  0.61754137239E+02  0.78249161752E+02  0.10000000000E+00 0.  1.
         -5    1    3    3    0  501 -0.48661382250E+02  0.25146019255E+02  0.30082132011E+03  0.30576744274E+03  0.10000000000E+00 0.  1.
         21    1    1    2  504  503  0.16446984578E+02  0.10513207200E+02  0.23799789647E+02  0.30780851427E+02  0.00000000000E+00 0.  1.
<mgrwt>
<rscale>  1 0.12652190E+03</rscale>
<asrwt>0</asrwt>
<pdfrwt beam="1">  1       21 0.61628661E-01 0.12652190E+03</pdfrwt>
<pdfrwt beam="2">  1       21 0.21863241E-02 0.12652190E+03</pdfrwt>
<totfact> 0.25870719E+06</totfact>
</mgrwt>
</event>
<event>
 6    1  0.4180481E-002  0.1357118E+03  0.7546771E-02  0.1219218E+00
         21   -1    0    0  504  502  0.00000000000E+00  0.00000000000E+00  0.33037943950E+03  0.33037943950E+03  0.00000000000E+00 0. -1.
         21   -1    0    0  502  503 -0.00000000000E+00 -0.00000000000E+00 -0.35841709218E+02  0.35841709218E+02  0.00000000000E+00 0. -1.
         25    2    1    2    0    0  0.32444820253E+02 -0.41723041159E+02  0.28039096216E+03  0.31150726042E+03  0.12499681239E+03 0.  0.
          5    1    3    3  501    0  0.67822708747E+02  0.61144838607E+01  0.20149516103E+03  0.21269136478E+03  0.10000000000E+00 0.  1.
         -5    1    3    3    0  501 -0.35377888494E+02 -0.47837525020E+02  0.78895801131E+02  0.98815895637E+02  0.10000000000E+00 0.  1.
         21    1    1    2  504  503 -0.32444820253E+02  0.41723041159E+02  0.14146768126E+02  0.54713888303E+02  0.00000000000E+00 0. -1.
<mgrwt>
<rscale>  1 0.13571176E+03</rscale>
<asrwt>0</asrwt>
<pdfrwt beam="1">  1       21 0.50827604E-01 0.13571176E+03</pdfrwt>
<pdfrwt beam="2">  1       21 0.55141093E-02 0.13571176E+03</pdfrwt>
<totfact> 0.84190036E+05</totfact>
</mgrwt>
</event>
<event>
 6    1  0.4180481E-002  0.1381085E+03  0.7546771E-02  0.1215897E+00
         21   -1    0    0  504  502  0.00000000000E+00  0.00000000000E+00  0.42032349690E+03  0.42032349690E+03  0.00000000000E+00 0. -1.
         21   -1    0    0  502  503 -0.00000000000E+00 -0.00000000000E+00 -0.65443907782E+03  0.65443907782E+03  0.00000000000E+00 0. -1.
         25    2    1    2    0    0 -0.28720037435E+02  0.51225651803E+02  0.40760155316E+03  0.43036379437E+03  0.12500024565E+03 0.  0.
          5    1    3    3  501    0  0.30262816051E+02  0.10049423199E+02  0.23570028605E+02  0.39653312477E+02  0.10000000000E+00 0. -1.
         -5    1    3    3    0  501 -0.58982853486E+02  0.41176228604E+02  0.38403152455E+03  0.39071048189E+03  0.10000000000E+00 0. -1.
         21    1    1    2  504  503  0.28720037435E+02 -0.51225651803E+02 -0.64171713407E+03  0.64439878035E+03  0.00000000000E+00 0. -1.
<mgrwt>
<rscale>  1 0.13810854E+03</rscale>
<asrwt>0</asrwt>
<pdfrwt beam="1">  1       21 0.64665154E-01 0.13810854E+03</pdfrwt>
<pdfrwt beam="2">  1       21 0.10068293E+00 0.13810854E+03</pdfrwt>
<totfact> 0.18843479E+03</totfact>
</mgrwt>
</event>
<event>
 6    1  0.4180481E-002  0.1276900E+03  0.7546771E-02  0.1230924E+00
         21   -1    0    0  504  502  0.00000000000E+00  0.00000000000E+00  0.31985597620E+03  0.31985597620E+03  0.00000000000E+00 0.  1.
         21   -1    0    0  502  503 -0.00000000000E+00 -0.00000000000E+00 -0.22261834012E+02  0.22261834012E+02  0.00000000000E+00 0.  1.
         25    2    1    2    0    0 -0.24370551720E+02 -0.93992754283E+01  0.28663746836E+03  0.31379257639E+03  0.12498988983E+03 0.  0.
          5    1    3    3  501    0  0.15467102705E+02 -0.15265103724E+02 -0.24906213891E+01  0.21873908035E+02  0.10000000000E+00 0. -1.
         -5    1    3    3    0  501 -0.39837654425E+02  0.58658282957E+01  0.28912808975E+03  0.29191866835E+03  0.10000000000E+00 0. -1.
         21    1    1    2  504  503  0.24370551720E+02  0.93992754283E+01  0.10956673826E+02  0.28325233822E+02  0.00000000000E+00 0.  1.
<mgrwt>
<rscale>  1 0.12769003E+03</rscale>
<asrwt>0</asrwt>
<pdfrwt beam="1">  1       21 0.49208608E-01 0.12769003E+03</pdfrwt>
<pdfrwt beam="2">  1       21 0.34248978E-02 0.12769003E+03</pdfrwt>
<totfact> 0.19914052E+06</totfact>
</mgrwt>
</event>
<event>
 6    1  0.4180481E-002  0.1278949E+03  0.7546771E-02  0.1230613E+00
         21   -1    0    0  503  502  0.00000000000E+00  0.00000000000E+00  0.11651796366E+03  0.11651796366E+03  0.00000000000E+00 0.  1.
         21   -1    0    0  504  503 -0.00000000000E+00 -0.00000000000E+00 -0.65455097266E+02  0.65455097266E+02  0.00000000000E+00 0.  1.
         25    2    1    2    0    0 -0.18824153327E+02  0.19393843037E+02  0.72912371090E+02  0.14721862593E+03  0.12500656010E+03 0.  0.
          5    1    3    3  501    0 -0.66116395866E+02 -0.14422047408E+02  0.52330545944E+02  0.85544545662E+02  0.10000000000E+00 0. -1.
         -5    1    3    3    0  501  0.47292242539E+02  0.33815890445E+02  0.20581825146E+02  0.61674080272E+02  0.10000000000E+00 0. -1.
         21    1    1    2  504  502  0.18824153327E+02 -0.19393843037E+02 -0.21849504695E+02  0.34754434993E+02  0.00000000000E+00 0.  1.
<mgrwt>
<rscale>  1 0.12789492E+03</rscale>
<asrwt>0</asrwt>
<pdfrwt beam="1">  1       21 0.17925841E-01 0.12789492E+03</pdfrwt>
<pdfrwt beam="2">  1       21 0.10070015E-01 0.12789492E+03</pdfrwt>
<totfact> 0.22507056E+06</totfact>
</mgrwt>
</event>
<event>
 6    1  0.4180481E-002  0.1262653E+03  0.7546771E-02  0.1233105E+00
         21   -1    0    0  504  502  0.00000000000E+00  0.00000000000E+00  0.90208721908E+02  0.90208721908E+02  0.00000000000E+00 0.  1.
         21   -1    0    0  502  503 -0.00000000000E+00 -0.00000000000E+00 -0.70520306521E+02  0.70520306521E+02  0.00000000000E+00 0.  1.
         25    2    1    2    0    0 -0.17370113247E+02 -0.40323198505E+01  0.41172619684E+02  0.13280857944E+03  0.12499981489E+03 0.  0.
          5    1    3    3  501    0  0.94794234838E+01 -0.58865635881E+02  0.83004694959E+00  0.59629871165E+02  0.10000000000E+00 0. -1.
         -5    1    3    3    0  501 -0.26849536731E+02  0.54833316030E+02  0.40342572735E+02  0.73178708272E+02  0.10000000000E+00 0. -1.
         21    1    1    2  504  503  0.17370113247E+02  0.40323198505E+01 -0.21484204297E+02  0.27920448992E+02  0.00000000000E+00 0.  1.
<mgrwt>
<rscale>  1 0.12626533E+03</rscale>
<asrwt>0</asrwt>
<pdfrwt beam="1">  1       21 0.13878265E-01 0.12626533E+03</pdfrwt>
<pdfrwt beam="2">  1       21 0.10849278E-01 0.12626533E+03</pdfrwt>
<totfact> 0.31366546E+06</totfact>
</mgrwt>
</event>
<event>
 6    1  0.4180481E-002  0.1282783E+03  0.7546771E-02  0.1230033E+00
         21   -1    0    0  503  502  0.00000000000E+00  0.00000000000E+00  0.33275724897E+01  0.33275724897E+01  0.00000000000E+00 0.  1.
         21   -1    0    0  504  503 -0.00000000000E+00 -0.00000000000E+00 -0.18624655142E+04  0.18624655142E+04  0.00000000000E+00 0.  1.
         25    2    1    2    0    0  0.26917712779E+02 -0.10254704217E+02 -0.14662781903E+04  0.14718787477E+04  0.12500237688E+03 0.  0.
          5    1    3    3  501    0  0.70150156472E+02 -0.27354014882E+02 -0.11146829627E+04  0.11172230771E+04  0.10000000000E+00 0. -1.
         -5    1    3    3    0  501 -0.43232443693E+02  0.17099310665E+02 -0.35159522757E+03  0.35465567056E+03  0.10000000000E+00 0. -1.
         21    1    1    2  504  502 -0.26917712779E+02  0.10254704217E+02 -0.39285975143E+03  0.39391433905E+03  0.00000000000E+00 0.  1.
<mgrwt>
<rscale>  1 0.12827828E+03</rscale>
<asrwt>0</asrwt>
<pdfrwt beam="1">  1       21 0.51193541E-03 0.12827828E+03</pdfrwt>
<pdfrwt beam="2">  1       21 0.28653250E+00 0.12827828E+03</pdfrwt>
<totfact> 0.45890672E+05</totfact>
</mgrwt>
</event>
<event>
 6    1  0.4180481E-002  0.1284466E+03  0.7546771E-02  0.1229779E+00
         21   -1    0    0  503  502  0.00000000000E+00  0.00000000000E+00  0.56536682513E+03  0.56536682513E+03  0.00000000000E+00 0. -1.
         21   -1    0    0  504  503 -0.00000000000E+00 -0.00000000000E+00 -0.59993067039E+02  0.59993067039E+02  0.00000000000E+00 0.  1.
         25    2    1    2    0    0  0.27006341754E+02 -0.12016937571E+02  0.55386803205E+03  0.56856690060E+03  0.12499909703E+03 0.  0.
          5    1    3    3  501    0  0.68074622603E+02 -0.36285696737E+02  0.27355266678E+03  0.28422152898E+03  0.10000000000E+00 0. -1.
         -5    1    3    3    0  501 -0.41068280849E+02  0.24268759167E+02  0.28031536526E+03  0.28434537163E+03  0.10000000000E+00 0. -1.
         21    1    1    2  504  502 -0.27006341754E+02  0.12016937571E+02 -0.48494273959E+02  0.56792991560E+02  0.00000000000E+00 0.  1.
<mgrwt>
<rscale>  1 0.12844658E+03</rscale>
<asrwt>0</asrwt>
<pdfrwt beam="1">  1       21 0.86979508E-01 0.12844658E+03</pdfrwt>
<pdfrwt beam="2">  1       21 0.92297030E-02 0.12844658E+03</pdfrwt>
<totfact> 0.10898090E+05</totfact>
</mgrwt>
</event>
<event>
 6    1  0.4180481E-002  0.1500012E+03  0.7546771E-02  0.1200472E+00
         21   -1    0    0  503  502  0.00000000000E+00  0.00000000000E+00  0.13121280224E+02  0.13121280224E+02  0.00000000000E+00 0.  1.
         21   -1    0    0  504  503 -0.00000000000E+00 -0.00000000000E+00 -0.22457465060E+04  0.22457465060E+04  0.00000000000E+00 0.  1.
         25    2    1    2    0    0 -0.82304032743E+02  0.10457322857E+02 -0.45057987572E+03  0.47489218688E+03  0.12496821735E+03 0.  0.
          5    1    3    3  501    0 -0.78588711926E+02 -0.27163806275E+02 -0.14634832109E+03  0.16832082194E+03  0.10000000000E+00 0. -1.
         -5    1    3    3    0  501 -0.37153208164E+01  0.37621129132E+02 -0.30423155463E+03  0.30657136493E+03  0.10000000000E+00 0. -1.
         21    1    1    2  504  502  0.82304032743E+02 -0.10457322857E+02 -0.17820453501E+04  0.17839755994E+04  0.00000000000E+00 0.  1.
<mgrwt>
<rscale>  1 0.15000122E+03</rscale>
<asrwt>0</asrwt>
<pdfrwt beam="1">  1       21 0.20186597E-02 0.15000122E+03</pdfrwt>
<pdfrwt beam="2">  1       21 0.34549925E+00 0.15000122E+03</pdfrwt>
<totfact> 0.23723614E+04</totfact>
</mgrwt>
</event>
<event>
 6    1  0.4180481E-002  0.1410468E+03  0.7546771E-02  0.1211927E+00
         21   -1    0    0  504  502  0.00000000000E+00  0.00000000000E+00  0.64651483626E+02  0.64651483626E+02  0.00000000000E+00 0. -1.
         21   -1    0    0  502  503 -0.00000000000E+00 -0.00000000000E+00 -0.23692151082E+03  0.23692151082E+03  0.00000000000E+00 0. -1.
         25    2    1    2    0    0 -0.13931004839E+02  0.63820677638E+02 -0.28835889855E+02  0.14396429055E+03  0.12500822621E+03 0.  0.
          5    1    3    3  501    0 -0.39083307226E+02  0.56133088981E+02  0.33606277418E+02  0.76209057625E+02  0.10000000000E+00 0. -1.
         -5    1    3    3    0  501  0.25152302388E+02  0.76875886571E+01 -0.62442167273E+02  0.67755232923E+02  0.10000000000E+00 0. -1.
         21    1    1    2  504  503  0.13931004839E+02 -0.63820677638E+02 -0.14343413734E+03  0.15760870390E+03  0.00000000000E+00 0. -1.
<mgrwt>
<rscale>  1 0.14104683E+03</rscale>
<asrwt>0</asrwt>
<pdfrwt beam="1">  1       21 0.99463821E-02 0.14104683E+03</pdfrwt>
<pdfrwt beam="2">  1       21 0.36449463E-01 0.14104683E+03</pdfrwt>
<totfact> 0.59813935E+05</totfact>
</mgrwt>
</event>
<event>
 6    1  0.4180481E-002  0.1265364E+03  0.7546771E-02  0.1232687E+00
         21   -1    0    0  503  502  0.00000000000E+00  0.00000000000E+00  0.94768564582E+02  0.94768564582E+02  0.00000000000E+00 0.  1.
         21   -1    0    0  504  503 -0.00000000000E+00 -0.00000000000E+00 -0.16308007111E+03  0.16308007111E+03  0.00000000000E+00 0.  1.
         25    2    1    2    0    0  0.10554809433E+01 -0.19495864045E+02  0.51383746924E+02  0.13657144718E+03  0.12502107015E+03 0.  0.
          5    1    3    3  501    0  0.37964277312E+02 -0.58191245312E+02  0.44850090896E+02  0.82698537086E+02  0.10000000000E+00 0.  1.
         -5    1    3    3    0  501 -0.36908796369E+02  0.38695381267E+02  0.65336560279E+01  0.53872910093E+02  0.10000000000E+00 0.  1.
         21    1    1    2  504  502 -0.10554809433E+01  0.19495864045E+02 -0.11969525345E+03  0.12127718851E+03  0.00000000000E+00 0.  1.
<mgrwt>
<rscale>  1 0.12653644E+03</rscale>
<asrwt>0</asrwt>
<pdfrwt beam="1">  1       21 0.14579779E-01 0.12653644E+03</pdfrwt>
<pdfrwt beam="2">  1       21 0.25089241E-01 0.12653644E+03</pdfrwt>
<totfact> 0.62505739E+05</totfact>
</mgrwt>
</event>
<event>
 6    1  0.4180481E-002  0.1262936E+03  0.7546771E-02  0.1233061E+00
         21   -1    0    0  504  502  0.00000000000E+00  0.00000000000E+00  0.20332027314E+03  0.20332027314E+03  0.00000000000E+00 0.  1.
         21   -1    0    0  502  503 -0.00000000000E+00 -0.00000000000E+00 -0.93875858088E+03  0.93875858088E+03  0.00000000000E+00 0.  1.
         25    2    1    2    0    0 -0.18060847707E+02 -0.11291925744E+01  0.18361058740E+03  0.22285181952E+03  0.12499046508E+03 0.  0.
          5    1    3    3  501    0 -0.28473764363E+02 -0.29285257374E+02  0.43295397045E+01  0.41074766835E+02  0.10000000000E+00 0. -1.
         -5    1    3    3    0  501  0.10412916656E+02  0.28156064800E+02  0.17928104770E+03  0.18177705268E+03  0.10000000000E+00 0. -1.
         21    1    1    2  504  503  0.18060847707E+02  0.11291925744E+01 -0.91904889514E+03  0.91922703450E+03  0.00000000000E+00 0.  1.
<mgrwt>
<rscale>  1 0.12629365E+03</rscale>
<asrwt>0</asrwt>
<pdfrwt beam="1">  1       21 0.31280042E-01 0.12629365E+03</pdfrwt>
<pdfrwt beam="2">  1       21 0.14442440E+00 0.12629365E+03</pdfrwt>
<totfact> 0.34696809E+03</totfact>
</mgrwt>
</event>
<event>
 6    1  0.4180481E-002  0.1440900E+03  0.7546771E-02  0.1207929E+00
         21   -1    0    0  504  502  0.00000000000E+00  0.00000000000E+00  0.83676492664E+02  0.83676492664E+02  0.00000000000E+00 0.  1.
         21   -1    0    0  502  503 -0.00000000000E+00 -0.00000000000E+00 -0.21725098482E+03  0.21725098482E+03  0.00000000000E+00 0. -1.
         25    2    1    2    0    0 -0.40336587189E+02 -0.59257302558E+02  0.57920698644E+01  0.14420636601E+03  0.12499383885E+03 0.  0.
          5    1    3    3  501    0  0.12144784714E+02  0.94754620903E+01 -0.42466552682E+02  0.45174088528E+02  0.10000000000E+00 0. -1.
         -5    1    3    3    0  501 -0.52481371904E+02 -0.68732764648E+02  0.48258622547E+02  0.99032277481E+02  0.10000000000E+00 0. -1.
         21    1    1    2  504  503  0.40336587189E+02  0.59257302558E+02 -0.13936656202E+03  0.15672111147E+03  0.00000000000E+00 0. -1.
<mgrwt>
<rscale>  1 0.14409000E+03</rscale>
<asrwt>0</asrwt>
<pdfrwt beam="1">  1       21 0.12873307E-01 0.14409000E+03</pdfrwt>
<pdfrwt beam="2">  1       21 0.33423228E-01 0.14409000E+03</pdfrwt>
<totfact> 0.44942912E+05</totfact>
</mgrwt>
</event>
<event>
 6    1  0.4180481E-002  0.1282066E+03  0.7546771E-02  0.1230141E+00
         21   -1    0    0  504  502  0.00000000000E+00  0.00000000000E+00  0.48799001520E+02  0.48799001520E+02  0.00000000000E+00 0. -1.
         21   -1    0    0  502  503 -0.00000000000E+00 -0.00000000000E+00 -0.14625877722E+03  0.14625877722E+03  0.00000000000E+00 0. -1.
         25    2    1    2    0    0 -0.15485116369E+02  0.23898036714E+02 -0.45934478391E+02  0.13618706233E+03  0.12500413854E+03 0.  0.
          5    1    3    3  501    0 -0.24985022590E+02 -0.48719887580E+02 -0.15743725852E+02  0.56971516597E+02  0.10000000000E+00 0. -1.
         -5    1    3    3    0  501  0.94999062209E+01  0.72617924294E+02 -0.30190752539E+02  0.79215545733E+02  0.10000000000E+00 0. -1.
         21    1    1    2  504  503  0.15485116369E+02 -0.23898036714E+02 -0.51525297308E+02  0.58870716408E+02  0.00000000000E+00 0. -1.
<mgrwt>
<rscale>  1 0.12820663E+03</rscale>
<asrwt>0</asrwt>
<pdfrwt beam="1">  1       21 0.75075385E-02 0.12820663E+03</pdfrwt>
<pdfrwt beam="2">  1       21 0.22501351E-01 0.12820663E+03</pdfrwt>
<totfact> 0.24592002E+06</totfact>
</mgrwt>
</event>
<event>
 6    1  0.4180481E-002  0.1279240E+03  0.7546771E-02  0.1230569E+00
         21   -1    0    0  504  502  0.00000000000E+00  0.00000000000E+00  0.90892156193E+02  0.90892156193E+02  0.00000000000E+00 0. -1.
         21   -1    0    0  502  503 -0.00000000000E+00 -0.00000000000E+00 -0.10890035335E+03  0.10890035335E+03  0.00000000000E+00 0. -1.
         25    2    1    2    0    0 -0.69190152511E+01  0.26304892343E+02  0.41397862338E+02  0.13445568962E+03  0.12499891732E+03 0.  0.
          5    1    3    3  501    0 -0.58534234510E+02  0.22724592554E+02  0.52135807193E+02  0.81613823021E+02  0.10000000000E+00 0.  1.
         -5    1    3    3    0  501  0.51615219259E+02  0.35802997891E+01 -0.10737944855E+02  0.52841866597E+02  0.10000000000E+00 0.  1.
         21    1    1    2  504  503  0.69190152511E+01 -0.26304892343E+02 -0.59406059499E+02  0.65336819929E+02  0.00000000000E+00 0. -1.
<mgrwt>
<rscale>  1 0.12792400E+03</rscale>
<asrwt>0</asrwt>
<pdfrwt beam="1">  1       21 0.13983409E-01 0.12792400E+03</pdfrwt>
<pdfrwt beam="2">  1       21 0.16753900E-01 0.12792400E+03</pdfrwt>
<totfact> 0.14238898E+06</totfact>
</mgrwt>
</event>
