<event>
 6    1  0.4187588E-002  0.1262088E+03  0.7546771E-02  0.1233192E+00
         21   -1    0    0  503  502  0.00000000000E+00  0.00000000000E+00  0.45599584206E+01  0.45599584206E+01  0.00000000000E+00 0.  1.
         21   -1    0    0  504  503 -0.00000000000E+00 -0.00000000000E+00 -0.11522354999E+04  0.11522354999E+04  0.00000000000E+00 0.  1.
         25    2    1    2    0    0  0.10544427245E+02 -0.13875665936E+02 -0.10522228810E+04  0.10597648990E+04  0.12499972313E+03 0.  0.
          5    1    3    3  501    0  0.58453788300E+02 -0.20811372822E+02 -0.83071368975E+03  0.83302773239E+03  0.10000000000E+00 0. -1.
         -5    1    3    3    0  501 -0.47909361056E+02  0.69357068856E+01 -0.22150919130E+03  0.22673716665E+03  0.10000000000E+00 0. -1.
         21    1    1    2  504  502 -0.10544427245E+02  0.13875665936E+02 -0.95452660384E+02  0.97030559235E+02  0.00000000000E+00 0.  1.
<mgrwt>
<rscale>  1 0.12620875E+03</rscale>
<asrwt>0</asrwt>
<pdfrwt beam="1">  1       21 0.70153082E-03 0.12620875E+03</pdfrwt>
<pdfrwt beam="2">  1       21 0.17726731E+00 0.12620875E+03</pdfrwt>
<totfact> 0.12655527E+06</totfact>
</mgrwt>
</event>
<event>
 6    1  0.4187588E-002  0.1267964E+03  0.7546771E-02  0.1232288E+00
         21   -1    0    0  503  502  0.00000000000E+00  0.00000000000E+00  0.13583981686E+04  0.13583981686E+04  0.00000000000E+00 0.  1.
         21   -1    0    0  504  503 -0.00000000000E+00 -0.00000000000E+00 -0.32326242740E+02  0.32326242740E+02  0.00000000000E+00 0.  1.
         25    2    1    2    0    0  0.89721450311E+01  0.19366315441E+02  0.92458699588E+02  0.15692655691E+03  0.12498711763E+03 0.  0.
          5    1    3    3  501    0  0.11315765922E+02 -0.14975973884E+02  0.11451559323E+03  0.11604377383E+03  0.10000000000E+00 0.  1.
         -5    1    3    3    0  501 -0.23436208909E+01  0.34342289325E+02 -0.22056893644E+02  0.40882783078E+02  0.10000000000E+00 0.  1.
         21    1    1    2  504  502 -0.89721450311E+01 -0.19366315441E+02  0.12336132263E+04  0.12337978545E+04  0.00000000000E+00 0.  1.
<mgrwt>
<rscale>  1 0.12679642E+03</rscale>
<asrwt>0</asrwt>
<pdfrwt beam="1">  1       21 0.20898429E+00 0.12679642E+03</pdfrwt>
<pdfrwt beam="2">  1       21 0.49732692E-02 0.12679642E+03</pdfrwt>
<totfact> 0.33707562E+04</totfact>
</mgrwt>
</event>
<event>
 6    1  0.4187588E-002  0.1281131E+03  0.7546771E-02  0.1230283E+00
         21   -1    0    0  503  502  0.00000000000E+00  0.00000000000E+00  0.12643124634E+02  0.12643124634E+02  0.00000000000E+00 0.  1.
         21   -1    0    0  504  503 -0.00000000000E+00 -0.00000000000E+00 -0.16968604075E+04  0.16968604075E+04  0.00000000000E+00 0.  1.
         25    2    1    2    0    0 -0.71771679698E+01 -0.27165885965E+02 -0.16750584207E+04  0.16799504975E+04  0.12499385605E+03 0.  0.
          5    1    3    3  501    0  0.56675696177E+02 -0.50765666895E+01 -0.57156411366E+03  0.57438963438E+03  0.10000000000E+00 0.  1.
         -5    1    3    3    0  501 -0.63852864147E+02 -0.22089319276E+02 -0.11034943071E+04  0.11055608631E+04  0.10000000000E+00 0.  1.
         21    1    1    2  504  502  0.71771679698E+01  0.27165885965E+02 -0.91588621159E+01  0.29553034626E+02  0.00000000000E+00 0.  1.
<mgrwt>
<rscale>  1 0.12811308E+03</rscale>
<asrwt>0</asrwt>
<pdfrwt beam="1">  1       21 0.19450960E-02 0.12811308E+03</pdfrwt>
<pdfrwt beam="2">  1       21 0.26105547E+00 0.12811308E+03</pdfrwt>
<totfact> 0.77909755E+04</totfact>
</mgrwt>
</event>
<event>
 6    1  0.4187588E-002  0.1260410E+03  0.7546771E-02  0.1233451E+00
         21   -1    0    0  504  502  0.00000000000E+00  0.00000000000E+00  0.12785179591E+03  0.12785179591E+03  0.00000000000E+00 0. -1.
         21   -1    0    0  502  503 -0.00000000000E+00 -0.00000000000E+00 -0.36526476955E+03  0.36526476955E+03  0.00000000000E+00 0. -1.
         25    2    1    2    0    0  0.11398157070E+02  0.11401346028E+02 -0.35381951170E+03  0.37559894646E+03  0.12500565205E+03 0.  0.
          5    1    3    3  501    0 -0.14685554749E+02  0.59575898194E+02 -0.25826969094E+03  0.26545846459E+03  0.10000000000E+00 0. -1.
         -5    1    3    3    0  501  0.26083711819E+02 -0.48174552166E+02 -0.95549820763E+02  0.11014048187E+03  0.10000000000E+00 0. -1.
         21    1    1    2  504  503 -0.11398157070E+02 -0.11401346028E+02  0.11640653805E+03  0.11751761901E+03  0.00000000000E+00 0. -1.
<mgrwt>
<rscale>  1 0.12604095E+03</rscale>
<asrwt>0</asrwt>
<pdfrwt beam="1">  1       21 0.19669508E-01 0.12604095E+03</pdfrwt>
<pdfrwt beam="2">  1       21 0.56194578E-01 0.12604095E+03</pdfrwt>
<totfact> 0.73095817E+04</totfact>
</mgrwt>
</event>
<event>
 6    1  0.4187588E-002  0.1270030E+03  0.7546771E-02  0.1231972E+00
         21   -1    0    0  504  502  0.00000000000E+00  0.00000000000E+00  0.40533204048E+02  0.40533204048E+02  0.00000000000E+00 0.  1.
         21   -1    0    0  502  503 -0.00000000000E+00 -0.00000000000E+00 -0.22551792685E+03  0.22551792685E+03  0.00000000000E+00 0.  1.
         25    2    1    2    0    0 -0.16693099837E+02  0.14887443509E+02 -0.20154340578E+03  0.23822155062E+03  0.12501786756E+03 0.  0.
          5    1    3    3  501    0 -0.44702487903E+02 -0.12788776253E+02 -0.16972192746E+02  0.49496773121E+02  0.10000000000E+00 0. -1.
         -5    1    3    3    0  501  0.28009388066E+02  0.27676219762E+02 -0.18457121303E+03  0.18872477749E+03  0.10000000000E+00 0. -1.
         21    1    1    2  504  503  0.16693099837E+02 -0.14887443509E+02  0.16558682980E+02  0.27829580278E+02  0.00000000000E+00 0.  1.
<mgrwt>
<rscale>  1 0.12700300E+03</rscale>
<asrwt>0</asrwt>
<pdfrwt beam="1">  1       21 0.62358773E-02 0.12700300E+03</pdfrwt>
<pdfrwt beam="2">  1       21 0.34695067E-01 0.12700300E+03</pdfrwt>
<totfact> 0.14740231E+06</totfact>
</mgrwt>
</event>
<event>
 6    1  0.4187588E-002  0.1272506E+03  0.7546771E-02  0.1231593E+00
         21   -1    0    0  503  502  0.00000000000E+00  0.00000000000E+00  0.11970368266E+03  0.11970368266E+03  0.00000000000E+00 0. -1.
         21   -1    0    0  504  503 -0.00000000000E+00 -0.00000000000E+00 -0.50012202262E+02  0.50012202262E+02  0.00000000000E+00 0. -1.
         25    2    1    2    0    0  0.14981263937E+02  0.18490399452E+02  0.43869641993E+02  0.13460035446E+03  0.12500550704E+03 0.  0.
          5    1    3    3  501    0 -0.53656265699E+02  0.14855745501E+02  0.33803183212E+02  0.65133349511E+02  0.10000000000E+00 0. -1.
         -5    1    3    3    0  501  0.68637529637E+02  0.36346539502E+01  0.10066458781E+02  0.69467004948E+02  0.10000000000E+00 0. -1.
         21    1    1    2  504  502 -0.14981263937E+02 -0.18490399452E+02  0.25821838401E+02  0.35115530460E+02  0.00000000000E+00 0. -1.
<mgrwt>
<rscale>  1 0.12725058E+03</rscale>
<asrwt>0</asrwt>
<pdfrwt beam="1">  1       21 0.18415951E-01 0.12725058E+03</pdfrwt>
<pdfrwt beam="2">  1       21 0.76941850E-02 0.12725058E+03</pdfrwt>
<totfact> 0.34155540E+06</totfact>
</mgrwt>
</event>
<event>
 6    1  0.4187588E-002  0.1308534E+03  0.7546771E-02  0.1226195E+00
         21   -1    0    0  503  502  0.00000000000E+00  0.00000000000E+00  0.60671362329E+02  0.60671362329E+02  0.00000000000E+00 0.  1.
         21   -1    0    0  504  503 -0.00000000000E+00 -0.00000000000E+00 -0.11987852835E+03  0.11987852835E+03  0.00000000000E+00 0.  1.
         25    2    1    2    0    0 -0.38551377289E+02 -0.35168290981E+01 -0.53720867803E+02  0.14145160112E+03  0.12499618812E+03 0.  0.
          5    1    3    3  501    0 -0.61027754745E+02 -0.26208656892E+02 -0.77179364423E+02  0.10182310562E+03  0.10000000000E+00 0. -1.
         -5    1    3    3    0  501  0.22476377456E+02  0.22691827794E+02  0.23458496621E+02  0.39628495504E+02  0.10000000000E+00 0. -1.
         21    1    1    2  504  502  0.38551377289E+02  0.35168290981E+01 -0.54862982155E+01  0.39098289552E+02  0.00000000000E+00 0.  1.
<mgrwt>
<rscale>  1 0.13085344E+03</rscale>
<asrwt>0</asrwt>
<pdfrwt beam="1">  1       21 0.93340558E-02 0.13085344E+03</pdfrwt>
<pdfrwt beam="2">  1       21 0.18442850E-01 0.13085344E+03</pdfrwt>
<totfact> 0.24409882E+06</totfact>
</mgrwt>
</event>
<event>
 6    1  0.4187588E-002  0.1649368E+03  0.7546771E-02  0.1183233E+00
         21   -1    0    0  503  502  0.00000000000E+00  0.00000000000E+00  0.51116709845E+02  0.51116709845E+02  0.00000000000E+00 0.  1.
         21   -1    0    0  504  503 -0.00000000000E+00 -0.00000000000E+00 -0.12515583819E+04  0.12515583819E+04  0.00000000000E+00 0.  1.
         25    2    1    2    0    0 -0.10610930078E+03  0.17924515576E+02 -0.11820505499E+04  0.11935022685E+04  0.12499476175E+03 0.  0.
          5    1    3    3  501    0  0.16686512020E+02 -0.28857008371E+02 -0.26348556242E+03  0.26558580199E+03  0.10000000000E+00 0. -1.
         -5    1    3    3    0  501 -0.12279581280E+03  0.46781523948E+02 -0.91856498745E+03  0.92791646649E+03  0.10000000000E+00 0. -1.
         21    1    1    2  504  502  0.10610930078E+03 -0.17924515576E+02 -0.18391122231E+02  0.10917282330E+03  0.00000000000E+00 0.  1.
<mgrwt>
<rscale>  1 0.16493684E+03</rscale>
<asrwt>0</asrwt>
<pdfrwt beam="1">  1       21 0.78641100E-02 0.16493684E+03</pdfrwt>
<pdfrwt beam="2">  1       21 0.19254742E+00 0.16493684E+03</pdfrwt>
<totfact> 0.18964868E+04</totfact>
</mgrwt>
</event>
<event>
 6    1  0.4187588E-002  0.1261402E+03  0.7546771E-02  0.1233298E+00
         21   -1    0    0  503  502  0.00000000000E+00  0.00000000000E+00  0.21228444652E+02  0.21228444652E+02  0.00000000000E+00 0.  1.
         21   -1    0    0  504  503 -0.00000000000E+00 -0.00000000000E+00 -0.34067093600E+03  0.34067093600E+03  0.00000000000E+00 0.  1.
         25    2    1    2    0    0  0.11562799722E+02  0.12339947213E+02 -0.32102188628E+03  0.34491506074E+03  0.12500150008E+03 0.  0.
          5    1    3    3  501    0  0.30164672529E+02 -0.28856141507E+02 -0.28237689817E+03  0.28544580395E+03  0.10000000000E+00 0. -1.
         -5    1    3    3    0  501 -0.18601872807E+02  0.41196088720E+02 -0.38644988104E+02  0.59469256791E+02  0.10000000000E+00 0. -1.
         21    1    1    2  504  502 -0.11562799722E+02 -0.12339947213E+02  0.15793949254E+01  0.16984319914E+02  0.00000000000E+00 0.  1.
<mgrwt>
<rscale>  1 0.12614019E+03</rscale>
<asrwt>0</asrwt>
<pdfrwt beam="1">  1       21 0.32659147E-02 0.12614019E+03</pdfrwt>
<pdfrwt beam="2">  1       21 0.52410910E-01 0.12614019E+03</pdfrwt>
<totfact> 0.18899381E+06</totfact>
</mgrwt>
</event>
<event>
 6    1  0.4187588E-002  0.1259094E+03  0.7546771E-02  0.1233655E+00
         21   -1    0    0  503  502  0.00000000000E+00  0.00000000000E+00  0.35989870908E+03  0.35989870908E+03  0.00000000000E+00 0.  1.
         21   -1    0    0  504  503 -0.00000000000E+00 -0.00000000000E+00 -0.72741321110E+02  0.72741321110E+02  0.00000000000E+00 0.  1.
         25    2    1    2    0    0 -0.28078304753E+01  0.14861061486E+02 -0.17928534084E+02  0.12717946826E+03  0.12499779899E+03 0.  0.
          5    1    3    3  501    0 -0.12296067587E+02 -0.26992130623E+02  0.43253651034E+02  0.52446703628E+02  0.10000000000E+00 0. -1.
         -5    1    3    3    0  501  0.94882371119E+01  0.41853192109E+02 -0.61182185119E+02  0.74732764629E+02  0.10000000000E+00 0. -1.
         21    1    1    2  504  502  0.28078304753E+01 -0.14861061486E+02  0.30508592206E+03  0.30546056194E+03  0.00000000000E+00 0.  1.
<mgrwt>
<rscale>  1 0.12590943E+03</rscale>
<asrwt>0</asrwt>
<pdfrwt beam="1">  1       21 0.55369031E-01 0.12590943E+03</pdfrwt>
<pdfrwt beam="2">  1       21 0.11190973E-01 0.12590943E+03</pdfrwt>
<totfact> 0.20820013E+05</totfact>
</mgrwt>
</event>
<event>
 6    1  0.4187588E-002  0.1273232E+03  0.7546771E-02  0.1231483E+00
         21   -1    0    0  504  502  0.00000000000E+00  0.00000000000E+00  0.43548276561E+03  0.43548276561E+03  0.00000000000E+00 0.  1.
         21   -1    0    0  502  503 -0.00000000000E+00 -0.00000000000E+00 -0.17191296755E+02  0.17191296755E+02  0.00000000000E+00 0.  1.
         25    2    1    2    0    0  0.11327755393E+02  0.21440916742E+02  0.23053626847E+03  0.26335938723E+03  0.12499265900E+03 0.  0.
          5    1    3    3  501    0 -0.15304166134E+02 -0.22786270534E+02  0.20300160441E+03  0.20484895171E+03  0.10000000000E+00 0.  1.
         -5    1    3    3    0  501  0.26631921527E+02  0.44227187276E+02  0.27534664067E+02  0.58510435512E+02  0.10000000000E+00 0.  1.
         21    1    1    2  504  503 -0.11327755393E+02 -0.21440916742E+02  0.18775520038E+03  0.18931467514E+03  0.00000000000E+00 0.  1.
<mgrwt>
<rscale>  1 0.12732319E+03</rscale>
<asrwt>0</asrwt>
<pdfrwt beam="1">  1       21 0.66997340E-01 0.12732319E+03</pdfrwt>
<pdfrwt beam="2">  1       21 0.26448152E-02 0.12732319E+03</pdfrwt>
<totfact> 0.15872909E+06</totfact>
</mgrwt>
</event>
<event>
 6    1  0.4187588E-002  0.1569211E+03  0.7546771E-02  0.1192217E+00
         21   -1    0    0  503  502  0.00000000000E+00  0.00000000000E+00  0.39361874693E+03  0.39361874693E+03  0.00000000000E+00 0.  1.
         21   -1    0    0  504  503 -0.00000000000E+00 -0.00000000000E+00 -0.11418646848E+04  0.11418646848E+04  0.00000000000E+00 0.  1.
         25    2    1    2    0    0  0.50764692172E+02  0.80141569009E+02 -0.11306501457E+04  0.11414876155E+04  0.12499799721E+03 0.  0.
          5    1    3    3  501    0  0.81596024959E+02  0.79522098897E+02 -0.65476095798E+03  0.66460032921E+03  0.10000000000E+00 0.  1.
         -5    1    3    3    0  501 -0.30831332787E+02  0.61947011182E+00 -0.47588918775E+03  0.47688728631E+03  0.10000000000E+00 0.  1.
         21    1    1    2  504  502 -0.50764692172E+02 -0.80141569009E+02  0.38240420782E+03  0.39399581624E+03  0.00000000000E+00 0.  1.
<mgrwt>
<rscale>  1 0.15692108E+03</rscale>
<asrwt>0</asrwt>
<pdfrwt beam="1">  1       21 0.60556732E-01 0.15692108E+03</pdfrwt>
<pdfrwt beam="2">  1       21 0.17567149E+00 0.15692108E+03</pdfrwt>
<totfact> 0.51816289E+02</totfact>
</mgrwt>
</event>
<event>
 6    1  0.4187588E-002  0.1450066E+03  0.7546771E-02  0.1206747E+00
         21   -1    0    0  503  502  0.00000000000E+00  0.00000000000E+00  0.18929039638E+03  0.18929039638E+03  0.00000000000E+00 0. -1.
         21   -1    0    0  504  503 -0.00000000000E+00 -0.00000000000E+00 -0.17080481397E+03  0.17080481397E+03  0.00000000000E+00 0.  1.
         25    2    1    2    0    0 -0.72380914381E+02  0.12669863883E+02 -0.12979151277E+03  0.19460920137E+03  0.12500952865E+03 0.  0.
          5    1    3    3  501    0  0.29477685947E+02 -0.20655145378E+02 -0.46911111062E+02  0.59128938266E+02  0.10000000000E+00 0.  1.
         -5    1    3    3    0  501 -0.10185860033E+03  0.33325009261E+02 -0.82880401705E+02  0.13548026310E+03  0.10000000000E+00 0.  1.
         21    1    1    2  504  502  0.72380914381E+02 -0.12669863883E+02  0.14827709517E+03  0.16548600898E+03  0.00000000000E+00 0. -1.
<mgrwt>
<rscale>  1 0.14500657E+03</rscale>
<asrwt>0</asrwt>
<pdfrwt beam="1">  1       21 0.29121600E-01 0.14500657E+03</pdfrwt>
<pdfrwt beam="2">  1       21 0.26277664E-01 0.14500657E+03</pdfrwt>
<totfact> 0.15778836E+05</totfact>
</mgrwt>
</event>
<event>
 6    1  0.4187588E-002  0.1537042E+03  0.7546771E-02  0.1195994E+00
         21   -1    0    0  504  502  0.00000000000E+00  0.00000000000E+00  0.43853254743E+03  0.43853254743E+03  0.00000000000E+00 0. -1.
         21   -1    0    0  502  503 -0.00000000000E+00 -0.00000000000E+00 -0.49209166011E+02  0.49209166011E+02  0.00000000000E+00 0. -1.
         25    2    1    2    0    0 -0.55208081079E+02 -0.70370540089E+02  0.96319609376E+02  0.18139035379E+03  0.12500019268E+03 0.  0.
          5    1    3    3  501    0 -0.69025502376E+02 -0.51818555616E+02  0.42032604071E+01  0.86413888250E+02  0.10000000000E+00 0.  1.
         -5    1    3    3    0  501  0.13817421297E+02 -0.18551984473E+02  0.92116348969E+02  0.94976465541E+02  0.10000000000E+00 0.  1.
         21    1    1    2  504  503  0.55208081079E+02  0.70370540089E+02  0.29300377204E+03  0.30635135965E+03  0.00000000000E+00 0. -1.
<mgrwt>
<rscale>  1 0.15370424E+03</rscale>
<asrwt>0</asrwt>
<pdfrwt beam="1">  1       21 0.67466543E-01 0.15370424E+03</pdfrwt>
<pdfrwt beam="2">  1       21 0.75706412E-02 0.15370424E+03</pdfrwt>
<totfact> 0.26808620E+05</totfact>
</mgrwt>
</event>
<event>
 6    1  0.4187588E-002  0.1277359E+03  0.7546771E-02  0.1230854E+00
         21   -1    0    0  504  502  0.00000000000E+00  0.00000000000E+00  0.21819018423E+02  0.21819018423E+02  0.00000000000E+00 0.  1.
         21   -1    0    0  502  503 -0.00000000000E+00 -0.00000000000E+00 -0.10451343931E+04  0.10451343931E+04  0.00000000000E+00 0. -1.
         25    2    1    2    0    0  0.21378892104E+02 -0.15322618023E+02 -0.10315213784E+04  0.10394002239E+04  0.12499852688E+03 0.  0.
          5    1    3    3  501    0 -0.48816042212E+02  0.11134147472E+02 -0.31383003997E+03  0.31779911769E+03  0.10000000000E+00 0.  1.
         -5    1    3    3    0  501  0.70194934316E+02 -0.26456765494E+02 -0.71769133846E+03  0.72160110626E+03  0.10000000000E+00 0.  1.
         21    1    1    2  504  503 -0.21378892104E+02  0.15322618023E+02  0.82060037185E+01  0.27553187614E+02  0.00000000000E+00 0.  1.
<mgrwt>
<rscale>  1 0.12773594E+03</rscale>
<asrwt>0</asrwt>
<pdfrwt beam="1">  1       21 0.33567725E-02 0.12773594E+03</pdfrwt>
<pdfrwt beam="2">  1       21 0.16078989E+00 0.12773594E+03</pdfrwt>
<totfact> 0.13456324E+05</totfact>
</mgrwt>
</event>
<event>
 6    1  0.4187588E-002  0.1267871E+03  0.7546771E-02  0.1232302E+00
         21   -1    0    0  504  502  0.00000000000E+00  0.00000000000E+00  0.13478979000E+03  0.13478979000E+03  0.00000000000E+00 0.  1.
         21   -1    0    0  502  503 -0.00000000000E+00 -0.00000000000E+00 -0.40686668111E+02  0.40686668111E+02  0.00000000000E+00 0.  1.
         25    2    1    2    0    0 -0.13377519848E+02  0.16442371979E+02  0.78029614564E+02  0.14887444181E+03  0.12500267614E+03 0.  0.
          5    1    3    3  501    0  0.10585569296E+02 -0.87267092636E+00 -0.32639532541E+02  0.34324407007E+02  0.10000000000E+00 0.  1.
         -5    1    3    3    0  501 -0.23963089145E+02  0.17315042905E+02  0.11066914711E+03  0.11455003480E+03  0.10000000000E+00 0.  1.
         21    1    1    2  504  503  0.13377519848E+02 -0.16442371979E+02  0.16073507325E+02  0.26602016302E+02  0.00000000000E+00 0.  1.
<mgrwt>
<rscale>  1 0.12678714E+03</rscale>
<asrwt>0</asrwt>
<pdfrwt beam="1">  1       21 0.20736890E-01 0.12678714E+03</pdfrwt>
<pdfrwt beam="2">  1       21 0.62594875E-02 0.12678714E+03</pdfrwt>
<totfact> 0.39040289E+06</totfact>
</mgrwt>
</event>
<event>
 6    1  0.4187588E-002  0.1264002E+03  0.7546771E-02  0.1232897E+00
         21   -1    0    0  503  502  0.00000000000E+00  0.00000000000E+00  0.92816870638E+02  0.92816870638E+02  0.00000000000E+00 0.  1.
         21   -1    0    0  504  503 -0.00000000000E+00 -0.00000000000E+00 -0.57862501112E+02  0.57862501112E+02  0.00000000000E+00 0.  1.
         25    2    1    2    0    0  0.11790103696E+02 -0.14640951647E+02  0.23207916099E+02  0.12851310958E+03  0.12499459170E+03 0.  0.
          5    1    3    3  501    0 -0.48113354486E+02 -0.37232828547E+02  0.13161637381E+01  0.60851628479E+02  0.10000000000E+00 0.  1.
         -5    1    3    3    0  501  0.59903458182E+02  0.22591876900E+02  0.21891752361E+02  0.67661481106E+02  0.10000000000E+00 0.  1.
         21    1    1    2  504  502 -0.11790103696E+02  0.14640951647E+02  0.11746453426E+02  0.22166262165E+02  0.00000000000E+00 0.  1.
<mgrwt>
<rscale>  1 0.12640021E+03</rscale>
<asrwt>0</asrwt>
<pdfrwt beam="1">  1       21 0.14279519E-01 0.12640021E+03</pdfrwt>
<pdfrwt beam="2">  1       21 0.89019232E-02 0.12640021E+03</pdfrwt>
<totfact> 0.42106601E+06</totfact>
</mgrwt>
</event>
<event>
 6    1  0.4187588E-002  0.1261679E+03  0.7546771E-02  0.1233255E+00
         21   -1    0    0  504  502  0.00000000000E+00  0.00000000000E+00  0.26679997893E+02  0.26679997893E+02  0.00000000000E+00 0. -1.
         21   -1    0    0  502  503 -0.00000000000E+00 -0.00000000000E+00 -0.33834333636E+03  0.33834333636E+03  0.00000000000E+00 0. -1.
         25    2    1    2    0    0  0.66897678399E+01  0.15381347918E+02 -0.32164473748E+03  0.34550495359E+03  0.12504797858E+03 0.  0.
          5    1    3    3  501    0 -0.14828191975E+02  0.86518517996E+01 -0.32248665830E+03  0.32294331484E+03  0.10000000000E+00 0.  1.
         -5    1    3    3    0  501  0.21517959815E+02  0.67294961184E+01  0.84192081677E+00  0.22561638754E+02  0.10000000000E+00 0.  1.
         21    1    1    2  504  503 -0.66897678399E+01 -0.15381347918E+02  0.99813990124E+01  0.19518380665E+02  0.00000000000E+00 0. -1.
<mgrwt>
<rscale>  1 0.12616789E+03</rscale>
<asrwt>0</asrwt>
<pdfrwt beam="1">  1       21 0.41046149E-02 0.12616789E+03</pdfrwt>
<pdfrwt beam="2">  1       21 0.52052823E-01 0.12616789E+03</pdfrwt>
<totfact> 0.13136638E+06</totfact>
</mgrwt>
</event>
<event>
 6    1  0.4187588E-002  0.1335442E+03  0.7546771E-02  0.1222290E+00
         21   -1    0    0  503  502  0.00000000000E+00  0.00000000000E+00  0.73691093887E+02  0.73691093887E+02  0.00000000000E+00 0. -1.
         21   -1    0    0  504  503 -0.00000000000E+00 -0.00000000000E+00 -0.32922329035E+03  0.32922329035E+03  0.00000000000E+00 0. -1.
         25    2    1    2    0    0  0.38366677675E+02  0.27114788895E+02 -0.30605595981E+03  0.33392261374E+03  0.12500739058E+03 0.  0.
          5    1    3    3  501    0 -0.23905039250E+02  0.58541738552E+02 -0.16080702518E+03  0.17279321572E+03  0.10000000000E+00 0.  1.
         -5    1    3    3    0  501  0.62271716924E+02 -0.31426949657E+02 -0.14524893464E+03  0.16112939802E+03  0.10000000000E+00 0.  1.
         21    1    1    2  504  502 -0.38366677675E+02 -0.27114788895E+02  0.50523763350E+02  0.68991770492E+02  0.00000000000E+00 0. -1.
<mgrwt>
<rscale>  1 0.13354423E+03</rscale>
<asrwt>0</asrwt>
<pdfrwt beam="1">  1       21 0.11337091E-01 0.13354423E+03</pdfrwt>
<pdfrwt beam="2">  1       21 0.50649737E-01 0.13354423E+03</pdfrwt>
<totfact> 0.24449033E+05</totfact>
</mgrwt>
</event>
<event>
 6    1  0.4187588E-002  0.1437412E+03  0.7546771E-02  0.1208382E+00
         21   -1    0    0  503  502  0.00000000000E+00  0.00000000000E+00  0.13979807872E+03  0.13979807872E+03  0.00000000000E+00 0.  1.
         21   -1    0    0  504  503 -0.00000000000E+00 -0.00000000000E+00 -0.11060149242E+03  0.11060149242E+03  0.00000000000E+00 0.  1.
         25    2    1    2    0    0  0.61321526330E+02 -0.35714772926E+02 -0.42126606175E+02  0.14978708493E+03  0.12500258104E+03 0.  0.
          5    1    3    3  501    0 -0.29941461249E+02  0.20240255553E+02 -0.16401647313E+02  0.39688576205E+02  0.10000000000E+00 0.  1.
         -5    1    3    3    0  501  0.91262987579E+02 -0.55955028479E+02 -0.25724958863E+02  0.11009850872E+03  0.10000000000E+00 0.  1.
         21    1    1    2  504  502 -0.61321526330E+02  0.35714772926E+02  0.71323192477E+02  0.10061248621E+03  0.00000000000E+00 0.  1.
<mgrwt>
<rscale>  1 0.14374116E+03</rscale>
<asrwt>0</asrwt>
<pdfrwt beam="1">  1       21 0.21507397E-01 0.14374116E+03</pdfrwt>
<pdfrwt beam="2">  1       21 0.17015614E-01 0.14374116E+03</pdfrwt>
<totfact> 0.63053883E+05</totfact>
</mgrwt>
</event>
<event>
 6    1  0.4187588E-002  0.1265117E+03  0.7546771E-02  0.1232726E+00
         21   -1    0    0  503  502  0.00000000000E+00  0.00000000000E+00  0.21786238812E+03  0.21786238812E+03  0.00000000000E+00 0. -1.
         21   -1    0    0  504  503 -0.00000000000E+00 -0.00000000000E+00 -0.15956594666E+03  0.15956594666E+03  0.00000000000E+00 0.  1.
         25    2    1    2    0    0  0.18797016624E+00  0.19489498154E+02 -0.13391929068E+03  0.18422697984E+03  0.12500131126E+03 0.  0.
          5    1    3    3  501    0 -0.56539913741E+02 -0.15801935729E+02 -0.51197045173E+02  0.77894867951E+02  0.10000000000E+00 0.  1.
         -5    1    3    3    0  501  0.56727883908E+02  0.35291433883E+02 -0.82722245504E+02  0.10633211189E+03  0.10000000000E+00 0.  1.
         21    1    1    2  504  502 -0.18797016624E+00 -0.19489498154E+02  0.19221573213E+03  0.19320135494E+03  0.00000000000E+00 0. -1.
<mgrwt>
<rscale>  1 0.12651167E+03</rscale>
<asrwt>0</asrwt>
<pdfrwt beam="1">  1       21 0.33517290E-01 0.12651167E+03</pdfrwt>
<pdfrwt beam="2">  1       21 0.24548607E-01 0.12651167E+03</pdfrwt>
<totfact> 0.13745604E+05</totfact>
</mgrwt>
</event>
<event>
 6    1  0.4187588E-002  0.1282181E+03  0.7546771E-02  0.1230124E+00
         21   -1    0    0  503  502  0.00000000000E+00  0.00000000000E+00  0.20297857763E+03  0.20297857763E+03  0.00000000000E+00 0.  1.
         21   -1    0    0  504  503 -0.00000000000E+00 -0.00000000000E+00 -0.33527926251E+02  0.33527926251E+02  0.00000000000E+00 0.  1.
         25    2    1    2    0    0  0.28033347555E+02 -0.52881520358E+01  0.10394654378E+03  0.16505987177E+03  0.12500417665E+03 0.  0.
          5    1    3    3  501    0  0.14019310302E+02  0.55484075541E+02  0.79760783168E+02  0.98167286973E+02  0.10000000000E+00 0. -1.
         -5    1    3    3    0  501  0.14014037253E+02 -0.60772227577E+02  0.24185760608E+02  0.66892584798E+02  0.10000000000E+00 0. -1.
         21    1    1    2  504  502 -0.28033347555E+02  0.52881520358E+01  0.65504107601E+02  0.71446632108E+02  0.00000000000E+00 0.  1.
<mgrwt>
<rscale>  1 0.12821808E+03</rscale>
<asrwt>0</asrwt>
<pdfrwt beam="1">  1       21 0.31227473E-01 0.12821808E+03</pdfrwt>
<pdfrwt beam="2">  1       21 0.51581426E-02 0.12821808E+03</pdfrwt>
<totfact> 0.24947234E+06</totfact>
</mgrwt>
</event>
<event>
 6    1  0.4187588E-002  0.1960317E+03  0.7546771E-02  0.1153131E+00
         21   -1    0    0  504  502  0.00000000000E+00  0.00000000000E+00  0.59203672392E+03  0.59203672392E+03  0.00000000000E+00 0. -1.
         21   -1    0    0  502  503 -0.00000000000E+00 -0.00000000000E+00 -0.18452798498E+03  0.18452798498E+03  0.00000000000E+00 0. -1.
         25    2    1    2    0    0 -0.14743286578E+03 -0.32663528135E+02 -0.11866533379E+03  0.22915032217E+03  0.12500021090E+03 0.  0.
          5    1    3    3  501    0 -0.14760741647E+03 -0.12266280408E+02 -0.13697207351E+03  0.20174183987E+03  0.10000000000E+00 0.  1.
         -5    1    3    3    0  501  0.17455069037E+00 -0.20397247727E+02  0.18306739720E+02  0.27408482299E+02  0.10000000000E+00 0.  1.
         21    1    1    2  504  503  0.14743286578E+03  0.32663528135E+02  0.52617407273E+03  0.54741438673E+03  0.00000000000E+00 0. -1.
<mgrwt>
<rscale>  1 0.19603165E+03</rscale>
<asrwt>0</asrwt>
<pdfrwt beam="1">  1       21 0.91082572E-01 0.19603165E+03</pdfrwt>
<pdfrwt beam="2">  1       21 0.28388921E-01 0.19603165E+03</pdfrwt>
<totfact> 0.12094557E+04</totfact>
</mgrwt>
</event>
<event>
 6    1  0.4187588E-002  0.1268820E+03  0.7546771E-02  0.1232157E+00
         21   -1    0    0  503  502  0.00000000000E+00  0.00000000000E+00  0.21296107334E+03  0.21296107334E+03  0.00000000000E+00 0. -1.
         21   -1    0    0  504  503 -0.00000000000E+00 -0.00000000000E+00 -0.26703281673E+02  0.26703281673E+02  0.00000000000E+00 0. -1.
         25    2    1    2    0    0 -0.36005641375E+01  0.21449418663E+02  0.14251564251E+03  0.19081338536E+03  0.12500399214E+03 0.  0.
          5    1    3    3  501    0  0.21219724535E+02 -0.48205982441E+02  0.53238426784E+02  0.74889475487E+02  0.10000000000E+00 0.  1.
         -5    1    3    3    0  501 -0.24820288672E+02  0.69655401104E+02  0.89277215730E+02  0.11592390988E+03  0.10000000000E+00 0.  1.
         21    1    1    2  504  502  0.36005641375E+01 -0.21449418663E+02  0.43742149156E+02  0.48850969651E+02  0.00000000000E+00 0. -1.
<mgrwt>
<rscale>  1 0.12688199E+03</rscale>
<asrwt>0</asrwt>
<pdfrwt beam="1">  1       21 0.32763241E-01 0.12688199E+03</pdfrwt>
<pdfrwt beam="2">  1       21 0.41081973E-02 0.12688199E+03</pdfrwt>
<totfact> 0.33238624E+06</totfact>
</mgrwt>
</event>
<event>
 6    1  0.4187588E-002  0.1265032E+03  0.7546771E-02  0.1232739E+00
         21   -1    0    0  503  502  0.00000000000E+00  0.00000000000E+00  0.19157494291E+03  0.19157494291E+03  0.00000000000E+00 0. -1.
         21   -1    0    0  504  503 -0.00000000000E+00 -0.00000000000E+00 -0.25351873537E+03  0.25351873537E+03  0.00000000000E+00 0. -1.
         25    2    1    2    0    0 -0.15374600810E+02 -0.11826642513E+02 -0.23716924655E+03  0.26879788258E+03  0.12500720920E+03 0.  0.
          5    1    3    3  501    0  0.43729819496E+02 -0.17947512543E+02 -0.37097246990E+02  0.60088485201E+02  0.10000000000E+00 0.  1.
         -5    1    3    3    0  501 -0.59104420306E+02  0.61208700300E+01 -0.20007199956E+03  0.20870939738E+03  0.10000000000E+00 0.  1.
         21    1    1    2  504  502  0.15374600810E+02  0.11826642513E+02  0.17522545408E+03  0.17629579570E+03  0.00000000000E+00 0. -1.
<mgrwt>
<rscale>  1 0.12650316E+03</rscale>
<asrwt>0</asrwt>
<pdfrwt beam="1">  1       21 0.29473068E-01 0.12650316E+03</pdfrwt>
<pdfrwt beam="2">  1       21 0.39002882E-01 0.12650316E+03</pdfrwt>
<totfact> 0.71979716E+04</totfact>
</mgrwt>
</event>
<event>
 6    1  0.4187588E-002  0.1265441E+03  0.7546771E-02  0.1232676E+00
         21   -1    0    0  503  502  0.00000000000E+00  0.00000000000E+00  0.84080682118E+02  0.84080682118E+02  0.00000000000E+00 0. -1.
         21   -1    0    0  504  503 -0.00000000000E+00 -0.00000000000E+00 -0.72672102358E+02  0.72672102358E+02  0.00000000000E+00 0. -1.
         25    2    1    2    0    0  0.17276952549E+02  0.94751785218E+01 -0.10870406291E+02  0.12701013300E+03  0.12500054422E+03 0.  0.
          5    1    3    3  501    0  0.58470351459E+02  0.23846052995E+02 -0.39817982490E+02  0.74651845072E+02  0.10000000000E+00 0. -1.
         -5    1    3    3    0  501 -0.41193398910E+02 -0.14370874473E+02  0.28947576199E+02  0.52358287927E+02  0.10000000000E+00 0. -1.
         21    1    1    2  504  502 -0.17276952549E+02 -0.94751785218E+01  0.22278986051E+02  0.29742651477E+02  0.00000000000E+00 0. -1.
<mgrwt>
<rscale>  1 0.12654410E+03</rscale>
<asrwt>0</asrwt>
<pdfrwt beam="1">  1       21 0.12935490E-01 0.12654410E+03</pdfrwt>
<pdfrwt beam="2">  1       21 0.11180323E-01 0.12654410E+03</pdfrwt>
<totfact> 0.33736447E+06</totfact>
</mgrwt>
</event>
<event>
 6    1  0.4187588E-002  0.1259903E+03  0.7546771E-02  0.1233530E+00
         21   -1    0    0  503  502  0.00000000000E+00  0.00000000000E+00  0.32914048300E+02  0.32914048300E+02  0.00000000000E+00 0.  1.
         21   -1    0    0  504  503 -0.00000000000E+00 -0.00000000000E+00 -0.26420328439E+03  0.26420328439E+03  0.00000000000E+00 0.  1.
         25    2    1    2    0    0 -0.15398733341E+02 -0.37237911842E+01 -0.24543154167E+03  0.27588075066E+03  0.12499023692E+03 0.  0.
          5    1    3    3  501    0 -0.58353878227E+02 -0.36788563785E+02 -0.10806480158E+03  0.12820524510E+03  0.10000000000E+00 0. -1.
         -5    1    3    3    0  501  0.42955144886E+02  0.33064772601E+02 -0.13736674009E+03  0.14767550556E+03  0.10000000000E+00 0. -1.
         21    1    1    2  504  502  0.15398733341E+02  0.37237911842E+01  0.14142305582E+02  0.21236582034E+02  0.00000000000E+00 0.  1.
<mgrwt>
<rscale>  1 0.12599027E+03</rscale>
<asrwt>0</asrwt>
<pdfrwt beam="1">  1       21 0.50636997E-02 0.12599027E+03</pdfrwt>
<pdfrwt beam="2">  1       21 0.40646659E-01 0.12599027E+03</pdfrwt>
<totfact> 0.15308991E+06</totfact>
</mgrwt>
</event>
<event>
 6    1  0.4187588E-002  0.1459401E+03  0.7546771E-02  0.1205552E+00
         21   -1    0    0  503  502  0.00000000000E+00  0.00000000000E+00  0.56779226985E+03  0.56779226985E+03  0.00000000000E+00 0.  1.
         21   -1    0    0  504  503 -0.00000000000E+00 -0.00000000000E+00 -0.76942075803E+02  0.76942075803E+02  0.00000000000E+00 0.  1.
         25    2    1    2    0    0 -0.60470033772E+02 -0.44918683924E+02 -0.22063114859E+01  0.14595680927E+03  0.12499683681E+03 0.  0.
          5    1    3    3  501    0 -0.21156193514E+02 -0.86226738585E+02 -0.43494933103E+01  0.88890736655E+02  0.10000000000E+00 0. -1.
         -5    1    3    3    0  501 -0.39313840258E+02  0.41308054661E+02  0.21431818244E+01  0.57066072618E+02  0.10000000000E+00 0. -1.
         21    1    1    2  504  502  0.60470033772E+02  0.44918683924E+02  0.49305650553E+03  0.49877753638E+03  0.00000000000E+00 0.  1.
<mgrwt>
<rscale>  1 0.14594013E+03</rscale>
<asrwt>0</asrwt>
<pdfrwt beam="1">  1       21 0.87352654E-01 0.14594013E+03</pdfrwt>
<pdfrwt beam="2">  1       21 0.11837243E-01 0.14594013E+03</pdfrwt>
<totfact> 0.69155966E+04</totfact>
</mgrwt>
</event>
<event>
 6    1  0.4187588E-002  0.1276301E+03  0.7546771E-02  0.1231015E+00
         21   -1    0    0  503  502  0.00000000000E+00  0.00000000000E+00  0.47605245298E+03  0.47605245298E+03  0.00000000000E+00 0. -1.
         21   -1    0    0  504  503 -0.00000000000E+00 -0.00000000000E+00 -0.26085333787E+02  0.26085333787E+02  0.00000000000E+00 0. -1.
         25    2    1    2    0    0  0.21501319630E+02  0.14262728749E+02  0.13376653427E+03  0.18488624290E+03  0.12499481968E+03 0.  0.
          5    1    3    3  501    0  0.62085920245E+02 -0.27937182008E+02  0.60326408951E+02  0.90963911790E+02  0.10000000000E+00 0. -1.
         -5    1    3    3    0  501 -0.40584600615E+02  0.42199910757E+02  0.73440125319E+02  0.93922331114E+02  0.10000000000E+00 0. -1.
         21    1    1    2  504  502 -0.21501319630E+02 -0.14262728749E+02  0.31620058492E+03  0.31725154386E+03  0.00000000000E+00 0. -1.
<mgrwt>
<rscale>  1 0.12763008E+03</rscale>
<asrwt>0</asrwt>
<pdfrwt beam="1">  1       21 0.73238833E-01 0.12763008E+03</pdfrwt>
<pdfrwt beam="2">  1       21 0.40131286E-02 0.12763008E+03</pdfrwt>
<totfact> 0.65818509E+05</totfact>
</mgrwt>
</event>
<event>
 6    1  0.4187588E-002  0.1715283E+03  0.7546771E-02  0.1176263E+00
         21   -1    0    0  504  502  0.00000000000E+00  0.00000000000E+00  0.16218924454E+03  0.16218924454E+03  0.00000000000E+00 0.  1.
         21   -1    0    0  502  503 -0.00000000000E+00 -0.00000000000E+00 -0.13135387675E+03  0.13135387675E+03  0.00000000000E+00 0.  1.
         25    2    1    2    0    0 -0.77329368065E+02  0.88415990797E+02  0.38625584953E+02  0.17582351342E+03  0.12499901385E+03 0.  0.
          5    1    3    3  501    0 -0.83481456867E+02  0.11284120212E+02 -0.93852104463E+01  0.84761885212E+02  0.10000000000E+00 0.  1.
         -5    1    3    3    0  501  0.61520888017E+01  0.77131870585E+02  0.48010795399E+02  0.91061628206E+02  0.10000000000E+00 0.  1.
         21    1    1    2  504  503  0.77329368065E+02 -0.88415990797E+02 -0.77902171547E+01  0.11771960787E+03  0.00000000000E+00 0.  1.
<mgrwt>
<rscale>  1 0.17152834E+03</rscale>
<asrwt>0</asrwt>
<pdfrwt beam="1">  1       21 0.24952192E-01 0.17152834E+03</pdfrwt>
<pdfrwt beam="2">  1       21 0.20208289E-01 0.17152834E+03</pdfrwt>
<totfact> 0.34572717E+05</totfact>
</mgrwt>
</event>
<event>
 6    1  0.4187588E-002  0.1274647E+03  0.7546771E-02  0.1231267E+00
         21   -1    0    0  503  502  0.00000000000E+00  0.00000000000E+00  0.43969943616E+03  0.43969943616E+03  0.00000000000E+00 0.  1.
         21   -1    0    0  504  503 -0.00000000000E+00 -0.00000000000E+00 -0.32322283182E+02  0.32322283182E+02  0.00000000000E+00 0.  1.
         25    2    1    2    0    0 -0.17964046519E+02  0.17344249836E+02  0.95815894717E+02  0.15946140897E+03  0.12499490110E+03 0.  0.
          5    1    3    3  501    0  0.38740455960E+02  0.18436103226E+02 -0.55966559777E+01  0.43267139821E+02  0.10000000000E+00 0. -1.
         -5    1    3    3    0  501 -0.56704502479E+02 -0.10918533896E+01  0.10141255069E+03  0.11619426915E+03  0.10000000000E+00 0. -1.
         21    1    1    2  504  502  0.17964046519E+02 -0.17344249836E+02  0.31156125826E+03  0.31256031037E+03  0.00000000000E+00 0.  1.
<mgrwt>
<rscale>  1 0.12746472E+03</rscale>
<asrwt>0</asrwt>
<pdfrwt beam="1">  1       21 0.67646063E-01 0.12746472E+03</pdfrwt>
<pdfrwt beam="2">  1       21 0.49726593E-02 0.12746472E+03</pdfrwt>
<totfact> 0.54721550E+05</totfact>
</mgrwt>
</event>
<event>
 6    1  0.4187588E-002  0.1267829E+03  0.7546771E-02  0.1232309E+00
         21   -1    0    0  503  502  0.00000000000E+00  0.00000000000E+00  0.23253610280E+03  0.23253610280E+03  0.00000000000E+00 0.  1.
         21   -1    0    0  504  503 -0.00000000000E+00 -0.00000000000E+00 -0.90884732928E+02  0.90884732928E+02  0.00000000000E+00 0. -1.
         25    2    1    2    0    0 -0.67804752035E+01  0.20013576280E+02 -0.45785273640E+02  0.13479683564E+03  0.12500950978E+03 0.  0.
          5    1    3    3  501    0 -0.22154771830E+02  0.69474979942E+02 -0.38590750153E+02  0.82503713554E+02  0.10000000000E+00 0.  1.
         -5    1    3    3    0  501  0.15374296627E+02 -0.49461403663E+02 -0.71945234869E+01  0.52293122084E+02  0.10000000000E+00 0.  1.
         21    1    1    2  504  502  0.67804752035E+01 -0.20013576280E+02  0.18743664351E+03  0.18862400009E+03  0.00000000000E+00 0.  1.
<mgrwt>
<rscale>  1 0.12678287E+03</rscale>
<asrwt>0</asrwt>
<pdfrwt beam="1">  1       21 0.35774785E-01 0.12678287E+03</pdfrwt>
<pdfrwt beam="2">  1       21 0.13982267E-01 0.12678287E+03</pdfrwt>
<totfact> 0.33997025E+05</totfact>
</mgrwt>
</event>
<event>
 6    1  0.4187588E-002  0.1260371E+03  0.7546771E-02  0.1233457E+00
         21   -1    0    0  503  502  0.00000000000E+00  0.00000000000E+00  0.10733311372E+03  0.10733311372E+03  0.00000000000E+00 0.  1.
         21   -1    0    0  504  503 -0.00000000000E+00 -0.00000000000E+00 -0.74510578963E+03  0.74510578963E+03  0.00000000000E+00 0. -1.
         25    2    1    2    0    0  0.16062654734E+02  0.13330507070E+01 -0.73913459117E+03  0.74980351098E+03  0.12500230122E+03 0.  0.
          5    1    3    3  501    0 -0.18389468388E+02 -0.76687660741E+01 -0.68323615638E+03  0.68352661829E+03  0.10000000000E+00 0.  1.
         -5    1    3    3    0  501  0.34452123122E+02  0.90018167811E+01 -0.55898434794E+02  0.66276892696E+02  0.10000000000E+00 0.  1.
         21    1    1    2  504  502 -0.16062654734E+02 -0.13330507070E+01  0.10136191526E+03  0.10263539237E+03  0.00000000000E+00 0.  1.
<mgrwt>
<rscale>  1 0.12603714E+03</rscale>
<asrwt>0</asrwt>
<pdfrwt beam="1">  1       21 0.16512787E-01 0.12603714E+03</pdfrwt>
<pdfrwt beam="2">  1       21 0.11463166E+00 0.12603714E+03</pdfrwt>
<totfact> 0.20366425E+04</totfact>
</mgrwt>
</event>
<event>
 6    1  0.4187588E-002  0.1260444E+03  0.7546771E-02  0.1233446E+00
         21   -1    0    0  503  502  0.00000000000E+00  0.00000000000E+00  0.34098740227E+02  0.34098740227E+02  0.00000000000E+00 0.  1.
         21   -1    0    0  504  503 -0.00000000000E+00 -0.00000000000E+00 -0.71102513900E+03  0.71102513900E+03  0.00000000000E+00 0.  1.
         25    2    1    2    0    0  0.69505980865E+01  0.14584257880E+02 -0.70313106955E+03  0.71433920508E+03  0.12500475013E+03 0.  0.
          5    1    3    3  501    0  0.42258668562E+02  0.56920981677E+02 -0.38864508504E+03  0.39505797720E+03  0.10000000000E+00 0.  1.
         -5    1    3    3    0  501 -0.35308070475E+02 -0.42336723797E+02 -0.31448598451E+03  0.31928122788E+03  0.10000000000E+00 0.  1.
         21    1    1    2  504  502 -0.69505980865E+01 -0.14584257880E+02  0.26204670779E+02  0.30784674147E+02  0.00000000000E+00 0.  1.
<mgrwt>
<rscale>  1 0.12604443E+03</rscale>
<asrwt>0</asrwt>
<pdfrwt beam="1">  1       21 0.52459604E-02 0.12604443E+03</pdfrwt>
<pdfrwt beam="2">  1       21 0.10938848E+00 0.12604443E+03</pdfrwt>
<totfact> 0.16810103E+05</totfact>
</mgrwt>
</event>
<event>
 6    1  0.4187588E-002  0.1365961E+03  0.7546771E-02  0.1217984E+00
         21   -1    0    0  503  502  0.00000000000E+00  0.00000000000E+00  0.18579788157E+03  0.18579788157E+03  0.00000000000E+00 0.  1.
         21   -1    0    0  504  503 -0.00000000000E+00 -0.00000000000E+00 -0.73287000040E+02  0.73287000040E+02  0.00000000000E+00 0.  1.
         25    2    1    2    0    0 -0.51846847688E+02  0.18597560124E+02  0.31461060960E+01  0.13663236443E+03  0.12499816066E+03 0.  0.
          5    1    3    3  501    0 -0.29381028874E+02  0.59409340685E+02 -0.36319072780E+02  0.75576449148E+02  0.10000000000E+00 0. -1.
         -5    1    3    3    0  501 -0.22465818814E+02 -0.40811780561E+02  0.39465178876E+02  0.61055915284E+02  0.10000000000E+00 0. -1.
         21    1    1    2  504  502  0.51846847688E+02 -0.18597560124E+02  0.10936477544E+03  0.12245251718E+03  0.00000000000E+00 0.  1.
<mgrwt>
<rscale>  1 0.13659614E+03</rscale>
<asrwt>0</asrwt>
<pdfrwt beam="1">  1       21 0.28584289E-01 0.13659614E+03</pdfrwt>
<pdfrwt beam="2">  1       21 0.11274923E-01 0.13659614E+03</pdfrwt>
<totfact> 0.77067179E+05</totfact>
</mgrwt>
</event>
<event>
 6    1  0.4187588E-002  0.1296737E+03  0.7546771E-02  0.1227941E+00
         21   -1    0    0  503  502  0.00000000000E+00  0.00000000000E+00  0.52745405464E+02  0.52745405464E+02  0.00000000000E+00 0. -1.
         21   -1    0    0  504  503 -0.00000000000E+00 -0.00000000000E+00 -0.12930500951E+03  0.12930500951E+03  0.00000000000E+00 0. -1.
         25    2    1    2    0    0  0.19482925993E+01 -0.34450363344E+02 -0.52068727741E+02  0.13973698447E+03  0.12499859616E+03 0.  0.
          5    1    3    3  501    0  0.19806049355E+02 -0.39262222015E+02  0.31534022738E+02  0.54112902885E+02  0.10000000000E+00 0. -1.
         -5    1    3    3    0  501 -0.17857756756E+02  0.48118586718E+01 -0.83602750479E+02  0.85624081588E+02  0.10000000000E+00 0. -1.
         21    1    1    2  504  502 -0.19482925993E+01  0.34450363344E+02 -0.24490876307E+02  0.42313430502E+02  0.00000000000E+00 0. -1.
<mgrwt>
<rscale>  1 0.12967372E+03</rscale>
<asrwt>0</asrwt>
<pdfrwt beam="1">  1       21 0.81146778E-02 0.12967372E+03</pdfrwt>
<pdfrwt beam="2">  1       21 0.19893078E-01 0.12967372E+03</pdfrwt>
<totfact> 0.27057284E+06</totfact>
</mgrwt>
</event>
<event>
 6    1  0.4187588E-002  0.1273607E+03  0.7546771E-02  0.1231425E+00
         21   -1    0    0  504  502  0.00000000000E+00  0.00000000000E+00  0.35806616180E+03  0.35806616180E+03  0.00000000000E+00 0. -1.
         21   -1    0    0  502  503 -0.00000000000E+00 -0.00000000000E+00 -0.22875186558E+02  0.22875186558E+02  0.00000000000E+00 0. -1.
         25    2    1    2    0    0  0.20493966552E+02  0.13267782059E+02  0.16215544076E+03  0.20619200530E+03  0.12499887750E+03 0.  0.
          5    1    3    3  501    0 -0.32379548177E+02 -0.35967750414E+02  0.34239176389E+02  0.59282758116E+02  0.10000000000E+00 0. -1.
         -5    1    3    3    0  501  0.52873514729E+02  0.49235532473E+02  0.12791626437E+03  0.14690924719E+03  0.10000000000E+00 0. -1.
         21    1    1    2  504  503 -0.20493966552E+02 -0.13267782059E+02  0.17303553448E+03  0.17474934306E+03  0.00000000000E+00 0. -1.
<mgrwt>
<rscale>  1 0.12736073E+03</rscale>
<asrwt>0</asrwt>
<pdfrwt beam="1">  1       21 0.55087098E-01 0.12736073E+03</pdfrwt>
<pdfrwt beam="2">  1       21 0.35192597E-02 0.12736073E+03</pdfrwt>
<totfact> 0.15065020E+06</totfact>
</mgrwt>
</event>
<event>
 6    1  0.4187588E-002  0.1331647E+03  0.7546771E-02  0.1222834E+00
         21   -1    0    0  504  502  0.00000000000E+00  0.00000000000E+00  0.12981940499E+03  0.12981940499E+03  0.00000000000E+00 0.  1.
         21   -1    0    0  502  503 -0.00000000000E+00 -0.00000000000E+00 -0.62160474285E+02  0.62160474285E+02  0.00000000000E+00 0.  1.
         25    2    1    2    0    0  0.41141523711E+02 -0.20420857041E+02  0.43542540634E+02  0.14010274900E+03  0.12499276402E+03 0.  0.
          5    1    3    3  501    0 -0.34509995045E+02 -0.40729754933E+02  0.27865558799E+02  0.60219200112E+02  0.10000000000E+00 0.  1.
         -5    1    3    3    0  501  0.75651518756E+02  0.20308897892E+02  0.15676981836E+02  0.79883548889E+02  0.10000000000E+00 0.  1.
         21    1    1    2  504  503 -0.41141523711E+02  0.20420857041E+02  0.24116390072E+02  0.51877130276E+02  0.00000000000E+00 0.  1.
<mgrwt>
<rscale>  1 0.13316466E+03</rscale>
<asrwt>0</asrwt>
<pdfrwt beam="1">  1       21 0.19972216E-01 0.13316466E+03</pdfrwt>
<pdfrwt beam="2">  1       21 0.95631499E-02 0.13316466E+03</pdfrwt>
<totfact> 0.20214620E+06</totfact>
</mgrwt>
</event>
<event>
 6    1  0.4187588E-002  0.1266653E+03  0.7546771E-02  0.1232489E+00
         21   -1    0    0  503  502  0.00000000000E+00  0.00000000000E+00  0.20869386368E+03  0.20869386368E+03  0.00000000000E+00 0. -1.
         21   -1    0    0  504  503 -0.00000000000E+00 -0.00000000000E+00 -0.54156598460E+02  0.54156598460E+02  0.00000000000E+00 0. -1.
         25    2    1    2    0    0  0.13153683597E+02  0.15707602996E+02  0.21783115038E+02  0.12852469181E+03  0.12499737645E+03 0.  0.
          5    1    3    3  501    0  0.38776569067E+02  0.33772274350E+02 -0.36009343399E+02  0.62776362075E+02  0.10000000000E+00 0. -1.
         -5    1    3    3    0  501 -0.25622885470E+02 -0.18064671354E+02  0.57792458437E+02  0.65748329736E+02  0.10000000000E+00 0. -1.
         21    1    1    2  504  502 -0.13153683597E+02 -0.15707602996E+02  0.13275415018E+03  0.13432577033E+03  0.00000000000E+00 0. -1.
<mgrwt>
<rscale>  1 0.12666528E+03</rscale>
<asrwt>0</asrwt>
<pdfrwt beam="1">  1       21 0.32106748E-01 0.12666528E+03</pdfrwt>
<pdfrwt beam="2">  1       21 0.83317845E-02 0.12666528E+03</pdfrwt>
<totfact> 0.10439085E+06</totfact>
</mgrwt>
</event>
<event>
 6    1  0.4187588E-002  0.1270036E+03  0.7546771E-02  0.1231971E+00
         21   -1    0    0  504  502  0.00000000000E+00  0.00000000000E+00  0.37594627612E+02  0.37594627612E+02  0.00000000000E+00 0. -1.
         21   -1    0    0  502  503 -0.00000000000E+00 -0.00000000000E+00 -0.17172529967E+03  0.17172529967E+03  0.00000000000E+00 0. -1.
         25    2    1    2    0    0 -0.17342270614E+02 -0.14274102273E+02 -0.13684083564E+03  0.18669583984E+03  0.12500167187E+03 0.  0.
          5    1    3    3  501    0 -0.53698724802E+02  0.28180685085E+02 -0.33688427695E+02  0.69373079922E+02  0.10000000000E+00 0. -1.
         -5    1    3    3    0  501  0.36356454188E+02 -0.42454787358E+02 -0.10315240794E+03  0.11732275992E+03  0.10000000000E+00 0. -1.
         21    1    1    2  504  503  0.17342270614E+02  0.14274102273E+02  0.27101635823E+01  0.22624087438E+02  0.00000000000E+00 0. -1.
<mgrwt>
<rscale>  1 0.12700363E+03</rscale>
<asrwt>0</asrwt>
<pdfrwt beam="1">  1       21 0.57837889E-02 0.12700363E+03</pdfrwt>
<pdfrwt beam="2">  1       21 0.26419277E-01 0.12700363E+03</pdfrwt>
<totfact> 0.28337264E+06</totfact>
</mgrwt>
</event>
<event>
 6    1  0.4187588E-002  0.1261753E+03  0.7546771E-02  0.1233244E+00
         21   -1    0    0  503  502  0.00000000000E+00  0.00000000000E+00  0.32803567359E+02  0.32803567359E+02  0.00000000000E+00 0.  1.
         21   -1    0    0  504  503 -0.00000000000E+00 -0.00000000000E+00 -0.23960691883E+03  0.23960691883E+03  0.00000000000E+00 0.  1.
         25    2    1    2    0    0 -0.45925154905E+01 -0.16416718319E+02 -0.21809457367E+03  0.25196319939E+03  0.12501844240E+03 0.  0.
          5    1    3    3  501    0 -0.62506579211E+02 -0.37306380532E+01 -0.14431442509E+03  0.15731386905E+03  0.10000000000E+00 0.  1.
         -5    1    3    3    0  501  0.57914063721E+02 -0.12686080266E+02 -0.73780148578E+02  0.94649330338E+02  0.10000000000E+00 0.  1.
         21    1    1    2  504  502  0.45925154905E+01  0.16416718319E+02  0.11291222199E+02  0.20447286804E+02  0.00000000000E+00 0.  1.
<mgrwt>
<rscale>  1 0.12617532E+03</rscale>
<asrwt>0</asrwt>
<pdfrwt beam="1">  1       21 0.50467028E-02 0.12617532E+03</pdfrwt>
<pdfrwt beam="2">  1       21 0.36862602E-01 0.12617532E+03</pdfrwt>
<totfact> 0.18698737E+06</totfact>
</mgrwt>
</event>
<event>
 6    1  0.4187588E-002  0.1430274E+03  0.7546771E-02  0.1209312E+00
         21   -1    0    0  503  502  0.00000000000E+00  0.00000000000E+00  0.61683372940E+02  0.61683372940E+02  0.00000000000E+00 0. -1.
         21   -1    0    0  504  503 -0.00000000000E+00 -0.00000000000E+00 -0.37037487671E+03  0.37037487671E+03  0.00000000000E+00 0. -1.
         25    2    1    2    0    0 -0.32023746798E+02  0.61700719490E+02 -0.32974145573E+03  0.35942492657E+03  0.12499740424E+03 0.  0.
          5    1    3    3  501    0  0.42750514697E+02  0.50530168225E+02 -0.13059774394E+03  0.14641272189E+03  0.10000000000E+00 0.  1.
         -5    1    3    3    0  501 -0.74774261495E+02  0.11170551265E+02 -0.19914371179E+03  0.21301220468E+03  0.10000000000E+00 0.  1.
         21    1    1    2  504  502  0.32023746798E+02 -0.61700719490E+02  0.21049951960E+02  0.72633323083E+02  0.00000000000E+00 0. -1.
<mgrwt>
<rscale>  1 0.14302745E+03</rscale>
<asrwt>0</asrwt>
<pdfrwt beam="1">  1       21 0.94897500E-02 0.14302745E+03</pdfrwt>
<pdfrwt beam="2">  1       21 0.56980748E-01 0.14302745E+03</pdfrwt>
<totfact> 0.26070771E+05</totfact>
</mgrwt>
</event>
<event>
 6    1  0.4187588E-002  0.1503330E+03  0.7546771E-02  0.1200064E+00
         21   -1    0    0  503  502  0.00000000000E+00  0.00000000000E+00  0.17008194969E+03  0.17008194969E+03  0.00000000000E+00 0.  1.
         21   -1    0    0  504  503 -0.00000000000E+00 -0.00000000000E+00 -0.69810475563E+03  0.69810475563E+03  0.00000000000E+00 0.  1.
         25    2    1    2    0    0  0.86957883942E+01  0.82993793434E+02 -0.67912933168E+03  0.69556930004E+03  0.12504565372E+03 0.  0.
          5    1    3    3  501    0 -0.35669132637E+02 -0.90029629365E+00 -0.38175342597E+03  0.38341724765E+03  0.10000000000E+00 0.  1.
         -5    1    3    3    0  501  0.44364921031E+02  0.83894089728E+02 -0.29737590572E+03  0.31215205239E+03  0.10000000000E+00 0.  1.
         21    1    1    2  504  502 -0.86957883942E+01 -0.82993793434E+02  0.15110652575E+03  0.17261740529E+03  0.00000000000E+00 0.  1.
<mgrwt>
<rscale>  1 0.15033297E+03</rscale>
<asrwt>0</asrwt>
<pdfrwt beam="1">  1       21 0.26166454E-01 0.15033297E+03</pdfrwt>
<pdfrwt beam="2">  1       21 0.10740073E+00 0.15033297E+03</pdfrwt>
<totfact> 0.99196481E+03</totfact>
</mgrwt>
</event>
<event>
 6    1  0.4187588E-002  0.1363543E+03  0.7546771E-02  0.1218320E+00
         21   -1    0    0  503  502  0.00000000000E+00  0.00000000000E+00  0.19704889801E+02  0.19704889801E+02  0.00000000000E+00 0.  1.
         21   -1    0    0  504  503 -0.00000000000E+00 -0.00000000000E+00 -0.47760952799E+03  0.47760952799E+03  0.00000000000E+00 0.  1.
         25    2    1    2    0    0 -0.52693642423E+02 -0.13792505894E+02 -0.36475843961E+03  0.38941137112E+03  0.12500257406E+03 0.  0.
          5    1    3    3  501    0  0.35926111583E+02  0.77851018138E+01 -0.52396783929E+02  0.64005673732E+02  0.10000000000E+00 0.  1.
         -5    1    3    3    0  501 -0.88619754006E+02 -0.21577607708E+02 -0.31236165568E+03  0.32540569739E+03  0.10000000000E+00 0.  1.
         21    1    1    2  504  502  0.52693642423E+02  0.13792505894E+02 -0.93146198577E+02  0.10790304667E+03  0.00000000000E+00 0.  1.
<mgrwt>
<rscale>  1 0.13635431E+03</rscale>
<asrwt>0</asrwt>
<pdfrwt beam="1">  1       21 0.30315220E-02 0.13635431E+03</pdfrwt>
<pdfrwt beam="2">  1       21 0.73478378E-01 0.13635431E+03</pdfrwt>
<totfact> 0.10384178E+06</totfact>
</mgrwt>
</event>
<event>
 6    1  0.4187588E-002  0.1281541E+03  0.7546771E-02  0.1230221E+00
         21   -1    0    0  503  502  0.00000000000E+00  0.00000000000E+00  0.34075871830E+03  0.34075871830E+03  0.00000000000E+00 0.  1.
         21   -1    0    0  504  503 -0.00000000000E+00 -0.00000000000E+00 -0.16677040643E+03  0.16677040643E+03  0.00000000000E+00 0.  1.
         25    2    1    2    0    0 -0.23167888454E+02  0.16177248712E+02 -0.14142532066E+03  0.19085229576E+03  0.12500009217E+03 0.  0.
          5    1    3    3  501    0 -0.72953986365E+02 -0.60575294508E+01 -0.73318475133E+02  0.10360785002E+03  0.10000000000E+00 0.  1.
         -5    1    3    3    0  501  0.49786097911E+02  0.22234778163E+02 -0.68106845523E+02  0.87244445739E+02  0.10000000000E+00 0.  1.
         21    1    1    2  504  502  0.23167888454E+02 -0.16177248712E+02  0.31541363252E+03  0.31667682898E+03  0.00000000000E+00 0.  1.
<mgrwt>
<rscale>  1 0.12815412E+03</rscale>
<asrwt>0</asrwt>
<pdfrwt beam="1">  1       21 0.52424418E-01 0.12815412E+03</pdfrwt>
<pdfrwt beam="2">  1       21 0.25656986E-01 0.12815412E+03</pdfrwt>
<totfact> 0.51365463E+04</totfact>
</mgrwt>
</event>
<event>
 6    1  0.4187588E-002  0.1279660E+03  0.7546771E-02  0.1230505E+00
         21   -1    0    0  504  502  0.00000000000E+00  0.00000000000E+00  0.55156626516E+02  0.55156626516E+02  0.00000000000E+00 0. -1.
         21   -1    0    0  502  503 -0.00000000000E+00 -0.00000000000E+00 -0.51897824856E+03  0.51897824856E+03  0.00000000000E+00 0.  1.
         25    2    1    2    0    0 -0.24819774798E+02  0.11648083247E+02 -0.50704820112E+03  0.52294663225E+03  0.12499441128E+03 0.  0.
          5    1    3    3  501    0 -0.98687608206E+01  0.68388538700E+02 -0.28839784656E+03  0.29655979594E+03  0.10000000000E+00 0.  1.
         -5    1    3    3    0  501 -0.14951013978E+02 -0.56740455452E+02 -0.21865035457E+03  0.22638683631E+03  0.10000000000E+00 0.  1.
         21    1    1    2  504  503  0.24819774798E+02 -0.11648083247E+02  0.43226579082E+02  0.51188242825E+02  0.00000000000E+00 0. -1.
<mgrwt>
<rscale>  1 0.12796602E+03</rscale>
<asrwt>0</asrwt>
<pdfrwt beam="1">  1       21 0.84856348E-02 0.12796602E+03</pdfrwt>
<pdfrwt beam="2">  1       21 0.79842808E-01 0.12796602E+03</pdfrwt>
<totfact> 0.15292235E+05</totfact>
</mgrwt>
</event>
<event>
 6    1  0.4187588E-002  0.1260508E+03  0.7546771E-02  0.1233436E+00
         21   -1    0    0  504  502  0.00000000000E+00  0.00000000000E+00  0.22296345871E+04  0.22296345871E+04  0.00000000000E+00 0.  1.
         21   -1    0    0  502  503 -0.00000000000E+00 -0.00000000000E+00 -0.28118552925E+01  0.28118552925E+01  0.00000000000E+00 0.  1.
         25    2    1    2    0    0 -0.13736224745E+02 -0.85498881918E+01  0.14537825660E+04  0.14592369737E+04  0.12500804723E+03 0.  0.
          5    1    3    3  501    0  0.13254972623E+02  0.75487144861E+01  0.20213047211E+02  0.25323006677E+02  0.10000000000E+00 0. -1.
         -5    1    3    3    0  501 -0.26991197367E+02 -0.16098602678E+02  0.14335695188E+04  0.14339139671E+04  0.10000000000E+00 0. -1.
         21    1    1    2  504  503  0.13736224745E+02  0.85498881918E+01  0.77304016583E+03  0.77320946867E+03  0.00000000000E+00 0.  1.
<mgrwt>
<rscale>  1 0.12605077E+03</rscale>
<asrwt>0</asrwt>
<pdfrwt beam="1">  1       21 0.34301929E+00 0.12605077E+03</pdfrwt>
<pdfrwt beam="2">  1       21 0.43259490E-03 0.12605077E+03</pdfrwt>
<totfact> 0.28613601E+05</totfact>
</mgrwt>
</event>
<event>
 6    1  0.4187588E-002  0.1287283E+03  0.7546771E-02  0.1229355E+00
         21   -1    0    0  504  502  0.00000000000E+00  0.00000000000E+00  0.33630341127E+03  0.33630341127E+03  0.00000000000E+00 0.  1.
         21   -1    0    0  502  503 -0.00000000000E+00 -0.00000000000E+00 -0.45385446803E+02  0.45385446803E+02  0.00000000000E+00 0.  1.
         25    2    1    2    0    0 -0.16125919621E+01 -0.30702158135E+02  0.48864475703E+02  0.13769067285E+03  0.12500304572E+03 0.  0.
          5    1    3    3  501    0 -0.53803455796E+02  0.13910875086E+02  0.39976361669E+02  0.68457605812E+02  0.10000000000E+00 0. -1.
         -5    1    3    3    0  501  0.52190863834E+02 -0.44613033221E+02  0.88881140339E+01  0.69233067042E+02  0.10000000000E+00 0. -1.
         21    1    1    2  504  503  0.16125919621E+01  0.30702158135E+02  0.24205348876E+03  0.24399818522E+03  0.00000000000E+00 0.  1.
<mgrwt>
<rscale>  1 0.12872834E+03</rscale>
<asrwt>0</asrwt>
<pdfrwt beam="1">  1       21 0.51738985E-01 0.12872834E+03</pdfrwt>
<pdfrwt beam="2">  1       21 0.69823767E-02 0.12872834E+03</pdfrwt>
<totfact> 0.54334435E+05</totfact>
</mgrwt>
</event>
<event>
 6    1  0.4187588E-002  0.1562925E+03  0.7546771E-02  0.1192947E+00
         21   -1    0    0  504  502  0.00000000000E+00  0.00000000000E+00  0.17760033805E+03  0.17760033805E+03  0.00000000000E+00 0. -1.
         21   -1    0    0  502  503 -0.00000000000E+00 -0.00000000000E+00 -0.95623061041E+02  0.95623061041E+02  0.00000000000E+00 0. -1.
         25    2    1    2    0    0 -0.59784371667E+02  0.72314573333E+02  0.13122730359E+02  0.15684248482E+03  0.12499516143E+03 0.  0.
          5    1    3    3  501    0 -0.76869539850E+02  0.94970301624E+02  0.27191137340E+02  0.12517049292E+03  0.10000000000E+00 0.  1.
         -5    1    3    3    0  501  0.17085168183E+02 -0.22655728291E+02 -0.14068406981E+02  0.31671991905E+02  0.10000000000E+00 0.  1.
         21    1    1    2  504  503  0.59784371667E+02 -0.72314573333E+02  0.68854546654E+02  0.11638091427E+03  0.00000000000E+00 0. -1.
<mgrwt>
<rscale>  1 0.15629254E+03</rscale>
<asrwt>0</asrwt>
<pdfrwt beam="1">  1       21 0.27323129E-01 0.15629254E+03</pdfrwt>
<pdfrwt beam="2">  1       21 0.14711240E-01 0.15629254E+03</pdfrwt>
<totfact> 0.52198246E+05</totfact>
</mgrwt>
</event>
<event>
 6    1  0.4187588E-002  0.1287321E+03  0.7546771E-02  0.1229349E+00
         21   -1    0    0  503  502  0.00000000000E+00  0.00000000000E+00  0.13986460483E+02  0.13986460483E+02  0.00000000000E+00 0. -1.
         21   -1    0    0  504  503 -0.00000000000E+00 -0.00000000000E+00 -0.52815056300E+03  0.52815056300E+03  0.00000000000E+00 0. -1.
         25    2    1    2    0    0  0.25575486196E+02  0.17154831091E+02 -0.47598384559E+03  0.49308474787E+03  0.12499421424E+03 0.  0.
          5    1    3    3  501    0 -0.38533277599E+01  0.15406053209E+02 -0.45857003891E+03  0.45884494679E+03  0.10000000000E+00 0. -1.
         -5    1    3    3    0  501  0.29428813956E+02  0.17487778827E+01 -0.17413806686E+02  0.34239801083E+02  0.10000000000E+00 0. -1.
         21    1    1    2  504  502 -0.25575486196E+02 -0.17154831091E+02 -0.38180256925E+02  0.49052275613E+02  0.00000000000E+00 0. -1.
<mgrwt>
<rscale>  1 0.12873208E+03</rscale>
<asrwt>0</asrwt>
<pdfrwt beam="1">  1       21 0.21517629E-02 0.12873208E+03</pdfrwt>
<pdfrwt beam="2">  1       21 0.81253942E-01 0.12873208E+03</pdfrwt>
<totfact> 0.14516405E+06</totfact>
</mgrwt>
</event>
<event>
 6    1  0.4187588E-002  0.1266719E+03  0.7546771E-02  0.1232479E+00
         21   -1    0    0  504  502  0.00000000000E+00  0.00000000000E+00  0.10364084823E+03  0.10364084823E+03  0.00000000000E+00 0. -1.
         21   -1    0    0  502  503 -0.00000000000E+00 -0.00000000000E+00 -0.52396406961E+02  0.52396406961E+02  0.00000000000E+00 0. -1.
         25    2    1    2    0    0  0.24555566983E+01  0.20369395536E+02  0.41278094444E+02  0.13322782508E+03  0.12499932104E+03 0.  0.
          5    1    3    3  501    0  0.41552482917E+02 -0.33011760972E+02  0.40995386169E+02  0.67059800821E+02  0.10000000000E+00 0.  1.
         -5    1    3    3    0  501 -0.39096926218E+02  0.53381156508E+02  0.28270827512E+00  0.66168024255E+02  0.10000000000E+00 0.  1.
         21    1    1    2  504  503 -0.24555566983E+01 -0.20369395536E+02  0.99663468268E+01  0.22809430117E+02  0.00000000000E+00 0. -1.
<mgrwt>
<rscale>  1 0.12667191E+03</rscale>
<asrwt>0</asrwt>
<pdfrwt beam="1">  1       21 0.15944746E-01 0.12667191E+03</pdfrwt>
<pdfrwt beam="2">  1       21 0.80609857E-02 0.12667191E+03</pdfrwt>
<totfact> 0.40978831E+06</totfact>
</mgrwt>
</event>
<event>
 6    1  0.4187588E-002  0.1264576E+03  0.7546771E-02  0.1232809E+00
         21   -1    0    0  504  502  0.00000000000E+00  0.00000000000E+00  0.17663389725E+02  0.17663389725E+02  0.00000000000E+00 0. -1.
         21   -1    0    0  502  503 -0.00000000000E+00 -0.00000000000E+00 -0.30746929680E+03  0.30746929680E+03  0.00000000000E+00 0. -1.
         25    2    1    2    0    0  0.99241808763E+01  0.16363962905E+02 -0.26646079269E+03  0.29494555328E+03  0.12500102683E+03 0.  0.
          5    1    3    3  501    0  0.12578014012E+01  0.54966633491E+02 -0.48167756294E+02  0.73096207891E+02  0.10000000000E+00 0.  1.
         -5    1    3    3    0  501  0.86663794750E+01 -0.38602670586E+02 -0.21829303640E+03  0.22184934539E+03  0.10000000000E+00 0.  1.
         21    1    1    2  504  503 -0.99241808763E+01 -0.16363962905E+02 -0.23345114382E+02  0.30187133244E+02  0.00000000000E+00 0. -1.
<mgrwt>
<rscale>  1 0.12645760E+03</rscale>
<asrwt>0</asrwt>
<pdfrwt beam="1">  1       21 0.27174448E-02 0.12645760E+03</pdfrwt>
<pdfrwt beam="2">  1       21 0.47302966E-01 0.12645760E+03</pdfrwt>
<totfact> 0.31556316E+06</totfact>
</mgrwt>
</event>
<event>
 6    1  0.4187588E-002  0.1267152E+03  0.7546771E-02  0.1232413E+00
         21   -1    0    0  504  502  0.00000000000E+00  0.00000000000E+00  0.64811393676E+03  0.64811393676E+03  0.00000000000E+00 0.  1.
         21   -1    0    0  502  503 -0.00000000000E+00 -0.00000000000E+00 -0.84178750264E+01  0.84178750264E+01  0.00000000000E+00 0.  1.
         25    2    1    2    0    0 -0.32127963419E+01 -0.20592960692E+02  0.53787798428E+03  0.55260244642E+03  0.12498938243E+03 0.  0.
          5    1    3    3  501    0  0.43114158036E+02 -0.37174914722E+02  0.43333676109E+03  0.43706013707E+03  0.10000000000E+00 0.  1.
         -5    1    3    3    0  501 -0.46326954378E+02  0.16581954030E+02  0.10454122319E+03  0.11554230934E+03  0.10000000000E+00 0.  1.
         21    1    1    2  504  503  0.32127963419E+01  0.20592960692E+02  0.10181807745E+03  0.10392936537E+03  0.00000000000E+00 0.  1.
<mgrwt>
<rscale>  1 0.12671518E+03</rscale>
<asrwt>0</asrwt>
<pdfrwt beam="1">  1       21 0.99709798E-01 0.12671518E+03</pdfrwt>
<pdfrwt beam="2">  1       21 0.12950582E-02 0.12671518E+03</pdfrwt>
<totfact> 0.20508269E+06</totfact>
</mgrwt>
</event>
<event>
 6    1  0.4187588E-002  0.1264490E+03  0.7546771E-02  0.1232822E+00
         21   -1    0    0  503  502  0.00000000000E+00  0.00000000000E+00  0.58791590414E+03  0.58791590414E+03  0.00000000000E+00 0. -1.
         21   -1    0    0  504  503 -0.00000000000E+00 -0.00000000000E+00 -0.90904240474E+01  0.90904240474E+01  0.00000000000E+00 0. -1.
         25    2    1    2    0    0 -0.16060329450E+02 -0.10334610715E+02  0.48165217605E+03  0.49797406385E+03  0.12499844485E+03 0.  0.
          5    1    3    3  501    0 -0.26972358561E+01 -0.66715854538E+02  0.21639966009E+03  0.22646656092E+03  0.10000000000E+00 0.  1.
         -5    1    3    3    0  501 -0.13363093594E+02  0.56381243824E+02  0.26525251596E+03  0.27150750294E+03  0.10000000000E+00 0.  1.
         21    1    1    2  504  502  0.16060329450E+02  0.10334610715E+02  0.97173304044E+02  0.99032264336E+02  0.00000000000E+00 0.  1.
<mgrwt>
<rscale>  1 0.12644900E+03</rscale>
<asrwt>0</asrwt>
<pdfrwt beam="1">  1       21 0.90448571E-01 0.12644900E+03</pdfrwt>
<pdfrwt beam="2">  1       21 0.13985272E-02 0.12644900E+03</pdfrwt>
<totfact> 0.22733417E+06</totfact>
</mgrwt>
</event>
<event>
 6    1  0.4187588E-002  0.1261298E+03  0.7546771E-02  0.1233314E+00
         21   -1    0    0  504  502  0.00000000000E+00  0.00000000000E+00  0.84967324272E+02  0.84967324272E+02  0.00000000000E+00 0. -1.
         21   -1    0    0  502  503 -0.00000000000E+00 -0.00000000000E+00 -0.11109471442E+03  0.11109471442E+03  0.00000000000E+00 0. -1.
         25    2    1    2    0    0 -0.66700400804E+01 -0.15475334977E+02 -0.73360634357E+02  0.14591271381E+03  0.12499904780E+03 0.  0.
          5    1    3    3  501    0 -0.35368720143E+02  0.44108461233E+02 -0.17051112520E+02  0.59052969063E+02  0.10000000000E+00 0.  1.
         -5    1    3    3    0  501  0.28698680063E+02 -0.59583796211E+02 -0.56309521837E+02  0.86859744748E+02  0.10000000000E+00 0.  1.
         21    1    1    2  504  503  0.66700400804E+01  0.15475334977E+02  0.47233244210E+02  0.50149324880E+02  0.00000000000E+00 0. -1.
<mgrwt>
<rscale>  1 0.12612984E+03</rscale>
<asrwt>0</asrwt>
<pdfrwt beam="1">  1       21 0.13071896E-01 0.12612984E+03</pdfrwt>
<pdfrwt beam="2">  1       21 0.17091495E-01 0.12612984E+03</pdfrwt>
<totfact> 0.15484814E+06</totfact>
</mgrwt>
</event>
<event>
 6    1  0.4187588E-002  0.1282811E+03  0.7546771E-02  0.1230029E+00
         21   -1    0    0  504  502  0.00000000000E+00  0.00000000000E+00  0.30079086938E+02  0.30079086938E+02  0.00000000000E+00 0. -1.
         21   -1    0    0  502  503 -0.00000000000E+00 -0.00000000000E+00 -0.20713316731E+03  0.20713316731E+03  0.00000000000E+00 0. -1.
         25    2    1    2    0    0 -0.36834579862E+01 -0.28590436921E+02 -0.15304411467E+03  0.19969613239E+03  0.12500025325E+03 0.  0.
          5    1    3    3  501    0  0.48787368295E+02 -0.46321292320E+02 -0.54197065255E+02  0.86389821794E+02  0.10000000000E+00 0. -1.
         -5    1    3    3    0  501 -0.52470826281E+02  0.17730855399E+02 -0.98847049413E+02  0.11330631060E+03  0.10000000000E+00 0. -1.
         21    1    1    2  504  503  0.36834579862E+01  0.28590436921E+02 -0.24009965709E+02  0.37516121860E+02  0.00000000000E+00 0. -1.
<mgrwt>
<rscale>  1 0.12828111E+03</rscale>
<asrwt>0</asrwt>
<pdfrwt beam="1">  1       21 0.46275520E-02 0.12828111E+03</pdfrwt>
<pdfrwt beam="2">  1       21 0.31866640E-01 0.12828111E+03</pdfrwt>
<totfact> 0.28776401E+06</totfact>
</mgrwt>
</event>
<event>
 6    1  0.4187588E-002  0.1285945E+03  0.7546771E-02  0.1229556E+00
         21   -1    0    0  504  502  0.00000000000E+00  0.00000000000E+00  0.22271467584E+03  0.22271467584E+03  0.00000000000E+00 0.  1.
         21   -1    0    0  502  503 -0.00000000000E+00 -0.00000000000E+00 -0.35453368951E+02  0.35453368951E+02  0.00000000000E+00 0.  1.
         25    2    1    2    0    0 -0.29833965317E+02  0.46796364209E+01  0.91680250727E+02  0.15792981466E+03  0.12499837399E+03 0.  0.
          5    1    3    3  501    0  0.22076590313E+02 -0.11386746364E+02 -0.21196051964E+02  0.32654501244E+02  0.10000000000E+00 0. -1.
         -5    1    3    3    0  501 -0.51910555629E+02  0.16066382785E+02  0.11287630269E+03  0.12527531341E+03  0.10000000000E+00 0. -1.
         21    1    1    2  504  503  0.29833965317E+02 -0.46796364209E+01  0.95581056164E+02  0.10023823014E+03  0.00000000000E+00 0.  1.
<mgrwt>
<rscale>  1 0.12859455E+03</rscale>
<asrwt>0</asrwt>
<pdfrwt beam="1">  1       21 0.34263795E-01 0.12859455E+03</pdfrwt>
<pdfrwt beam="2">  1       21 0.54543646E-02 0.12859455E+03</pdfrwt>
<totfact> 0.18954033E+06</totfact>
</mgrwt>
</event>
<event>
 6    1  0.4187588E-002  0.1260859E+03  0.7546771E-02  0.1233382E+00
         21   -1    0    0  504  502  0.00000000000E+00  0.00000000000E+00  0.18735997815E+02  0.18735997815E+02  0.00000000000E+00 0.  1.
         21   -1    0    0  502  503 -0.00000000000E+00 -0.00000000000E+00 -0.27252505440E+03  0.27252505440E+03  0.00000000000E+00 0.  1.
         25    2    1    2    0    0 -0.15419015650E+01  0.16666107280E+02 -0.22060311855E+03  0.25409328291E+03  0.12497009206E+03 0.  0.
          5    1    3    3  501    0  0.43330533578E+02  0.25550342917E+02 -0.19559532977E+03  0.20196014011E+03  0.10000000000E+00 0.  1.
         -5    1    3    3    0  501 -0.44872435143E+02 -0.88842356361E+01 -0.25007788781E+02  0.52133142800E+02  0.10000000000E+00 0.  1.
         21    1    1    2  504  503  0.15419015650E+01 -0.16666107280E+02 -0.33185938031E+02  0.37167769308E+02  0.00000000000E+00 0. -1.
<mgrwt>
<rscale>  1 0.12608593E+03</rscale>
<asrwt>0</asrwt>
<pdfrwt beam="1">  1       21 0.28824615E-02 0.12608593E+03</pdfrwt>
<pdfrwt beam="2">  1       21 0.41926927E-01 0.12608593E+03</pdfrwt>
<totfact> 0.36597652E+06</totfact>
</mgrwt>
</event>
<event>
 6    1  0.4187588E-002  0.1276671E+03  0.7546771E-02  0.1230959E+00
         21   -1    0    0  503  502  0.00000000000E+00  0.00000000000E+00  0.33423877281E+01  0.33423877281E+01  0.00000000000E+00 0. -1.
         21   -1    0    0  504  503 -0.00000000000E+00 -0.00000000000E+00 -0.18514888286E+04  0.18514888286E+04  0.00000000000E+00 0. -1.
         25    2    1    2    0    0 -0.25392321001E+02  0.53682942144E+01 -0.13545923930E+04  0.13605952537E+04  0.12500121906E+03 0.  0.
          5    1    3    3  501    0 -0.65001101039E+02  0.31198037227E+02 -0.56398869855E+03  0.56857868652E+03  0.10000000000E+00 0. -1.
         -5    1    3    3    0  501  0.39608780038E+02 -0.25829743013E+02 -0.79060369442E+03  0.79201656720E+03  0.10000000000E+00 0. -1.
         21    1    1    2  504  502  0.25392321001E+02 -0.53682942144E+01 -0.49355404791E+03  0.49423596263E+03  0.00000000000E+00 0. -1.
<mgrwt>
<rscale>  1 0.12766712E+03</rscale>
<asrwt>0</asrwt>
<pdfrwt beam="1">  1       21 0.51421333E-03 0.12766712E+03</pdfrwt>
<pdfrwt beam="2">  1       21 0.28484453E+00 0.12766712E+03</pdfrwt>
<totfact> 0.46606385E+05</totfact>
</mgrwt>
</event>
<event>
 6    1  0.4187588E-002  0.1264671E+03  0.7546771E-02  0.1232794E+00
         21   -1    0    0  504  502  0.00000000000E+00  0.00000000000E+00  0.46810506046E+03  0.46810506046E+03  0.00000000000E+00 0. -1.
         21   -1    0    0  502  503 -0.00000000000E+00 -0.00000000000E+00 -0.15024887170E+02  0.15024887170E+02  0.00000000000E+00 0. -1.
         25    2    1    2    0    0 -0.13081008202E+02  0.14083151274E+02  0.26032089663E+03  0.28941472710E+03  0.12499786845E+03 0.  0.
          5    1    3    3  501    0 -0.40002252407E+02 -0.23533922368E+02  0.22874810256E+03  0.23340893326E+03  0.10000000000E+00 0.  1.
         -5    1    3    3    0  501  0.26921244205E+02  0.37617073642E+02  0.31572794071E+02  0.56005793846E+02  0.10000000000E+00 0.  1.
         21    1    1    2  504  503  0.13081008202E+02 -0.14083151274E+02  0.19275927666E+03  0.19371522053E+03  0.00000000000E+00 0. -1.
<mgrwt>
<rscale>  1 0.12646705E+03</rscale>
<asrwt>0</asrwt>
<pdfrwt beam="1">  1       21 0.72016152E-01 0.12646705E+03</pdfrwt>
<pdfrwt beam="2">  1       21 0.23115215E-02 0.12646705E+03</pdfrwt>
<totfact> 0.16883614E+06</totfact>
</mgrwt>
</event>
<event>
 6    1  0.4187588E-002  0.1286105E+03  0.7546771E-02  0.1229532E+00
         21   -1    0    0  503  502  0.00000000000E+00  0.00000000000E+00  0.23609853373E+03  0.23609853373E+03  0.00000000000E+00 0.  1.
         21   -1    0    0  504  503 -0.00000000000E+00 -0.00000000000E+00 -0.31954050749E+02  0.31954050749E+02  0.00000000000E+00 0.  1.
         25    2    1    2    0    0 -0.21006553040E+02 -0.21777401553E+02  0.11023316149E+03  0.16938715592E+03  0.12500051283E+03 0.  0.
          5    1    3    3  501    0 -0.41883261692E+02  0.43262421879E+02  0.48540091422E+02  0.77343359327E+02  0.10000000000E+00 0. -1.
         -5    1    3    3    0  501  0.20876708652E+02 -0.65039823432E+02  0.61693070068E+02  0.92043796590E+02  0.10000000000E+00 0. -1.
         21    1    1    2  504  502  0.21006553040E+02  0.21777401553E+02  0.93911321492E+02  0.98665428563E+02  0.00000000000E+00 0.  1.
<mgrwt>
<rscale>  1 0.12861049E+03</rscale>
<asrwt>0</asrwt>
<pdfrwt beam="1">  1       21 0.36322850E-01 0.12861049E+03</pdfrwt>
<pdfrwt beam="2">  1       21 0.49160080E-02 0.12861049E+03</pdfrwt>
<totfact> 0.20128048E+06</totfact>
</mgrwt>
</event>
<event>
 6    1  0.4187588E-002  0.1279527E+03  0.7546771E-02  0.1230526E+00
         21   -1    0    0  504  502  0.00000000000E+00  0.00000000000E+00  0.87130374241E+02  0.87130374241E+02  0.00000000000E+00 0.  1.
         21   -1    0    0  502  503 -0.00000000000E+00 -0.00000000000E+00 -0.18822183836E+03  0.18822183836E+03  0.00000000000E+00 0. -1.
         25    2    1    2    0    0 -0.20135161560E+02 -0.18492134826E+02 -0.16326693769E+03  0.20743186737E+03  0.12499801148E+03 0.  0.
          5    1    3    3  501    0 -0.50750497016E+02 -0.52243556670E+01 -0.11843072231E+02  0.52375330064E+02  0.10000000000E+00 0.  1.
         -5    1    3    3    0  501  0.30615335456E+02 -0.13267779159E+02 -0.15142386546E+03  0.15505653730E+03  0.10000000000E+00 0.  1.
         21    1    1    2  504  503  0.20135161560E+02  0.18492134826E+02  0.62175473579E+02  0.67920345230E+02  0.00000000000E+00 0.  1.
<mgrwt>
<rscale>  1 0.12795267E+03</rscale>
<asrwt>0</asrwt>
<pdfrwt beam="1">  1       21 0.13404673E-01 0.12795267E+03</pdfrwt>
<pdfrwt beam="2">  1       21 0.28957206E-01 0.12795267E+03</pdfrwt>
<totfact> 0.55296432E+05</totfact>
</mgrwt>
</event>
<event>
 6    1  0.4187588E-002  0.1270393E+03  0.7546771E-02  0.1231916E+00
         21   -1    0    0  504  502  0.00000000000E+00  0.00000000000E+00  0.24719880633E+03  0.24719880633E+03  0.00000000000E+00 0. -1.
         21   -1    0    0  502  503 -0.00000000000E+00 -0.00000000000E+00 -0.11437551130E+03  0.11437551130E+03  0.00000000000E+00 0.  1.
         25    2    1    2    0    0  0.22563703143E+02 -0.22148734290E+01 -0.78304077051E+02  0.14923309788E+03  0.12499985062E+03 0.  0.
          5    1    3    3  501    0  0.32586651680E+02  0.40045419150E+02 -0.90438013453E+02  0.10413726394E+03  0.10000000000E+00 0. -1.
         -5    1    3    3    0  501 -0.10022948537E+02 -0.42260292579E+02  0.12133936402E+02  0.45095833941E+02  0.10000000000E+00 0. -1.
         21    1    1    2  504  503 -0.22563703143E+02  0.22148734290E+01  0.21112737208E+03  0.21234121975E+03  0.00000000000E+00 0. -1.
<mgrwt>
<rscale>  1 0.12703932E+03</rscale>
<asrwt>0</asrwt>
<pdfrwt beam="1">  1       21 0.38030585E-01 0.12703932E+03</pdfrwt>
<pdfrwt beam="2">  1       21 0.17596233E-01 0.12703932E+03</pdfrwt>
<totfact> 0.19877163E+05</totfact>
</mgrwt>
</event>
<event>
 6    1  0.4187588E-002  0.1355781E+03  0.7546771E-02  0.1219406E+00
         21   -1    0    0  504  502  0.00000000000E+00  0.00000000000E+00  0.41271411760E+03  0.41271411760E+03  0.00000000000E+00 0. -1.
         21   -1    0    0  502  503 -0.00000000000E+00 -0.00000000000E+00 -0.32131402537E+02  0.32131402537E+02  0.00000000000E+00 0. -1.
         25    2    1    2    0    0 -0.47785041406E+02  0.21777419089E+02  0.12661949580E+03  0.18550986331E+03  0.12499498592E+03 0.  0.
          5    1    3    3  501    0 -0.72989917064E+02  0.34657818785E+02  0.32270254886E+02  0.87006159244E+02  0.10000000000E+00 0. -1.
         -5    1    3    3    0  501  0.25204875658E+02 -0.12880399696E+02  0.94349240919E+02  0.98503704069E+02  0.10000000000E+00 0. -1.
         21    1    1    2  504  503  0.47785041406E+02 -0.21777419089E+02  0.25396321926E+03  0.25933565683E+03  0.00000000000E+00 0. -1.
<mgrwt>
<rscale>  1 0.13557807E+03</rscale>
<asrwt>0</asrwt>
<pdfrwt beam="1">  1       21 0.63494476E-01 0.13557807E+03</pdfrwt>
<pdfrwt beam="2">  1       21 0.49432930E-02 0.13557807E+03</pdfrwt>
<totfact> 0.63320573E+05</totfact>
</mgrwt>
</event>
<event>
 6    1  0.4187588E-002  0.1318879E+03  0.7546771E-02  0.1224681E+00
         21   -1    0    0  503  502  0.00000000000E+00  0.00000000000E+00  0.51620002929E+01  0.51620002929E+01  0.00000000000E+00 0.  1.
         21   -1    0    0  504  503 -0.00000000000E+00 -0.00000000000E+00 -0.17887129611E+04  0.17887129611E+04  0.00000000000E+00 0.  1.
         25    2    1    2    0    0  0.10876274887E+02 -0.40658073968E+02 -0.16058930189E+04  0.16112997257E+04  0.12499218311E+03 0.  0.
          5    1    3    3  501    0  0.26606759729E+02 -0.78034360230E+02 -0.13165351987E+04  0.13191141802E+04  0.10000000000E+00 0. -1.
         -5    1    3    3    0  501 -0.15730484842E+02  0.37376286262E+02 -0.28935782018E+03  0.29218554555E+03  0.10000000000E+00 0. -1.
         21    1    1    2  504  502 -0.10876274887E+02  0.40658073968E+02 -0.17765794197E+03  0.18257523567E+03  0.00000000000E+00 0.  1.
<mgrwt>
<rscale>  1 0.13188790E+03</rscale>
<asrwt>0</asrwt>
<pdfrwt beam="1">  1       21 0.79415360E-03 0.13188790E+03</pdfrwt>
<pdfrwt beam="2">  1       21 0.27518671E+00 0.13188790E+03</pdfrwt>
<totfact> 0.26772825E+05</totfact>
</mgrwt>
</event>
<event>
 6    1  0.4187588E-002  0.1262274E+03  0.7546771E-02  0.1233163E+00
         21   -1    0    0  503  502  0.00000000000E+00  0.00000000000E+00  0.64746608183E+02  0.64746608183E+02  0.00000000000E+00 0.  1.
         21   -1    0    0  504  503 -0.00000000000E+00 -0.00000000000E+00 -0.10577860141E+03  0.10577860141E+03  0.00000000000E+00 0.  1.
         25    2    1    2    0    0 -0.96355942044E+01 -0.14125735670E+02 -0.64291181161E+02  0.14165704534E+03  0.12506390940E+03 0.  0.
          5    1    3    3  501    0  0.42351846675E+02 -0.33849715318E+02 -0.66755839966E+02  0.85999036701E+02  0.10000000000E+00 0. -1.
         -5    1    3    3    0  501 -0.51987440879E+02  0.19723979648E+02  0.24646588046E+01  0.55658008636E+02  0.10000000000E+00 0. -1.
         21    1    1    2  504  502  0.96355942044E+01  0.14125735670E+02  0.23259187937E+02  0.28868164253E+02  0.00000000000E+00 0.  1.
<mgrwt>
<rscale>  1 0.12622742E+03</rscale>
<asrwt>0</asrwt>
<pdfrwt beam="1">  1       21 0.99610166E-02 0.12622742E+03</pdfrwt>
<pdfrwt beam="2">  1       21 0.16273631E-01 0.12622742E+03</pdfrwt>
<totfact> 0.27345104E+06</totfact>
</mgrwt>
</event>
<event>
 6    1  0.4187588E-002  0.1260014E+03  0.7546771E-02  0.1233512E+00
         21   -1    0    0  503  502  0.00000000000E+00  0.00000000000E+00  0.20819887464E+03  0.20819887464E+03  0.00000000000E+00 0.  1.
         21   -1    0    0  504  503 -0.00000000000E+00 -0.00000000000E+00 -0.35613641882E+02  0.35613641882E+02  0.00000000000E+00 0.  1.
         25    2    1    2    0    0 -0.10946392584E+02  0.11336688688E+02  0.78581887693E+02  0.14849739230E+03  0.12501207312E+03 0.  0.
          5    1    3    3  501    0 -0.67884568214E+02  0.99005374179E+01  0.36721056434E+02  0.77812474760E+02  0.10000000000E+00 0. -1.
         -5    1    3    3    0  501  0.56938175630E+02  0.14361512699E+01  0.41860831259E+02  0.70684917544E+02  0.10000000000E+00 0. -1.
         21    1    1    2  504  502  0.10946392584E+02 -0.11336688688E+02  0.94003345066E+02  0.95315124217E+02  0.00000000000E+00 0.  1.
<mgrwt>
<rscale>  1 0.12600144E+03</rscale>
<asrwt>0</asrwt>
<pdfrwt beam="1">  1       21 0.32030595E-01 0.12600144E+03</pdfrwt>
<pdfrwt beam="2">  1       21 0.54790220E-02 0.12600144E+03</pdfrwt>
<totfact> 0.21441561E+06</totfact>
</mgrwt>
</event>
<event>
 6    1  0.4187588E-002  0.1275768E+03  0.7546771E-02  0.1231096E+00
         21   -1    0    0  504  502  0.00000000000E+00  0.00000000000E+00  0.73768661063E+02  0.73768661063E+02  0.00000000000E+00 0. -1.
         21   -1    0    0  502  503 -0.00000000000E+00 -0.00000000000E+00 -0.90793505327E+02  0.90793505327E+02  0.00000000000E+00 0. -1.
         25    2    1    2    0    0 -0.15724328835E+02  0.20086262418E+02 -0.36241750439E+02  0.13262469720E+03  0.12500053351E+03 0.  0.
          5    1    3    3  501    0  0.39169314792E+02 -0.30131532799E+02  0.99418535146E+00  0.49428158924E+02  0.10000000000E+00 0.  1.
         -5    1    3    3    0  501 -0.54893643627E+02  0.50217795217E+02 -0.37235935790E+02  0.83196538277E+02  0.10000000000E+00 0.  1.
         21    1    1    2  504  503  0.15724328835E+02 -0.20086262418E+02  0.19216906175E+02  0.31937469189E+02  0.00000000000E+00 0. -1.
<mgrwt>
<rscale>  1 0.12757682E+03</rscale>
<asrwt>0</asrwt>
<pdfrwt beam="1">  1       21 0.11349025E-01 0.12757682E+03</pdfrwt>
<pdfrwt beam="2">  1       21 0.13968232E-01 0.12757682E+03</pdfrwt>
<totfact> 0.28653340E+06</totfact>
</mgrwt>
</event>
<event>
 6    1  0.4187588E-002  0.1262226E+03  0.7546771E-02  0.1233171E+00
         21   -1    0    0  503  502  0.00000000000E+00  0.00000000000E+00  0.42850194549E+02  0.42850194549E+02  0.00000000000E+00 0. -1.
         21   -1    0    0  504  503 -0.00000000000E+00 -0.00000000000E+00 -0.94555954972E+03  0.94555954972E+03  0.00000000000E+00 0.  1.
         25    2    1    2    0    0 -0.11335181869E+02  0.13236466148E+02 -0.93937298761E+03  0.94781525785E+03  0.12501385033E+03 0.  0.
          5    1    3    3  501    0  0.42662600329E+01  0.17961084205E+02 -0.92741365205E+03  0.92759737684E+03  0.10000000000E+00 0.  1.
         -5    1    3    3    0  501 -0.15601441902E+02 -0.47246180571E+01 -0.11959335559E+02  0.20217881002E+02  0.10000000000E+00 0.  1.
         21    1    1    2  504  502  0.11335181869E+02 -0.13236466148E+02  0.36663632439E+02  0.40594486420E+02  0.00000000000E+00 0. -1.
<mgrwt>
<rscale>  1 0.12622263E+03</rscale>
<asrwt>0</asrwt>
<pdfrwt beam="1">  1       21 0.65923388E-02 0.12622263E+03</pdfrwt>
<pdfrwt beam="2">  1       21 0.14547067E+00 0.12622263E+03</pdfrwt>
<totfact> 0.56477693E+04</totfact>
</mgrwt>
</event>
<event>
 6    1  0.4187588E-002  0.1335243E+03  0.7546771E-02  0.1222318E+00
         21   -1    0    0  504  502  0.00000000000E+00  0.00000000000E+00  0.82478722306E+02  0.82478722306E+02  0.00000000000E+00 0.  1.
         21   -1    0    0  502  503 -0.00000000000E+00 -0.00000000000E+00 -0.12539291744E+03  0.12539291744E+03  0.00000000000E+00 0.  1.
         25    2    1    2    0    0  0.32276855494E+02  0.34094096404E+02 -0.72934550161E+02  0.15214530372E+03  0.12499816810E+03 0.  0.
          5    1    3    3  501    0  0.21457679398E+02 -0.39677267682E+02  0.36557629845E+01  0.45255852427E+02  0.10000000000E+00 0. -1.
         -5    1    3    3    0  501  0.10819176096E+02  0.73771364086E+02 -0.76590313146E+02  0.10688945130E+03  0.10000000000E+00 0. -1.
         21    1    1    2  504  503 -0.32276855494E+02 -0.34094096404E+02  0.30020355030E+02  0.55726336021E+02  0.00000000000E+00 0.  1.
<mgrwt>
<rscale>  1 0.13352432E+03</rscale>
<asrwt>0</asrwt>
<pdfrwt beam="1">  1       21 0.12689034E-01 0.13352432E+03</pdfrwt>
<pdfrwt beam="2">  1       21 0.19291218E-01 0.13352432E+03</pdfrwt>
<totfact> 0.13092716E+06</totfact>
</mgrwt>
</event>
<event>
 6    1  0.4187588E-002  0.1299560E+03  0.7546771E-02  0.1227521E+00
         21   -1    0    0  504  502  0.00000000000E+00  0.00000000000E+00  0.14203154352E+03  0.14203154352E+03  0.00000000000E+00 0.  1.
         21   -1    0    0  502  503 -0.00000000000E+00 -0.00000000000E+00 -0.59240782667E+02  0.59240782667E+02  0.00000000000E+00 0.  1.
         25    2    1    2    0    0  0.57808782824E+01 -0.35087727832E+02  0.23394999516E+02  0.13204499298E+03  0.12499594782E+03 0.  0.
          5    1    3    3  501    0 -0.57053510989E+02 -0.35306390638E+02  0.10741979919E+02  0.67948837140E+02  0.10000000000E+00 0. -1.
         -5    1    3    3    0  501  0.62834389272E+02  0.21866280608E+00  0.12653019597E+02  0.64096155840E+02  0.10000000000E+00 0. -1.
         21    1    1    2  504  503 -0.57808782824E+01  0.35087727832E+02  0.59395761339E+02  0.69227333208E+02  0.00000000000E+00 0.  1.
<mgrwt>
<rscale>  1 0.12995597E+03</rscale>
<asrwt>0</asrwt>
<pdfrwt beam="1">  1       21 0.21851007E-01 0.12995597E+03</pdfrwt>
<pdfrwt beam="2">  1       21 0.91139666E-02 0.12995597E+03</pdfrwt>
<totfact> 0.18589156E+06</totfact>
</mgrwt>
</event>
<event>
 6    1  0.4187588E-002  0.1306363E+03  0.7546771E-02  0.1226515E+00
         21   -1    0    0  503  502  0.00000000000E+00  0.00000000000E+00  0.16477379094E+02  0.16477379094E+02  0.00000000000E+00 0. -1.
         21   -1    0    0  504  503 -0.00000000000E+00 -0.00000000000E+00 -0.83018867705E+03  0.83018867705E+03  0.00000000000E+00 0. -1.
         25    2    1    2    0    0  0.28027098794E+02 -0.25568784682E+02 -0.79251241100E+03  0.80320718104E+03  0.12500629213E+03 0.  0.
          5    1    3    3  501    0 -0.16352801737E+02 -0.55266697611E+02 -0.19570123064E+03  0.20401177335E+03  0.10000000000E+00 0.  1.
         -5    1    3    3    0  501  0.44379900531E+02  0.29697912929E+02 -0.59681118036E+03  0.59919540770E+03  0.10000000000E+00 0.  1.
         21    1    1    2  504  502 -0.28027098794E+02  0.25568784682E+02 -0.21198886957E+02  0.43458875102E+02  0.00000000000E+00 0. -1.
<mgrwt>
<rscale>  1 0.13063634E+03</rscale>
<asrwt>0</asrwt>
<pdfrwt beam="1">  1       21 0.25349812E-02 0.13063634E+03</pdfrwt>
<pdfrwt beam="2">  1       21 0.12772134E+00 0.13063634E+03</pdfrwt>
<totfact> 0.38378837E+05</totfact>
</mgrwt>
</event>
<event>
 6    1  0.4187588E-002  0.1267145E+03  0.7546771E-02  0.1232414E+00
         21   -1    0    0  504  502  0.00000000000E+00  0.00000000000E+00  0.21546177728E+02  0.21546177728E+02  0.00000000000E+00 0.  1.
         21   -1    0    0  502  503 -0.00000000000E+00 -0.00000000000E+00 -0.26606768305E+03  0.26606768305E+03  0.00000000000E+00 0.  1.
         25    2    1    2    0    0  0.54766766154E+01 -0.20030528164E+02 -0.18225702664E+03  0.22197788474E+03  0.12500136602E+03 0.  0.
          5    1    3    3  501    0  0.53595403974E+02 -0.46535032921E+02 -0.11494662088E+03  0.13509519706E+03  0.10000000000E+00 0. -1.
         -5    1    3    3    0  501 -0.48118727359E+02  0.26504504756E+02 -0.67310405762E+02  0.86882687682E+02  0.10000000000E+00 0. -1.
         21    1    1    2  504  503 -0.54766766154E+01  0.20030528164E+02 -0.62264478680E+02  0.65635976039E+02  0.00000000000E+00 0.  1.
<mgrwt>
<rscale>  1 0.12671447E+03</rscale>
<asrwt>0</asrwt>
<pdfrwt beam="1">  1       21 0.33147965E-02 0.12671447E+03</pdfrwt>
<pdfrwt beam="2">  1       21 0.40933490E-01 0.12671447E+03</pdfrwt>
<totfact> 0.30536574E+06</totfact>
</mgrwt>
</event>
<event>
 6    1  0.4187588E-002  0.1333011E+03  0.7546771E-02  0.1222638E+00
         21   -1    0    0  503  502  0.00000000000E+00  0.00000000000E+00  0.20252902695E+03  0.20252902695E+03  0.00000000000E+00 0. -1.
         21   -1    0    0  504  503 -0.00000000000E+00 -0.00000000000E+00 -0.61108199830E+02  0.61108199830E+02  0.00000000000E+00 0. -1.
         25    2    1    2    0    0 -0.18609859134E+02  0.42445672577E+02  0.21437531350E+02  0.13501392702E+03  0.12498492214E+03 0.  0.
          5    1    3    3  501    0  0.38516142666E+02  0.45003506766E+02 -0.22015363137E+02  0.63194106380E+02  0.10000000000E+00 0.  1.
         -5    1    3    3    0  501 -0.57126001800E+02 -0.25578341893E+01  0.43452894487E+02  0.71819820640E+02  0.10000000000E+00 0.  1.
         21    1    1    2  504  502  0.18609859134E+02 -0.42445672577E+02  0.11998329577E+03  0.12862329976E+03  0.00000000000E+00 0. -1.
<mgrwt>
<rscale>  1 0.13330114E+03</rscale>
<asrwt>0</asrwt>
<pdfrwt beam="1">  1       21 0.31158311E-01 0.13330114E+03</pdfrwt>
<pdfrwt beam="2">  1       21 0.94012616E-02 0.13330114E+03</pdfrwt>
<totfact> 0.89762709E+05</totfact>
</mgrwt>
</event>
<event>
 6    1  0.4187588E-002  0.1399760E+03  0.7546771E-02  0.1213361E+00
         21   -1    0    0  504  502  0.00000000000E+00  0.00000000000E+00  0.17836115858E+04  0.17836115858E+04  0.00000000000E+00 0.  1.
         21   -1    0    0  502  503 -0.00000000000E+00 -0.00000000000E+00 -0.46776880902E+02  0.46776880902E+02  0.00000000000E+00 0. -1.
         25    2    1    2    0    0 -0.46343464684E+02 -0.42691133911E+02  0.59872992219E+02  0.15224340878E+03  0.12499212250E+03 0.  0.
          5    1    3    3  501    0 -0.77697108323E+02 -0.33074887155E+02  0.77841555607E+02  0.11484818928E+03  0.10000000000E+00 0. -1.
         -5    1    3    3    0  501  0.31353643640E+02 -0.96162467558E+01 -0.17968563388E+02  0.37395219499E+02  0.10000000000E+00 0. -1.
         21    1    1    2  504  503  0.46343464684E+02  0.42691133911E+02  0.16769617127E+04  0.16781450580E+04  0.00000000000E+00 0.  1.
<mgrwt>
<rscale>  1 0.13997600E+03</rscale>
<asrwt>0</asrwt>
<pdfrwt beam="1">  1       21 0.27440173E+00 0.13997600E+03</pdfrwt>
<pdfrwt beam="2">  1       21 0.71964446E-02 0.13997600E+03</pdfrwt>
<totfact> 0.73588481E+03</totfact>
</mgrwt>
</event>
<event>
 6    1  0.4187588E-002  0.1355436E+03  0.7546771E-02  0.1219454E+00
         21   -1    0    0  503  502  0.00000000000E+00  0.00000000000E+00  0.46664022714E+02  0.46664022714E+02  0.00000000000E+00 0. -1.
         21   -1    0    0  504  503 -0.00000000000E+00 -0.00000000000E+00 -0.43272739031E+03  0.43272739031E+03  0.00000000000E+00 0. -1.
         25    2    1    2    0    0 -0.29878847222E+02  0.43074913858E+02 -0.40229292905E+03  0.42451343584E+03  0.12499545085E+03 0.  0.
          5    1    3    3  501    0  0.19575860073E+02 -0.68329375382E+01 -0.29824262241E+03  0.29896249791E+03  0.10000000000E+00 0.  1.
         -5    1    3    3    0  501 -0.49454707294E+02  0.49907851397E+02 -0.10405030664E+03  0.12555093793E+03  0.10000000000E+00 0.  1.
         21    1    1    2  504  502  0.29878847222E+02 -0.43074913858E+02  0.16229561449E+02  0.54877977186E+02  0.00000000000E+00 0. -1.
<mgrwt>
<rscale>  1 0.13554356E+03</rscale>
<asrwt>0</asrwt>
<pdfrwt beam="1">  1       21 0.71790805E-02 0.13554356E+03</pdfrwt>
<pdfrwt beam="2">  1       21 0.66573444E-01 0.13554356E+03</pdfrwt>
<totfact> 0.30349244E+05</totfact>
</mgrwt>
</event>
<event>
 6    1  0.4187588E-002  0.1277546E+03  0.7546771E-02  0.1230826E+00
         21   -1    0    0  504  502  0.00000000000E+00  0.00000000000E+00  0.62797313208E+02  0.62797313208E+02  0.00000000000E+00 0.  1.
         21   -1    0    0  502  503 -0.00000000000E+00 -0.00000000000E+00 -0.10036883285E+03  0.10036883285E+03  0.00000000000E+00 0.  1.
         25    2    1    2    0    0  0.10327934599E+00  0.26430424660E+02 -0.45430391950E+02  0.13559188472E+03  0.12499064235E+03 0.  0.
          5    1    3    3  501    0  0.17357197067E+02 -0.48050428191E+02 -0.14387213125E+02  0.53076528153E+02  0.10000000000E+00 0. -1.
         -5    1    3    3    0  501 -0.17253917721E+02  0.74480852851E+02 -0.31043178825E+02  0.82515356569E+02  0.10000000000E+00 0. -1.
         21    1    1    2  504  503 -0.10327934599E+00 -0.26430424660E+02  0.78588723064E+01  0.27574261337E+02  0.00000000000E+00 0.  1.
<mgrwt>
<rscale>  1 0.12775460E+03</rscale>
<asrwt>0</asrwt>
<pdfrwt beam="1">  1       21 0.96611253E-02 0.12775460E+03</pdfrwt>
<pdfrwt beam="2">  1       21 0.15441359E-01 0.12775460E+03</pdfrwt>
<totfact> 0.31734833E+06</totfact>
</mgrwt>
</event>
<event>
 6    1  0.4187588E-002  0.1540354E+03  0.7546771E-02  0.1195600E+00
         21   -1    0    0  504  502  0.00000000000E+00  0.00000000000E+00  0.19859652347E+03  0.19859652347E+03  0.00000000000E+00 0. -1.
         21   -1    0    0  502  503 -0.00000000000E+00 -0.00000000000E+00 -0.18739654230E+03  0.18739654230E+03  0.00000000000E+00 0. -1.
         25    2    1    2    0    0 -0.52616642421E+02 -0.73028405541E+02 -0.14122435375E+03  0.20897657797E+03  0.12500093189E+03 0.  0.
          5    1    3    3  501    0 -0.67869920296E+02  0.10224633091E+02 -0.52997448139E+02  0.86715677429E+02  0.10000000000E+00 0.  1.
         -5    1    3    3    0  501  0.15253277874E+02 -0.83253038632E+02 -0.88226905614E+02  0.12226090054E+03  0.10000000000E+00 0.  1.
         21    1    1    2  504  503  0.52616642421E+02  0.73028405541E+02  0.15242433492E+03  0.17701648780E+03  0.00000000000E+00 0. -1.
<mgrwt>
<rscale>  1 0.15403536E+03</rscale>
<asrwt>0</asrwt>
<pdfrwt beam="1">  1       21 0.30553311E-01 0.15403536E+03</pdfrwt>
<pdfrwt beam="2">  1       21 0.28830237E-01 0.15403536E+03</pdfrwt>
<totfact> 0.12004568E+05</totfact>
</mgrwt>
</event>
<event>
 6    1  0.4187588E-002  0.1261585E+03  0.7546771E-02  0.1233270E+00
         21   -1    0    0  503  502  0.00000000000E+00  0.00000000000E+00  0.53118120825E+02  0.53118120825E+02  0.00000000000E+00 0.  1.
         21   -1    0    0  504  503 -0.00000000000E+00 -0.00000000000E+00 -0.16816549178E+03  0.16816549178E+03  0.00000000000E+00 0.  1.
         25    2    1    2    0    0  0.13665493693E+02 -0.10287374761E+02 -0.14163155762E+03  0.18967198850E+03  0.12499355707E+03 0.  0.
          5    1    3    3  501    0 -0.47953352243E+02 -0.27483699963E+02 -0.35308107634E+02  0.65586204492E+02  0.10000000000E+00 0. -1.
         -5    1    3    3    0  501  0.61618845936E+02  0.17196325202E+02 -0.10632344999E+03  0.12408578401E+03  0.10000000000E+00 0. -1.
         21    1    1    2  504  502 -0.13665493693E+02  0.10287374761E+02  0.26584186672E+02  0.31611624101E+02  0.00000000000E+00 0.  1.
<mgrwt>
<rscale>  1 0.12615849E+03</rscale>
<asrwt>0</asrwt>
<pdfrwt beam="1">  1       21 0.81720187E-02 0.12615849E+03</pdfrwt>
<pdfrwt beam="2">  1       21 0.25871614E-01 0.12615849E+03</pdfrwt>
<totfact> 0.16334572E+06</totfact>
</mgrwt>
</event>
<event>
 6    1  0.4187588E-002  0.1461802E+03  0.7546771E-02  0.1205247E+00
         21   -1    0    0  504  502  0.00000000000E+00  0.00000000000E+00  0.22774389352E+04  0.22774389352E+04  0.00000000000E+00 0.  1.
         21   -1    0    0  502  503 -0.00000000000E+00 -0.00000000000E+00 -0.91519012770E+01  0.91519012770E+01  0.00000000000E+00 0.  1.
         25    2    1    2    0    0  0.73144397692E+02 -0.19839723596E+02  0.63755410002E+03  0.65409776780E+03  0.12499976740E+03 0.  0.
          5    1    3    3  501    0  0.11328184581E+02  0.34522976450E+02  0.56054677091E+02  0.66800452788E+02  0.10000000000E+00 0. -1.
         -5    1    3    3    0  501  0.61816213111E+02 -0.54362700046E+02  0.58149942292E+03  0.58729731501E+03  0.10000000000E+00 0. -1.
         21    1    1    2  504  503 -0.73144397692E+02  0.19839723596E+02  0.16307329339E+04  0.16324930687E+04  0.00000000000E+00 0.  1.
<mgrwt>
<rscale>  1 0.14618023E+03</rscale>
<asrwt>0</asrwt>
<pdfrwt beam="1">  1       21 0.35037477E+00 0.14618023E+03</pdfrwt>
<pdfrwt beam="2">  1       21 0.14079866E-02 0.14618023E+03</pdfrwt>
<totfact> 0.39876657E+04</totfact>
</mgrwt>
</event>
<event>
 6    1  0.4187588E-002  0.1271335E+03  0.7546771E-02  0.1231772E+00
         21   -1    0    0  503  502  0.00000000000E+00  0.00000000000E+00  0.89580752343E+02  0.89580752343E+02  0.00000000000E+00 0. -1.
         21   -1    0    0  504  503 -0.00000000000E+00 -0.00000000000E+00 -0.11379869902E+03  0.11379869902E+03  0.00000000000E+00 0. -1.
         25    2    1    2    0    0  0.20793998705E+02 -0.10245179010E+02 -0.74964305952E+02  0.14758924563E+03  0.12500233672E+03 0.  0.
          5    1    3    3  501    0 -0.38741168236E+02 -0.28955836788E+02 -0.69867477989E+02  0.84975249813E+02  0.10000000000E+00 0.  1.
         -5    1    3    3    0  501  0.59535166941E+02  0.18710657777E+02 -0.50968279632E+01  0.62613995819E+02  0.10000000000E+00 0.  1.
         21    1    1    2  504  502 -0.20793998705E+02  0.10245179010E+02  0.50746359278E+02  0.55790205727E+02  0.00000000000E+00 0. -1.
<mgrwt>
<rscale>  1 0.12713354E+03</rscale>
<asrwt>0</asrwt>
<pdfrwt beam="1">  1       21 0.13781654E-01 0.12713354E+03</pdfrwt>
<pdfrwt beam="2">  1       21 0.17507492E-01 0.12713354E+03</pdfrwt>
<totfact> 0.13487024E+06</totfact>
</mgrwt>
</event>
<event>
 6    1  0.4187588E-002  0.1281725E+03  0.7546771E-02  0.1230193E+00
         21   -1    0    0  503  502  0.00000000000E+00  0.00000000000E+00  0.62781212572E+02  0.62781212572E+02  0.00000000000E+00 0.  1.
         21   -1    0    0  504  503 -0.00000000000E+00 -0.00000000000E+00 -0.12764451709E+03  0.12764451709E+03  0.00000000000E+00 0. -1.
         25    2    1    2    0    0 -0.10207627929E+02  0.26431570618E+02 -0.86624233081E+02  0.15469952632E+03  0.12500144837E+03 0.  0.
          5    1    3    3  501    0  0.41706207618E+02 -0.29139536133E+02 -0.24333541789E+02  0.56397265678E+02  0.10000000000E+00 0.  1.
         -5    1    3    3    0  501 -0.51913835547E+02  0.55571106751E+02 -0.62290691291E+02  0.98302260647E+02  0.10000000000E+00 0.  1.
         21    1    1    2  504  502  0.10207627929E+02 -0.26431570618E+02  0.21760928560E+02  0.35726203340E+02  0.00000000000E+00 0.  1.
<mgrwt>
<rscale>  1 0.12817248E+03</rscale>
<asrwt>0</asrwt>
<pdfrwt beam="1">  1       21 0.96586482E-02 0.12817248E+03</pdfrwt>
<pdfrwt beam="2">  1       21 0.19637618E-01 0.12817248E+03</pdfrwt>
<totfact> 0.20474984E+06</totfact>
</mgrwt>
</event>
<event>
 6    1  0.4187588E-002  0.1258996E+03  0.7546771E-02  0.1233670E+00
         21   -1    0    0  504  502  0.00000000000E+00  0.00000000000E+00  0.13782658298E+03  0.13782658298E+03  0.00000000000E+00 0.  1.
         21   -1    0    0  502  503 -0.00000000000E+00 -0.00000000000E+00 -0.37879302839E+02  0.37879302839E+02  0.00000000000E+00 0.  1.
         25    2    1    2    0    0 -0.13555810963E+02  0.67430962067E+01  0.75064636454E+02  0.14657900280E+03  0.12498589944E+03 0.  0.
          5    1    3    3  501    0  0.50736258679E+02  0.24845792937E+02  0.49333543362E+02  0.75001932456E+02  0.10000000000E+00 0.  1.
         -5    1    3    3    0  501 -0.64292069643E+02 -0.18102696730E+02  0.25731093092E+02  0.71577070348E+02  0.10000000000E+00 0.  1.
         21    1    1    2  504  503  0.13555810963E+02 -0.67430962067E+01  0.24882643689E+02  0.29126883017E+02  0.00000000000E+00 0.  1.
<mgrwt>
<rscale>  1 0.12589958E+03</rscale>
<asrwt>0</asrwt>
<pdfrwt beam="1">  1       21 0.21204089E-01 0.12589958E+03</pdfrwt>
<pdfrwt beam="2">  1       21 0.58275851E-02 0.12589958E+03</pdfrwt>
<totfact> 0.42271896E+06</totfact>
</mgrwt>
</event>
<event>
 6    1  0.4187588E-002  0.1296545E+03  0.7546771E-02  0.1227969E+00
         21   -1    0    0  504  502  0.00000000000E+00  0.00000000000E+00  0.16399128711E+02  0.16399128711E+02  0.00000000000E+00 0.  1.
         21   -1    0    0  502  503 -0.00000000000E+00 -0.00000000000E+00 -0.80093913693E+03  0.80093913693E+03  0.00000000000E+00 0.  1.
         25    2    1    2    0    0 -0.24941601158E+01 -0.34352429394E+02 -0.76847036206E+03  0.77933111148E+03  0.12499589475E+03 0.  0.
          5    1    3    3  501    0 -0.54752234359E+02 -0.49008279111E+02 -0.50602058223E+03  0.51132813166E+03  0.10000000000E+00 0. -1.
         -5    1    3    3    0  501  0.52258074243E+02  0.14655849717E+02 -0.26244977984E+03  0.26800297982E+03  0.10000000000E+00 0. -1.
         21    1    1    2  504  503  0.24941601158E+01  0.34352429394E+02 -0.16069646152E+02  0.38007154161E+02  0.00000000000E+00 0.  1.
<mgrwt>
<rscale>  1 0.12965448E+03</rscale>
<asrwt>0</asrwt>
<pdfrwt beam="1">  1       21 0.25229425E-02 0.12965448E+03</pdfrwt>
<pdfrwt beam="2">  1       21 0.12322142E+00 0.12965448E+03</pdfrwt>
<totfact> 0.42269656E+05</totfact>
</mgrwt>
</event>
<event>
 6    1  0.4187588E-002  0.1338612E+03  0.7546771E-02  0.1221836E+00
         21   -1    0    0  503  502  0.00000000000E+00  0.00000000000E+00  0.51138939446E+02  0.51138939446E+02  0.00000000000E+00 0. -1.
         21   -1    0    0  504  503 -0.00000000000E+00 -0.00000000000E+00 -0.24807495540E+03  0.24807495540E+03  0.00000000000E+00 0. -1.
         25    2    1    2    0    0 -0.43613114222E+01  0.47692072155E+02 -0.21048342061E+03  0.24944355270E+03  0.12500104340E+03 0.  0.
          5    1    3    3  501    0  0.31039133557E+01  0.68494485116E+02 -0.21603575464E+03  0.22665521404E+03  0.10000000000E+00 0.  1.
         -5    1    3    3    0  501 -0.74652247780E+01 -0.20802412961E+02  0.55523340295E+01  0.22788338666E+02  0.10000000000E+00 0.  1.
         21    1    1    2  504  502  0.43613114222E+01 -0.47692072155E+02  0.13547404655E+02  0.49770342139E+02  0.00000000000E+00 0. -1.
<mgrwt>
<rscale>  1 0.13386118E+03</rscale>
<asrwt>0</asrwt>
<pdfrwt beam="1">  1       21 0.78675291E-02 0.13386118E+03</pdfrwt>
<pdfrwt beam="2">  1       21 0.38165378E-01 0.13386118E+03</pdfrwt>
<totfact> 0.82083723E+05</totfact>
</mgrwt>
</event>
<event>
 6    1  0.4187588E-002  0.1267835E+03  0.7546771E-02  0.1232308E+00
         21   -1    0    0  503  502  0.00000000000E+00  0.00000000000E+00  0.13539502903E+03  0.13539502903E+03  0.00000000000E+00 0.  1.
         21   -1    0    0  504  503 -0.00000000000E+00 -0.00000000000E+00 -0.48510759737E+03  0.48510759737E+03  0.00000000000E+00 0.  1.
         25    2    1    2    0    0  0.19698170708E+02 -0.78160235286E+01 -0.47592532356E+03  0.49252306657E+03  0.12499979736E+03 0.  0.
          5    1    3    3  501    0  0.34957826569E+02  0.52497190988E+02 -0.20180717440E+03  0.21143356011E+03  0.10000000000E+00 0.  1.
         -5    1    3    3    0  501 -0.15259655861E+02 -0.60313214517E+02 -0.27411814916E+03  0.28108950646E+03  0.10000000000E+00 0.  1.
         21    1    1    2  504  502 -0.19698170708E+02  0.78160235286E+01  0.12621275522E+03  0.12797955983E+03  0.00000000000E+00 0.  1.
<mgrwt>
<rscale>  1 0.12678351E+03</rscale>
<asrwt>0</asrwt>
<pdfrwt beam="1">  1       21 0.20830004E-01 0.12678351E+03</pdfrwt>
<pdfrwt beam="2">  1       21 0.74631939E-01 0.12678351E+03</pdfrwt>
<totfact> 0.35697376E+04</totfact>
</mgrwt>
</event>
<event>
 6    1  0.4187588E-002  0.1269796E+03  0.7546771E-02  0.1232008E+00
         21   -1    0    0  503  502  0.00000000000E+00  0.00000000000E+00  0.48898608699E+02  0.48898608699E+02  0.00000000000E+00 0. -1.
         21   -1    0    0  504  503 -0.00000000000E+00 -0.00000000000E+00 -0.17163272489E+03  0.17163272489E+03  0.00000000000E+00 0. -1.
         25    2    1    2    0    0 -0.19140607797E+02 -0.11483627334E+02 -0.14239338415E+03  0.19078703363E+03  0.12500231913E+03 0.  0.
          5    1    3    3  501    0 -0.39636885944E+02 -0.11700932889E+02  0.53103570392E+01  0.41667786714E+02  0.10000000000E+00 0. -1.
         -5    1    3    3    0  501  0.20496278147E+02  0.21730555420E+00 -0.14770374119E+03  0.14911924692E+03  0.10000000000E+00 0. -1.
         21    1    1    2  504  502  0.19140607797E+02  0.11483627334E+02  0.19659267956E+02  0.29744299961E+02  0.00000000000E+00 0. -1.
<mgrwt>
<rscale>  1 0.12697959E+03</rscale>
<asrwt>0</asrwt>
<pdfrwt beam="1">  1       21 0.75228629E-02 0.12697959E+03</pdfrwt>
<pdfrwt beam="2">  1       21 0.26405035E-01 0.12697959E+03</pdfrwt>
<totfact> 0.18122851E+06</totfact>
</mgrwt>
</event>
<event>
 6    1  0.4187588E-002  0.1284848E+03  0.7546771E-02  0.1229721E+00
         21   -1    0    0  503  502  0.00000000000E+00  0.00000000000E+00  0.12169035563E+02  0.12169035563E+02  0.00000000000E+00 0. -1.
         21   -1    0    0  504  503 -0.00000000000E+00 -0.00000000000E+00 -0.13292678845E+04  0.13292678845E+04  0.00000000000E+00 0. -1.
         25    2    1    2    0    0 -0.61925043235E+01  0.29056350550E+02 -0.13016038204E+04  0.13079299875E+04  0.12500291377E+03 0.  0.
          5    1    3    3  501    0  0.32156408012E+02  0.28179169700E+02 -0.11717291876E+04  0.11725090188E+04  0.10000000000E+00 0.  1.
         -5    1    3    3    0  501 -0.38348912336E+02  0.87718084924E+00 -0.12987463278E+03  0.13542096870E+03  0.10000000000E+00 0.  1.
         21    1    1    2  504  502  0.61925043235E+01 -0.29056350550E+02 -0.15495028548E+02  0.33506932518E+02  0.00000000000E+00 0. -1.
<mgrwt>
<rscale>  1 0.12848481E+03</rscale>
<asrwt>0</asrwt>
<pdfrwt beam="1">  1       21 0.18721600E-02 0.12848481E+03</pdfrwt>
<pdfrwt beam="2">  1       21 0.20450268E+00 0.12848481E+03</pdfrwt>
<totfact> 0.17840979E+05</totfact>
</mgrwt>
</event>
<event>
 6    1  0.4187588E-002  0.1281751E+03  0.7546771E-02  0.1230189E+00
         21   -1    0    0  504  502  0.00000000000E+00  0.00000000000E+00  0.60757449343E+02  0.60757449343E+02  0.00000000000E+00 0.  1.
         21   -1    0    0  502  503 -0.00000000000E+00 -0.00000000000E+00 -0.13903357557E+03  0.13903357557E+03  0.00000000000E+00 0.  1.
         25    2    1    2    0    0 -0.24917294817E+02 -0.13515163462E+02 -0.10121975443E+03  0.16332266467E+03  0.12500129152E+03 0.  0.
          5    1    3    3  501    0 -0.67968704873E+02  0.21633886893E+02 -0.45393462148E+02  0.84547893587E+02  0.10000000000E+00 0.  1.
         -5    1    3    3    0  501  0.43051410056E+02 -0.35149050355E+02 -0.55826292282E+02  0.78774771079E+02  0.10000000000E+00 0.  1.
         21    1    1    2  504  503  0.24917294817E+02  0.13515163462E+02  0.22943628200E+02  0.36468360250E+02  0.00000000000E+00 0.  1.
<mgrwt>
<rscale>  1 0.12817509E+03</rscale>
<asrwt>0</asrwt>
<pdfrwt beam="1">  1       21 0.93473001E-02 0.12817509E+03</pdfrwt>
<pdfrwt beam="2">  1       21 0.21389780E-01 0.12817509E+03</pdfrwt>
<totfact> 0.18503490E+06</totfact>
</mgrwt>
</event>
<event>
 6    1  0.4187588E-002  0.1611277E+03  0.7546771E-02  0.1187429E+00
         21   -1    0    0  504  502  0.00000000000E+00  0.00000000000E+00  0.24774813774E+02  0.24774813774E+02  0.00000000000E+00 0.  1.
         21   -1    0    0  502  503 -0.00000000000E+00 -0.00000000000E+00 -0.82202504447E+03  0.82202504447E+03  0.00000000000E+00 0.  1.
         25    2    1    2    0    0  0.97453371857E+02  0.29014878200E+02 -0.63660094451E+03  0.65667564622E+03  0.12499247559E+03 0.  0.
          5    1    3    3  501    0 -0.15790324407E+02  0.41863545904E+02 -0.23473191306E+03  0.23895809638E+03  0.10000000000E+00 0.  1.
         -5    1    3    3    0  501  0.11324369626E+03 -0.12848667704E+02 -0.40186903145E+03  0.41771754984E+03  0.10000000000E+00 0.  1.
         21    1    1    2  504  503 -0.97453371857E+02 -0.29014878200E+02 -0.16064928619E+03  0.19012421202E+03  0.00000000000E+00 0.  1.
<mgrwt>
<rscale>  1 0.16112772E+03</rscale>
<asrwt>0</asrwt>
<pdfrwt beam="1">  1       21 0.38115096E-02 0.16112772E+03</pdfrwt>
<pdfrwt beam="2">  1       21 0.12646540E+00 0.16112772E+03</pdfrwt>
<totfact> 0.19914084E+05</totfact>
</mgrwt>
</event>
<event>
 6    1  0.4187588E-002  0.1274816E+03  0.7546771E-02  0.1231241E+00
         21   -1    0    0  503  502  0.00000000000E+00  0.00000000000E+00  0.16559484842E+04  0.16559484842E+04  0.00000000000E+00 0. -1.
         21   -1    0    0  504  503 -0.00000000000E+00 -0.00000000000E+00 -0.30797513144E+02  0.30797513144E+02  0.00000000000E+00 0. -1.
         25    2    1    2    0    0  0.12986683633E+02 -0.21417042967E+02  0.10167045429E+03  0.16305960289E+03  0.12499683651E+03 0.  0.
          5    1    3    3  501    0  0.28867742790E+02 -0.22041876744E+02 -0.19244770393E+02  0.41104283130E+02  0.10000000000E+00 0. -1.
         -5    1    3    3    0  501 -0.15881059156E+02  0.62483377717E+00  0.12091522468E+03  0.12195531976E+03  0.10000000000E+00 0. -1.
         21    1    1    2  504  502 -0.12986683633E+02  0.21417042967E+02  0.15234805168E+04  0.15236863945E+04  0.00000000000E+00 0. -1.
<mgrwt>
<rscale>  1 0.12748158E+03</rscale>
<asrwt>0</asrwt>
<pdfrwt beam="1">  1       21 0.25476123E+00 0.12748158E+03</pdfrwt>
<pdfrwt beam="2">  1       21 0.47380803E-02 0.12748158E+03</pdfrwt>
<totfact> 0.19638375E+04</totfact>
</mgrwt>
</event>
<event>
 6    1  0.4187588E-002  0.1555861E+03  0.7546771E-02  0.1193772E+00
         21   -1    0    0  503  502  0.00000000000E+00  0.00000000000E+00  0.18486326344E+03  0.18486326344E+03  0.00000000000E+00 0. -1.
         21   -1    0    0  504  503 -0.00000000000E+00 -0.00000000000E+00 -0.17193166060E+03  0.17193166060E+03  0.00000000000E+00 0.  1.
         25    2    1    2    0    0 -0.39982850998E+02 -0.83562059455E+02 -0.11879787540E+03  0.19575486197E+03  0.12500313848E+03 0.  0.
          5    1    3    3  501    0 -0.43415539816E+02 -0.11500325849E+03 -0.10313788521E+03  0.16046211991E+03  0.10000000000E+00 0.  1.
         -5    1    3    3    0  501  0.34326888180E+01  0.31441199034E+02 -0.15659990193E+02  0.35292742060E+02  0.10000000000E+00 0.  1.
         21    1    1    2  504  502  0.39982850998E+02  0.83562059455E+02  0.13172947824E+03  0.16104006207E+03  0.00000000000E+00 0. -1.
<mgrwt>
<rscale>  1 0.15558609E+03</rscale>
<asrwt>0</asrwt>
<pdfrwt beam="1">  1       21 0.28440502E-01 0.15558609E+03</pdfrwt>
<pdfrwt beam="2">  1       21 0.26451025E-01 0.15558609E+03</pdfrwt>
<totfact> 0.16261676E+05</totfact>
</mgrwt>
</event>
<event>
 6    1  0.4187588E-002  0.1317215E+03  0.7546771E-02  0.1224923E+00
         21   -1    0    0  503  502  0.00000000000E+00  0.00000000000E+00  0.49756662193E+02  0.49756662193E+02  0.00000000000E+00 0. -1.
         21   -1    0    0  504  503 -0.00000000000E+00 -0.00000000000E+00 -0.15558323163E+03  0.15558323163E+03  0.00000000000E+00 0. -1.
         25    2    1    2    0    0 -0.41524022666E+02 -0.33705597522E+00 -0.64168243055E+02  0.14652004835E+03  0.12500481225E+03 0.  0.
          5    1    3    3  501    0 -0.93460688062E+01  0.45813800050E+02 -0.75807313181E+02  0.89067457631E+02  0.10000000000E+00 0.  1.
         -5    1    3    3    0  501 -0.32177953860E+02 -0.46150856025E+02  0.11639070126E+02  0.57452590715E+02  0.10000000000E+00 0.  1.
         21    1    1    2  504  502  0.41524022666E+02  0.33705597522E+00 -0.41658326387E+02  0.58819845481E+02  0.00000000000E+00 0. -1.
<mgrwt>
<rscale>  1 0.13172153E+03</rscale>
<asrwt>0</asrwt>
<pdfrwt beam="1">  1       21 0.76548712E-02 0.13172153E+03</pdfrwt>
<pdfrwt beam="2">  1       21 0.23935881E-01 0.13172153E+03</pdfrwt>
<totfact> 0.21198414E+06</totfact>
</mgrwt>
</event>
<event>
 6    1  0.4187588E-002  0.1259060E+03  0.7546771E-02  0.1233660E+00
         21   -1    0    0  503  502  0.00000000000E+00  0.00000000000E+00  0.20940374959E+02  0.20940374959E+02  0.00000000000E+00 0.  1.
         21   -1    0    0  504  503 -0.00000000000E+00 -0.00000000000E+00 -0.20382793373E+04  0.20382793373E+04  0.00000000000E+00 0. -1.
         25    2    1    2    0    0 -0.14302155305E+02  0.47586980133E+01 -0.20333416491E+04  0.20372360175E+04  0.12500052961E+03 0.  0.
          5    1    3    3  501    0  0.43037734078E+02 -0.99521090736E+01 -0.33968844927E+03  0.34254860034E+03  0.10000000000E+00 0.  1.
         -5    1    3    3    0  501 -0.57339889383E+02  0.14710807087E+02 -0.16936531998E+04  0.16946874172E+04  0.10000000000E+00 0.  1.
         21    1    1    2  504  502  0.14302155305E+02 -0.47586980133E+01  0.16002686709E+02  0.21983694754E+02  0.00000000000E+00 0.  1.
<mgrwt>
<rscale>  1 0.12590603E+03</rscale>
<asrwt>0</asrwt>
<pdfrwt beam="1">  1       21 0.32215967E-02 0.12590603E+03</pdfrwt>
<pdfrwt beam="2">  1       21 0.31358138E+00 0.12590603E+03</pdfrwt>
<totfact> 0.17407075E+04</totfact>
</mgrwt>
</event>
<event>
 6    1  0.4187588E-002  0.1671532E+03  0.7546771E-02  0.1180850E+00
         21   -1    0    0  503  502  0.00000000000E+00  0.00000000000E+00  0.10412362191E+03  0.10412362191E+03  0.00000000000E+00 0. -1.
         21   -1    0    0  504  503 -0.00000000000E+00 -0.00000000000E+00 -0.34883449560E+03  0.34883449560E+03  0.00000000000E+00 0. -1.
         25    2    1    2    0    0 -0.10005878744E+03  0.48156697235E+02 -0.28863507074E+03  0.33354219094E+03  0.12493742693E+03 0.  0.
          5    1    3    3  501    0 -0.38255059674E+02  0.77479278172E+02 -0.96197225143E+02  0.12930740219E+03  0.10000000000E+00 0. -1.
         -5    1    3    3    0  501 -0.61803727763E+02 -0.29322580937E+02 -0.19243784560E+03  0.20423478875E+03  0.10000000000E+00 0. -1.
         21    1    1    2  504  502  0.10005878744E+03 -0.48156697235E+02  0.43924197046E+02  0.11941592657E+03  0.00000000000E+00 0. -1.
<mgrwt>
<rscale>  1 0.16715319E+03</rscale>
<asrwt>0</asrwt>
<pdfrwt beam="1">  1       21 0.16019018E-01 0.16715319E+03</pdfrwt>
<pdfrwt beam="2">  1       21 0.53666846E-01 0.16715319E+03</pdfrwt>
<totfact> 0.11538426E+05</totfact>
</mgrwt>
</event>
<event>
 6    1  0.4187588E-002  0.1281725E+03  0.7546771E-02  0.1230193E+00
         21   -1    0    0  503  502  0.00000000000E+00  0.00000000000E+00  0.22957668003E+02  0.22957668003E+02  0.00000000000E+00 0.  1.
         21   -1    0    0  504  503 -0.00000000000E+00 -0.00000000000E+00 -0.26681944408E+03  0.26681944408E+03  0.00000000000E+00 0.  1.
         25    2    1    2    0    0 -0.16604302126E+02 -0.22984090189E+02 -0.20057102288E+03  0.23802713079E+03  0.12499683406E+03 0.  0.
          5    1    3    3  501    0  0.41779284773E+02 -0.23273361501E+02 -0.15983418199E+03  0.16683564884E+03  0.10000000000E+00 0.  1.
         -5    1    3    3    0  501 -0.58383586899E+02  0.28927131219E+00 -0.40736840885E+02  0.71191481951E+02  0.10000000000E+00 0.  1.
         21    1    1    2  504  502  0.16604302126E+02  0.22984090189E+02 -0.43290753201E+02  0.51749981291E+02  0.00000000000E+00 0.  1.
<mgrwt>
<rscale>  1 0.12817246E+03</rscale>
<asrwt>0</asrwt>
<pdfrwt beam="1">  1       21 0.35319489E-02 0.12817246E+03</pdfrwt>
<pdfrwt beam="2">  1       21 0.41049145E-01 0.12817246E+03</pdfrwt>
<totfact> 0.27358489E+06</totfact>
</mgrwt>
</event>
<event>
 6    1  0.4187588E-002  0.1279356E+03  0.7546771E-02  0.1230552E+00
         21   -1    0    0  503  502  0.00000000000E+00  0.00000000000E+00  0.80163181040E+03  0.80163181040E+03  0.00000000000E+00 0. -1.
         21   -1    0    0  504  503 -0.00000000000E+00 -0.00000000000E+00 -0.16487256793E+02  0.16487256793E+02  0.00000000000E+00 0. -1.
         25    2    1    2    0    0  0.46917195670E+01 -0.26826350557E+02  0.23723268089E+03  0.26953080121E+03  0.12500337035E+03 0.  0.
          5    1    3    3  501    0 -0.33085606229E+02  0.53555477623E+01  0.72981716292E+01  0.34301786258E+02  0.10000000000E+00 0.  1.
         -5    1    3    3    0  501  0.37777325796E+02 -0.32181898319E+02  0.22993450926E+03  0.23522901495E+03  0.10000000000E+00 0.  1.
         21    1    1    2  504  502 -0.46917195670E+01  0.26826350557E+02  0.54791187272E+03  0.54858826599E+03  0.00000000000E+00 0. -1.
<mgrwt>
<rscale>  1 0.12793556E+03</rscale>
<asrwt>0</asrwt>
<pdfrwt beam="1">  1       21 0.12332794E+00 0.12793556E+03</pdfrwt>
<pdfrwt beam="2">  1       21 0.25365017E-02 0.12793556E+03</pdfrwt>
<totfact> 0.41829413E+05</totfact>
</mgrwt>
</event>
<event>
 6    1  0.4187588E-002  0.1719140E+03  0.7546771E-02  0.1175866E+00
         21   -1    0    0  503  502  0.00000000000E+00  0.00000000000E+00  0.15757604101E+03  0.15757604101E+03  0.00000000000E+00 0. -1.
         21   -1    0    0  504  503 -0.00000000000E+00 -0.00000000000E+00 -0.15785293786E+03  0.15785293786E+03  0.00000000000E+00 0. -1.
         25    2    1    2    0    0  0.10421320619E+03 -0.55400456783E+02 -0.61358739201E+02  0.18253580965E+03  0.12499929589E+03 0.  0.
          5    1    3    3  501    0  0.13283279674E+03 -0.41098784574E+02 -0.42493521195E+02  0.14539384900E+03  0.10000000000E+00 0.  1.
         -5    1    3    3    0  501 -0.28619590546E+02 -0.14301672209E+02 -0.18865218006E+02  0.37141960656E+02  0.10000000000E+00 0.  1.
         21    1    1    2  504  502 -0.10421320619E+03  0.55400456783E+02  0.61081842350E+02  0.13289316921E+03  0.00000000000E+00 0. -1.
<mgrwt>
<rscale>  1 0.17191401E+03</rscale>
<asrwt>0</asrwt>
<pdfrwt beam="1">  1       21 0.24242468E-01 0.17191401E+03</pdfrwt>
<pdfrwt beam="2">  1       21 0.24285067E-01 0.17191401E+03</pdfrwt>
<totfact> 0.25846003E+05</totfact>
</mgrwt>
</event>
<event>
 6    1  0.4187588E-002  0.1261186E+03  0.7546771E-02  0.1233331E+00
         21   -1    0    0  504  502  0.00000000000E+00  0.00000000000E+00  0.64655860272E+01  0.64655860272E+01  0.00000000000E+00 0.  1.
         21   -1    0    0  502  503 -0.00000000000E+00 -0.00000000000E+00 -0.96665735304E+03  0.96665735304E+03  0.00000000000E+00 0.  1.
         25    2    1    2    0    0  0.10767830080E+02 -0.12783709461E+02 -0.93084656365E+03  0.93935149621E+03  0.12500615578E+03 0.  0.
          5    1    3    3  501    0 -0.14428089651E+02  0.42480812308E+02 -0.67111268044E+03  0.67261060728E+03  0.10000000000E+00 0. -1.
         -5    1    3    3    0  501  0.25195919731E+02 -0.55264521770E+02 -0.25973388321E+03  0.26674088893E+03  0.10000000000E+00 0. -1.
         21    1    1    2  504  503 -0.10767830080E+02  0.12783709461E+02 -0.29345203368E+02  0.33771442861E+02  0.00000000000E+00 0.  1.
<mgrwt>
<rscale>  1 0.12611863E+03</rscale>
<asrwt>0</asrwt>
<pdfrwt beam="1">  1       21 0.99470551E-03 0.12611863E+03</pdfrwt>
<pdfrwt beam="2">  1       21 0.14871652E+00 0.12611863E+03</pdfrwt>
<totfact> 0.11684399E+06</totfact>
</mgrwt>
</event>
<event>
 6    1  0.4187588E-002  0.1270899E+03  0.7546771E-02  0.1231839E+00
         21   -1    0    0  503  502  0.00000000000E+00  0.00000000000E+00  0.32029143968E+03  0.32029143968E+03  0.00000000000E+00 0.  1.
         21   -1    0    0  504  503 -0.00000000000E+00 -0.00000000000E+00 -0.17945445988E+02  0.17945445988E+02  0.00000000000E+00 0.  1.
         25    2    1    2    0    0 -0.22830671351E+02 -0.22088443047E+01  0.23610293361E+03  0.26813509143E+03  0.12500285375E+03 0.  0.
          5    1    3    3  501    0 -0.47573603213E+02 -0.16397884890E+02  0.27020620445E+02  0.57116217318E+02  0.10000000000E+00 0.  1.
         -5    1    3    3    0  501  0.24742931861E+02  0.14189040585E+02  0.20908231317E+03  0.21101887411E+03  0.10000000000E+00 0.  1.
         21    1    1    2  504  502  0.22830671351E+02  0.22088443047E+01  0.66243060082E+02  0.70101794246E+02  0.00000000000E+00 0.  1.
<mgrwt>
<rscale>  1 0.12708986E+03</rscale>
<asrwt>0</asrwt>
<pdfrwt beam="1">  1       21 0.49275602E-01 0.12708986E+03</pdfrwt>
<pdfrwt beam="2">  1       21 0.27608381E-02 0.12708986E+03</pdfrwt>
<totfact> 0.28282963E+06</totfact>
</mgrwt>
</event>
<event>
 6    1  0.4187588E-002  0.1264905E+03  0.7546771E-02  0.1232758E+00
         21   -1    0    0  504  502  0.00000000000E+00  0.00000000000E+00  0.58020133485E+02  0.58020133485E+02  0.00000000000E+00 0.  1.
         21   -1    0    0  502  503 -0.00000000000E+00 -0.00000000000E+00 -0.93167103907E+02  0.93167103907E+02  0.00000000000E+00 0.  1.
         25    2    1    2    0    0  0.50047832793E+01  0.18713117183E+02 -0.36830369992E+02  0.13174340946E+03  0.12499848468E+03 0.  0.
          5    1    3    3  501    0  0.55022685169E+01  0.71885435439E+02 -0.12119209748E+02  0.73107291237E+02  0.10000000000E+00 0.  1.
         -5    1    3    3    0  501 -0.49748523761E+00 -0.53172318256E+02 -0.24711160244E+02  0.58636118228E+02  0.10000000000E+00 0.  1.
         21    1    1    2  504  503 -0.50047832793E+01 -0.18713117183E+02  0.16833995699E+01  0.19443827928E+02  0.00000000000E+00 0.  1.
<mgrwt>
<rscale>  1 0.12649051E+03</rscale>
<asrwt>0</asrwt>
<pdfrwt beam="1">  1       21 0.89261744E-02 0.12649051E+03</pdfrwt>
<pdfrwt beam="2">  1       21 0.14333401E-01 0.12649051E+03</pdfrwt>
<totfact> 0.41627323E+06</totfact>
</mgrwt>
</event>
<event>
 6    1  0.4187588E-002  0.1279021E+03  0.7546771E-02  0.1230602E+00
         21   -1    0    0  503  502  0.00000000000E+00  0.00000000000E+00  0.65863932986E+02  0.65863932986E+02  0.00000000000E+00 0. -1.
         21   -1    0    0  504  503 -0.00000000000E+00 -0.00000000000E+00 -0.10954852930E+03  0.10954852930E+03  0.00000000000E+00 0. -1.
         25    2    1    2    0    0  0.25089882639E+02  0.10248244032E+02 -0.62562803947E+02  0.14238345321E+03  0.12499765836E+03 0.  0.
          5    1    3    3  501    0  0.51727779683E+02  0.30572282739E+02 -0.83501127768E+02  0.10287310631E+03  0.10000000000E+00 0. -1.
         -5    1    3    3    0  501 -0.26637897044E+02 -0.20324038707E+02  0.20938323821E+02  0.39510346907E+02  0.10000000000E+00 0. -1.
         21    1    1    2  504  502 -0.25089882639E+02 -0.10248244032E+02  0.18878207635E+02  0.33029009069E+02  0.00000000000E+00 0. -1.
<mgrwt>
<rscale>  1 0.12790208E+03</rscale>
<asrwt>0</asrwt>
<pdfrwt beam="1">  1       21 0.10132913E-01 0.12790208E+03</pdfrwt>
<pdfrwt beam="2">  1       21 0.16853620E-01 0.12790208E+03</pdfrwt>
<totfact> 0.24914763E+06</totfact>
</mgrwt>
</event>
<event>
 6    1  0.4187588E-002  0.1330444E+03  0.7546771E-02  0.1223007E+00
         21   -1    0    0  504  502  0.00000000000E+00  0.00000000000E+00  0.96378573199E+02  0.96378573199E+02  0.00000000000E+00 0. -1.
         21   -1    0    0  502  503 -0.00000000000E+00 -0.00000000000E+00 -0.19606669248E+03  0.19606669248E+03  0.00000000000E+00 0.  1.
         25    2    1    2    0    0 -0.17953900733E+02 -0.41853345696E+02 -0.16554114924E+03  0.21237862686E+03  0.12500705563E+03 0.  0.
          5    1    3    3  501    0  0.29868334709E+02 -0.67155879515E+02 -0.12408281157E+03  0.14421714080E+03  0.10000000000E+00 0. -1.
         -5    1    3    3    0  501 -0.47822235442E+02  0.25302533819E+02 -0.41458337663E+02  0.68161486061E+02  0.10000000000E+00 0. -1.
         21    1    1    2  504  503  0.17953900733E+02  0.41853345696E+02  0.65853029956E+02  0.80066638820E+02  0.00000000000E+00 0. -1.
<mgrwt>
<rscale>  1 0.13304439E+03</rscale>
<asrwt>0</asrwt>
<pdfrwt beam="1">  1       21 0.14827473E-01 0.13304439E+03</pdfrwt>
<pdfrwt beam="2">  1       21 0.30164106E-01 0.13304439E+03</pdfrwt>
<totfact> 0.42634095E+05</totfact>
</mgrwt>
</event>
<event>
 6    1  0.4187588E-002  0.1263136E+03  0.7546771E-02  0.1233030E+00
         21   -1    0    0  503  502  0.00000000000E+00  0.00000000000E+00  0.35526249734E+03  0.35526249734E+03  0.00000000000E+00 0. -1.
         21   -1    0    0  504  503 -0.00000000000E+00 -0.00000000000E+00 -0.42258597229E+02  0.42258597229E+02  0.00000000000E+00 0.  1.
         25    2    1    2    0    0 -0.21692104480E+01 -0.18043404839E+02  0.53162889997E+02  0.13704533664E+03  0.12499944596E+03 0.  0.
          5    1    3    3  501    0  0.12660339130E+02 -0.70277667940E+02  0.36807009713E+02  0.80336795816E+02  0.10000000000E+00 0. -1.
         -5    1    3    3    0  501 -0.14829549578E+02  0.52234263101E+02  0.16355880284E+02  0.56708540823E+02  0.10000000000E+00 0. -1.
         21    1    1    2  504  502  0.21692104480E+01  0.18043404839E+02  0.25984101011E+03  0.26047575793E+03  0.00000000000E+00 0. -1.
<mgrwt>
<rscale>  1 0.12631362E+03</rscale>
<asrwt>0</asrwt>
<pdfrwt beam="1">  1       21 0.54655767E-01 0.12631362E+03</pdfrwt>
<pdfrwt beam="2">  1       21 0.65013229E-02 0.12631362E+03</pdfrwt>
<totfact> 0.54760969E+05</totfact>
</mgrwt>
</event>
<event>
 6    1  0.4187588E-002  0.1273507E+03  0.7546771E-02  0.1231441E+00
         21   -1    0    0  504  502  0.00000000000E+00  0.00000000000E+00  0.14372196857E+02  0.14372196857E+02  0.00000000000E+00 0. -1.
         21   -1    0    0  502  503 -0.00000000000E+00 -0.00000000000E+00 -0.74383291988E+03  0.74383291988E+03  0.00000000000E+00 0. -1.
         25    2    1    2    0    0 -0.46448873477E+01  0.23889762081E+02 -0.72141980298E+03  0.73257403978E+03  0.12500358363E+03 0.  0.
          5    1    3    3  501    0 -0.29531971406E+02  0.43572394479E+02 -0.12928614887E+03  0.13959086355E+03  0.10000000000E+00 0. -1.
         -5    1    3    3    0  501  0.24887084059E+02 -0.19682632398E+02 -0.59213365410E+03  0.59298317623E+03  0.10000000000E+00 0. -1.
         21    1    1    2  504  503  0.46448873477E+01 -0.23889762081E+02 -0.80409200453E+01  0.25631076956E+02  0.00000000000E+00 0. -1.
<mgrwt>
<rscale>  1 0.12735066E+03</rscale>
<asrwt>0</asrwt>
<pdfrwt beam="1">  1       21 0.22111074E-02 0.12735066E+03</pdfrwt>
<pdfrwt beam="2">  1       21 0.11443582E+00 0.12735066E+03</pdfrwt>
<totfact> 0.62712701E+05</totfact>
</mgrwt>
</event>
<event>
 6    1  0.4187588E-002  0.1259863E+03  0.7546771E-02  0.1233536E+00
         21   -1    0    0  504  502  0.00000000000E+00  0.00000000000E+00  0.28593131118E+03  0.28593131118E+03  0.00000000000E+00 0.  1.
         21   -1    0    0  502  503 -0.00000000000E+00 -0.00000000000E+00 -0.17989816552E+02  0.17989816552E+02  0.00000000000E+00 0.  1.
         25    2    1    2    0    0  0.15525228917E+02 -0.24953137870E+01  0.22065790972E+03  0.25409145057E+03  0.12500117123E+03 0.  0.
          5    1    3    3  501    0 -0.48350928592E+02 -0.35274893005E+01  0.15532627641E+03  0.16271606442E+03  0.10000000000E+00 0. -1.
         -5    1    3    3    0  501  0.63876157509E+02  0.10321755135E+01  0.65331633310E+02  0.91375386157E+02  0.10000000000E+00 0. -1.
         21    1    1    2  504  503 -0.15525228917E+02  0.24953137870E+01  0.47283584912E+02  0.49829677161E+02  0.00000000000E+00 0.  1.
<mgrwt>
<rscale>  1 0.12598632E+03</rscale>
<asrwt>0</asrwt>
<pdfrwt beam="1">  1       21 0.43989429E-01 0.12598632E+03</pdfrwt>
<pdfrwt beam="2">  1       21 0.27676643E-02 0.12598632E+03</pdfrwt>
<totfact> 0.35498905E+06</totfact>
</mgrwt>
</event>
<event>
 6    1  0.4187588E-002  0.1285210E+03  0.7546771E-02  0.1229667E+00
         21   -1    0    0  504  502  0.00000000000E+00  0.00000000000E+00  0.96708657101E+03  0.96708657101E+03  0.00000000000E+00 0.  1.
         21   -1    0    0  502  503 -0.00000000000E+00 -0.00000000000E+00 -0.32219159099E+02  0.32219159099E+02  0.00000000000E+00 0.  1.
         25    2    1    2    0    0 -0.21834182022E+02  0.20448897308E+02  0.97285277663E+02  0.16118955647E+03  0.12499103551E+03 0.  0.
          5    1    3    3  501    0 -0.29422131664E+01  0.44239417709E+02  0.11690176382E+03  0.12502725735E+03  0.10000000000E+00 0. -1.
         -5    1    3    3    0  501 -0.18891968856E+02 -0.23790520401E+02 -0.19616486155E+02  0.36162299115E+02  0.10000000000E+00 0. -1.
         21    1    1    2  504  503  0.21834182022E+02 -0.20448897308E+02  0.83758213425E+03  0.83811617364E+03  0.00000000000E+00 0.  1.
<mgrwt>
<rscale>  1 0.12852100E+03</rscale>
<asrwt>0</asrwt>
<pdfrwt beam="1">  1       21 0.14878253E+00 0.12852100E+03</pdfrwt>
<pdfrwt beam="2">  1       21 0.49567944E-02 0.12852100E+03</pdfrwt>
<totfact> 0.86194142E+04</totfact>
</mgrwt>
</event>
<event>
 6    1  0.4187588E-002  0.1303167E+03  0.7546771E-02  0.1226987E+00
         21   -1    0    0  503  502  0.00000000000E+00  0.00000000000E+00  0.16816736297E+03  0.16816736297E+03  0.00000000000E+00 0.  1.
         21   -1    0    0  504  503 -0.00000000000E+00 -0.00000000000E+00 -0.87955395374E+02  0.87955395374E+02  0.00000000000E+00 0.  1.
         25    2    1    2    0    0  0.71533552291E+01 -0.36196250115E+02 -0.35174912288E+02  0.13498039968E+03  0.12498437834E+03 0.  0.
          5    1    3    3  501    0 -0.83309777282E+01 -0.23489375735E+02  0.45487579176E+02  0.51867965274E+02  0.10000000000E+00 0.  1.
         -5    1    3    3    0  501  0.15484332957E+02 -0.12706874380E+02 -0.80662491464E+02  0.83112434406E+02  0.10000000000E+00 0.  1.
         21    1    1    2  504  502 -0.71533552291E+01  0.36196250115E+02  0.11538687989E+03  0.12114235867E+03  0.00000000000E+00 0.  1.
<mgrwt>
<rscale>  1 0.13031667E+03</rscale>
<asrwt>0</asrwt>
<pdfrwt beam="1">  1       21 0.25871902E-01 0.13031667E+03</pdfrwt>
<pdfrwt beam="2">  1       21 0.13531599E-01 0.13031667E+03</pdfrwt>
<totfact> 0.67414261E+05</totfact>
</mgrwt>
</event>
<event>
 6    1  0.4187588E-002  0.1401621E+03  0.7546771E-02  0.1213111E+00
         21   -1    0    0  504  502  0.00000000000E+00  0.00000000000E+00  0.28031287390E+03  0.28031287390E+03  0.00000000000E+00 0. -1.
         21   -1    0    0  502  503 -0.00000000000E+00 -0.00000000000E+00 -0.41261950776E+02  0.41261950776E+02  0.00000000000E+00 0. -1.
         25    2    1    2    0    0  0.23927579778E+02 -0.58719120139E+02  0.11138833259E+03  0.17903289693E+03  0.12499981361E+03 0.  0.
          5    1    3    3  501    0  0.64392311335E+01 -0.90219806189E+02  0.11075749613E+03  0.14299758765E+03  0.10000000000E+00 0. -1.
         -5    1    3    3    0  501  0.17488348644E+02  0.31500686050E+02  0.63083646170E+00  0.36035309275E+02  0.10000000000E+00 0. -1.
         21    1    1    2  504  503 -0.23927579778E+02  0.58719120139E+02  0.12766259053E+03  0.14254192774E+03  0.00000000000E+00 0. -1.
<mgrwt>
<rscale>  1 0.14016211E+03</rscale>
<asrwt>0</asrwt>
<pdfrwt beam="1">  1       21 0.43125056E-01 0.14016211E+03</pdfrwt>
<pdfrwt beam="2">  1       21 0.63479926E-02 0.14016211E+03</pdfrwt>
<totfact> 0.92807600E+05</totfact>
</mgrwt>
</event>
<event>
 6    1  0.4187588E-002  0.1270099E+03  0.7546771E-02  0.1231961E+00
         21   -1    0    0  504  502  0.00000000000E+00  0.00000000000E+00  0.19883515649E+02  0.19883515649E+02  0.00000000000E+00 0. -1.
         21   -1    0    0  502  503 -0.00000000000E+00 -0.00000000000E+00 -0.28818432703E+03  0.28818432703E+03  0.00000000000E+00 0. -1.
         25    2    1    2    0    0  0.22319530850E+02 -0.26637356209E+01 -0.24323951067E+03  0.27440293903E+03  0.12500502569E+03 0.  0.
          5    1    3    3  501    0 -0.21587352277E+02 -0.50462575809E+02 -0.15802833832E+03  0.16728852635E+03  0.10000000000E+00 0. -1.
         -5    1    3    3    0  501  0.43906883127E+02  0.47798840188E+02 -0.85211172356E+02  0.10711441268E+03  0.10000000000E+00 0. -1.
         21    1    1    2  504  503 -0.22319530850E+02  0.26637356209E+01 -0.25061300701E+02  0.33664903648E+02  0.00000000000E+00 0.  1.
<mgrwt>
<rscale>  1 0.12700989E+03</rscale>
<asrwt>0</asrwt>
<pdfrwt beam="1">  1       21 0.30590026E-02 0.12700989E+03</pdfrwt>
<pdfrwt beam="2">  1       21 0.44336048E-01 0.12700989E+03</pdfrwt>
<totfact> 0.29667568E+06</totfact>
</mgrwt>
</event>
<event>
 6    1  0.4187588E-002  0.1289294E+03  0.7546771E-02  0.1229053E+00
         21   -1    0    0  504  502  0.00000000000E+00  0.00000000000E+00  0.14845070938E+03  0.14845070938E+03  0.00000000000E+00 0. -1.
         21   -1    0    0  502  503 -0.00000000000E+00 -0.00000000000E+00 -0.43737844014E+02  0.43737844014E+02  0.00000000000E+00 0. -1.
         25    2    1    2    0    0  0.53936297843E+01 -0.31143823636E+02  0.77138075553E+02  0.15024337458E+03  0.12499503955E+03 0.  0.
          5    1    3    3  501    0  0.38337540456E+02 -0.24007447235E+02  0.99836029438E+02  0.10960550764E+03  0.10000000000E+00 0. -1.
         -5    1    3    3    0  501 -0.32943910672E+02 -0.71363764010E+01 -0.22697953886E+02  0.40637866936E+02  0.10000000000E+00 0. -1.
         21    1    1    2  504  503 -0.53936297843E+01  0.31143823636E+02  0.27574789815E+02  0.41945178821E+02  0.00000000000E+00 0. -1.
<mgrwt>
<rscale>  1 0.12892940E+03</rscale>
<asrwt>0</asrwt>
<pdfrwt beam="1">  1       21 0.22838570E-01 0.12892940E+03</pdfrwt>
<pdfrwt beam="2">  1       21 0.67288992E-02 0.12892940E+03</pdfrwt>
<totfact> 0.28854014E+06</totfact>
</mgrwt>
</event>
<event>
 6    1  0.4187588E-002  0.1268039E+03  0.7546771E-02  0.1232277E+00
         21   -1    0    0  503  502  0.00000000000E+00  0.00000000000E+00  0.24084946008E+02  0.24084946008E+02  0.00000000000E+00 0. -1.
         21   -1    0    0  504  503 -0.00000000000E+00 -0.00000000000E+00 -0.24323784193E+03  0.24323784193E+03  0.00000000000E+00 0. -1.
         25    2    1    2    0    0 -0.10237041346E+02  0.18991005665E+02 -0.20646126568E+03  0.24229215091E+03  0.12495509936E+03 0.  0.
          5    1    3    3  501    0 -0.54026612544E+02  0.47359638939E+02 -0.93959553953E+02  0.11828025212E+03  0.10000000000E+00 0.  1.
         -5    1    3    3    0  501  0.43789571198E+02 -0.28368633274E+02 -0.11250171172E+03  0.12401189879E+03  0.10000000000E+00 0.  1.
         21    1    1    2  504  502  0.10237041346E+02 -0.18991005665E+02 -0.12691630243E+02  0.25030637026E+02  0.00000000000E+00 0. -1.
<mgrwt>
<rscale>  1 0.12680391E+03</rscale>
<asrwt>0</asrwt>
<pdfrwt beam="1">  1       21 0.37053765E-02 0.12680391E+03</pdfrwt>
<pdfrwt beam="2">  1       21 0.37421204E-01 0.12680391E+03</pdfrwt>
<totfact> 0.30380788E+06</totfact>
</mgrwt>
</event>
<event>
 6    1  0.4187588E-002  0.1274902E+03  0.7546771E-02  0.1231228E+00
         21   -1    0    0  504  502  0.00000000000E+00  0.00000000000E+00  0.30401924335E+02  0.30401924335E+02  0.00000000000E+00 0.  1.
         21   -1    0    0  502  503 -0.00000000000E+00 -0.00000000000E+00 -0.38831617482E+03  0.38831617482E+03  0.00000000000E+00 0. -1.
         25    2    1    2    0    0  0.10243018685E+02  0.22888054308E+02 -0.36966054674E+03  0.39102770484E+03  0.12499985471E+03 0.  0.
          5    1    3    3  501    0  0.38411974148E+02 -0.18863102331E+02 -0.43571056502E+02  0.61071624771E+02  0.10000000000E+00 0. -1.
         -5    1    3    3    0  501 -0.28168955463E+02  0.41751156638E+02 -0.32608949023E+03  0.32995608007E+03  0.10000000000E+00 0. -1.
         21    1    1    2  504  503 -0.10243018685E+02 -0.22888054308E+02  0.11746296252E+02  0.27690394317E+02  0.00000000000E+00 0.  1.
<mgrwt>
<rscale>  1 0.12749018E+03</rscale>
<asrwt>0</asrwt>
<pdfrwt beam="1">  1       21 0.46772195E-02 0.12749018E+03</pdfrwt>
<pdfrwt beam="2">  1       21 0.59740945E-01 0.12749018E+03</pdfrwt>
<totfact> 0.79149083E+05</totfact>
</mgrwt>
</event>
<event>
 6    1  0.4187588E-002  0.1264445E+03  0.7546771E-02  0.1232829E+00
         21   -1    0    0  503  502  0.00000000000E+00  0.00000000000E+00  0.41173049137E+02  0.41173049137E+02  0.00000000000E+00 0.  1.
         21   -1    0    0  504  503 -0.00000000000E+00 -0.00000000000E+00 -0.14939169240E+03  0.14939169240E+03  0.00000000000E+00 0.  1.
         25    2    1    2    0    0 -0.14718488479E+02 -0.12158558220E+02 -0.11438203699E+03  0.17050353860E+03  0.12499496729E+03 0.  0.
          5    1    3    3  501    0  0.10477772512E+02  0.53362596383E+02 -0.64611941168E+02  0.84451544397E+02  0.10000000000E+00 0. -1.
         -5    1    3    3    0  501 -0.25196260991E+02 -0.65521154603E+02 -0.49770095821E+02  0.86051994204E+02  0.10000000000E+00 0. -1.
         21    1    1    2  504  502  0.14718488479E+02  0.12158558220E+02  0.61633937245E+01  0.20061202937E+02  0.00000000000E+00 0. -1.
<mgrwt>
<rscale>  1 0.12644448E+03</rscale>
<asrwt>0</asrwt>
<pdfrwt beam="1">  1       21 0.63343153E-02 0.12644448E+03</pdfrwt>
<pdfrwt beam="2">  1       21 0.22983337E-01 0.12644448E+03</pdfrwt>
<totfact> 0.31582710E+06</totfact>
</mgrwt>
</event>
<event>
 6    1  0.4187588E-002  0.1286659E+03  0.7546771E-02  0.1229449E+00
         21   -1    0    0  503  502  0.00000000000E+00  0.00000000000E+00  0.22732556063E+02  0.22732556063E+02  0.00000000000E+00 0.  1.
         21   -1    0    0  504  503 -0.00000000000E+00 -0.00000000000E+00 -0.40228659970E+03  0.40228659970E+03  0.00000000000E+00 0.  1.
         25    2    1    2    0    0  0.23934983554E+02  0.18926456304E+02 -0.37194512957E+03  0.39357094820E+03  0.12499527059E+03 0.  0.
          5    1    3    3  501    0 -0.69330300654E+01 -0.34857310942E+02 -0.28252901383E+03  0.28475560168E+03  0.10000000000E+00 0.  1.
         -5    1    3    3    0  501  0.30868013620E+02  0.53783767246E+02 -0.89416115741E+02  0.10881534652E+03  0.10000000000E+00 0.  1.
         21    1    1    2  504  502 -0.23934983554E+02 -0.18926456304E+02 -0.76089140726E+01  0.31448207570E+02  0.00000000000E+00 0. -1.
<mgrwt>
<rscale>  1 0.12866589E+03</rscale>
<asrwt>0</asrwt>
<pdfrwt beam="1">  1       21 0.34973167E-02 0.12866589E+03</pdfrwt>
<pdfrwt beam="2">  1       21 0.61890239E-01 0.12866589E+03</pdfrwt>
<totfact> 0.11901923E+06</totfact>
</mgrwt>
</event>
<event>
 6    1  0.4187588E-002  0.1264094E+03  0.7546771E-02  0.1232883E+00
         21   -1    0    0  504  502  0.00000000000E+00  0.00000000000E+00  0.52787808680E+01  0.52787808680E+01  0.00000000000E+00 0.  1.
         21   -1    0    0  502  503 -0.00000000000E+00 -0.00000000000E+00 -0.99975915420E+03  0.99975915420E+03  0.00000000000E+00 0.  1.
         25    2    1    2    0    0 -0.18609062192E+02  0.12633948309E+01 -0.84640837063E+03  0.85579581184E+03  0.12502579064E+03 0.  0.
          5    1    3    3  501    0 -0.24093799712E+02  0.30473808836E+01 -0.26799228231E+02  0.36166370409E+02  0.10000000000E+00 0. -1.
         -5    1    3    3    0  501  0.54847375198E+01 -0.17839860527E+01 -0.81960914240E+03  0.81962944143E+03  0.10000000000E+00 0. -1.
         21    1    1    2  504  503  0.18609062192E+02 -0.12633948309E+01 -0.14807200270E+03  0.14924212322E+03  0.00000000000E+00 0.  1.
<mgrwt>
<rscale>  1 0.12640942E+03</rscale>
<asrwt>0</asrwt>
<pdfrwt beam="1">  1       21 0.81212094E-03 0.12640942E+03</pdfrwt>
<pdfrwt beam="2">  1       21 0.15380895E+00 0.12640942E+03</pdfrwt>
<totfact> 0.14721381E+06</totfact>
</mgrwt>
</event>
<event>
 6    1  0.4187588E-002  0.1272022E+03  0.7546771E-02  0.1231667E+00
         21   -1    0    0  503  502  0.00000000000E+00  0.00000000000E+00  0.36223325901E+02  0.36223325901E+02  0.00000000000E+00 0. -1.
         21   -1    0    0  504  503 -0.00000000000E+00 -0.00000000000E+00 -0.25911334138E+03  0.25911334138E+03  0.00000000000E+00 0. -1.
         25    2    1    2    0    0 -0.14758796646E+02  0.18289804799E+02 -0.23623909361E+03  0.26830822069E+03  0.12501221102E+03 0.  0.
          5    1    3    3  501    0  0.25206088048E+02 -0.27679236506E+01  0.23628959800E+01  0.25467657007E+02  0.10000000000E+00 0. -1.
         -5    1    3    3    0  501 -0.39964884694E+02  0.21057728449E+02 -0.23860198959E+03  0.24284056368E+03  0.10000000000E+00 0. -1.
         21    1    1    2  504  502  0.14758796646E+02 -0.18289804799E+02  0.13349078129E+02  0.27028446587E+02  0.00000000000E+00 0. -1.
<mgrwt>
<rscale>  1 0.12720217E+03</rscale>
<asrwt>0</asrwt>
<pdfrwt beam="1">  1       21 0.55728191E-02 0.12720217E+03</pdfrwt>
<pdfrwt beam="2">  1       21 0.39863593E-01 0.12720217E+03</pdfrwt>
<totfact> 0.13547373E+06</totfact>
</mgrwt>
</event>
<event>
 6    1  0.4187588E-002  0.1273236E+03  0.7546771E-02  0.1231482E+00
         21   -1    0    0  504  502  0.00000000000E+00  0.00000000000E+00  0.54534270171E+03  0.54534270171E+03  0.00000000000E+00 0.  1.
         21   -1    0    0  502  503 -0.00000000000E+00 -0.00000000000E+00 -0.12987915539E+02  0.12987915539E+02  0.00000000000E+00 0.  1.
         25    2    1    2    0    0 -0.10384831088E+02 -0.21873686289E+02  0.31693009793E+03  0.34154939304E+03  0.12499999216E+03 0.  0.
          5    1    3    3  501    0  0.13426825005E+02 -0.20958653515E+02  0.31674271115E+03  0.31771921543E+03  0.10000000000E+00 0.  1.
         -5    1    3    3    0  501 -0.23811656093E+02 -0.91503277370E+00  0.18738678184E+00  0.23830177605E+02  0.10000000000E+00 0.  1.
         21    1    1    2  504  503  0.10384831088E+02  0.21873686289E+02  0.21542468824E+03  0.21678122421E+03  0.00000000000E+00 0.  1.
<mgrwt>
<rscale>  1 0.12732361E+03</rscale>
<asrwt>0</asrwt>
<pdfrwt beam="1">  1       21 0.83898860E-01 0.12732361E+03</pdfrwt>
<pdfrwt beam="2">  1       21 0.19981413E-02 0.12732361E+03</pdfrwt>
<totfact> 0.15223609E+06</totfact>
</mgrwt>
</event>
<event>
 6    1  0.4187588E-002  0.1263141E+03  0.7546771E-02  0.1233030E+00
         21   -1    0    0  503  502  0.00000000000E+00  0.00000000000E+00  0.26463571267E+03  0.26463571267E+03  0.00000000000E+00 0. -1.
         21   -1    0    0  504  503 -0.00000000000E+00 -0.00000000000E+00 -0.24769275496E+02  0.24769275496E+02  0.00000000000E+00 0. -1.
         25    2    1    2    0    0  0.17948809541E+02  0.28185591532E+01  0.14278446995E+03  0.19063752187E+03  0.12500062338E+03 0.  0.
          5    1    3    3  501    0  0.30402855092E+02  0.52221328093E+02  0.12095551054E+03  0.13520963810E+03  0.10000000000E+00 0. -1.
         -5    1    3    3    0  501 -0.12454045550E+02 -0.49402768940E+02  0.21828959410E+02  0.55427883763E+02  0.10000000000E+00 0. -1.
         21    1    1    2  504  502 -0.17948809541E+02 -0.28185591532E+01  0.97081967220E+02  0.98767466299E+02  0.00000000000E+00 0.  1.
<mgrwt>
<rscale>  1 0.12631413E+03</rscale>
<asrwt>0</asrwt>
<pdfrwt beam="1">  1       21 0.40713185E-01 0.12631413E+03</pdfrwt>
<pdfrwt beam="2">  1       21 0.38106580E-02 0.12631413E+03</pdfrwt>
<totfact> 0.24518137E+06</totfact>
</mgrwt>
</event>
<event>
 6    1  0.4187588E-002  0.1279022E+03  0.7546771E-02  0.1230602E+00
         21   -1    0    0  503  502  0.00000000000E+00  0.00000000000E+00  0.77481949008E+03  0.77481949008E+03  0.00000000000E+00 0.  1.
         21   -1    0    0  504  503 -0.00000000000E+00 -0.00000000000E+00 -0.79092387655E+01  0.79092387655E+01  0.00000000000E+00 0.  1.
         25    2    1    2    0    0  0.26640863257E+02 -0.48501722610E+01  0.58539098263E+03  0.59920078909E+03  0.12500289332E+03 0.  0.
          5    1    3    3  501    0 -0.73413777954E+01  0.62894480832E+01  0.54566031440E+03  0.54574594978E+03  0.10000000000E+00 0. -1.
         -5    1    3    3    0  501  0.33982241052E+02 -0.11139620344E+02  0.39730668225E+02  0.53454839312E+02  0.10000000000E+00 0. -1.
         21    1    1    2  504  502 -0.26640863257E+02  0.48501722610E+01  0.18151926868E+03  0.18352793975E+03  0.00000000000E+00 0.  1.
<mgrwt>
<rscale>  1 0.12790224E+03</rscale>
<asrwt>0</asrwt>
<pdfrwt beam="1">  1       21 0.11920294E+00 0.12790224E+03</pdfrwt>
<pdfrwt beam="2">  1       21 0.12168066E-02 0.12790224E+03</pdfrwt>
<totfact> 0.14791728E+06</totfact>
</mgrwt>
</event>
<event>
 6    1  0.4187588E-002  0.1266372E+03  0.7546771E-02  0.1232533E+00
         21   -1    0    0  503  502  0.00000000000E+00  0.00000000000E+00  0.78605811112E+03  0.78605811112E+03  0.00000000000E+00 0. -1.
         21   -1    0    0  504  503 -0.00000000000E+00 -0.00000000000E+00 -0.10342051886E+02  0.10342051886E+02  0.00000000000E+00 0. -1.
         25    2    1    2    0    0 -0.89836003592E+01  0.18236167772E+02  0.38782961009E+03  0.40798136799E+03  0.12499490900E+03 0.  0.
          5    1    3    3  501    0  0.34589858781E+02  0.57828549315E+02  0.22263328225E+03  0.23260736835E+03  0.10000000000E+00 0.  1.
         -5    1    3    3    0  501 -0.43573459140E+02 -0.39592381543E+02  0.16519632784E+03  0.17537399964E+03  0.10000000000E+00 0.  1.
         21    1    1    2  504  502  0.89836003592E+01 -0.18236167772E+02  0.38788644915E+03  0.38841879502E+03  0.00000000000E+00 0. -1.
<mgrwt>
<rscale>  1 0.12663724E+03</rscale>
<asrwt>0</asrwt>
<pdfrwt beam="1">  1       21 0.12093197E+00 0.12663724E+03</pdfrwt>
<pdfrwt beam="2">  1       21 0.15910855E-02 0.12663724E+03</pdfrwt>
<totfact> 0.93170509E+05</totfact>
</mgrwt>
</event>
<event>
 6    1  0.4187588E-002  0.1271889E+03  0.7546771E-02  0.1231688E+00
         21   -1    0    0  503  502  0.00000000000E+00  0.00000000000E+00  0.66992006852E+02  0.66992006852E+02  0.00000000000E+00 0. -1.
         21   -1    0    0  504  503 -0.00000000000E+00 -0.00000000000E+00 -0.84764328537E+02  0.84764328537E+02  0.00000000000E+00 0. -1.
         25    2    1    2    0    0  0.13422491100E+02 -0.19176390546E+02 -0.12842481738E+02  0.12783562170E+03  0.12501647738E+03 0.  0.
          5    1    3    3  501    0  0.21315488911E+02 -0.41478293320E+02 -0.59455330958E+02  0.75562856375E+02  0.10000000000E+00 0. -1.
         -5    1    3    3    0  501 -0.78929978117E+01  0.22301902773E+02  0.46612849220E+02  0.52272765320E+02  0.10000000000E+00 0. -1.
         21    1    1    2  504  502 -0.13422491100E+02  0.19176390546E+02 -0.49298399476E+01  0.23920713694E+02  0.00000000000E+00 0. -1.
<mgrwt>
<rscale>  1 0.12718890E+03</rscale>
<asrwt>0</asrwt>
<pdfrwt beam="1">  1       21 0.10306463E-01 0.12718890E+03</pdfrwt>
<pdfrwt beam="2">  1       21 0.13040666E-01 0.12718890E+03</pdfrwt>
<totfact> 0.38373425E+06</totfact>
</mgrwt>
</event>
<event>
 6    1  0.4187588E-002  0.1276330E+03  0.7546771E-02  0.1231011E+00
         21   -1    0    0  504  502  0.00000000000E+00  0.00000000000E+00  0.14490025519E+04  0.14490025519E+04  0.00000000000E+00 0.  1.
         21   -1    0    0  502  503 -0.00000000000E+00 -0.00000000000E+00 -0.33512091308E+02  0.33512091308E+02  0.00000000000E+00 0.  1.
         25    2    1    2    0    0 -0.15943716286E+02 -0.20294564002E+02  0.88594828811E+02  0.15536804654E+03  0.12499645905E+03 0.  0.
          5    1    3    3  501    0  0.26626414439E+02  0.18722238658E+02  0.91933938798E+02  0.97526136339E+02  0.10000000000E+00 0. -1.
         -5    1    3    3    0  501 -0.42570130725E+02 -0.39016802660E+02 -0.33391099871E+01  0.57841910197E+02  0.10000000000E+00 0. -1.
         21    1    1    2  504  503  0.15943716286E+02  0.20294564002E+02  0.13268956318E+04  0.13271465967E+04  0.00000000000E+00 0.  1.
<mgrwt>
<rscale>  1 0.12763301E+03</rscale>
<asrwt>0</asrwt>
<pdfrwt beam="1">  1       21 0.22292342E+00 0.12763301E+03</pdfrwt>
<pdfrwt beam="2">  1       21 0.51557075E-02 0.12763301E+03</pdfrwt>
<totfact> 0.26107100E+04</totfact>
</mgrwt>
</event>
<event>
 6    1  0.4187588E-002  0.1270472E+03  0.7546771E-02  0.1231904E+00
         21   -1    0    0  503  502  0.00000000000E+00  0.00000000000E+00  0.16182858639E+03  0.16182858639E+03  0.00000000000E+00 0.  1.
         21   -1    0    0  504  503 -0.00000000000E+00 -0.00000000000E+00 -0.34822665473E+02  0.34822665473E+02  0.00000000000E+00 0.  1.
         25    2    1    2    0    0 -0.12131766318E+02 -0.19157074891E+02  0.11277674128E+03  0.16988106647E+03  0.12500724019E+03 0.  0.
          5    1    3    3  501    0  0.97627508796E+01  0.34902119082E+02  0.10495254983E+03  0.11103385492E+03  0.10000000000E+00 0. -1.
         -5    1    3    3    0  501 -0.21894517197E+02 -0.54059193973E+02  0.78241914427E+01  0.58847211557E+02  0.10000000000E+00 0. -1.
         21    1    1    2  504  502  0.12131766318E+02  0.19157074891E+02  0.14229179637E+02  0.26770185385E+02  0.00000000000E+00 0.  1.
<mgrwt>
<rscale>  1 0.12704717E+03</rscale>
<asrwt>0</asrwt>
<pdfrwt beam="1">  1       21 0.24896705E-01 0.12704717E+03</pdfrwt>
<pdfrwt beam="2">  1       21 0.53573332E-02 0.12704717E+03</pdfrwt>
<totfact> 0.36086166E+06</totfact>
</mgrwt>
</event>
<event>
 6    1  0.4187588E-002  0.1426141E+03  0.7546771E-02  0.1209854E+00
         21   -1    0    0  503  502  0.00000000000E+00  0.00000000000E+00  0.77895098288E+03  0.77895098288E+03  0.00000000000E+00 0.  1.
         21   -1    0    0  504  503 -0.00000000000E+00 -0.00000000000E+00 -0.15412565030E+02  0.15412565030E+02  0.00000000000E+00 0.  1.
         25    2    1    2    0    0  0.31057926838E+02  0.61228721827E+02  0.40668303789E+03  0.43096388720E+03  0.12500091027E+03 0.  0.
          5    1    3    3  501    0  0.69780053027E+01 -0.13800753579E+02 -0.12260300164E+01  0.15513429890E+02  0.10000000000E+00 0.  1.
         -5    1    3    3    0  501  0.24079921535E+02  0.75029475405E+02  0.40790906790E+03  0.41545045731E+03  0.10000000000E+00 0.  1.
         21    1    1    2  504  502 -0.31057926838E+02 -0.61228721827E+02  0.35685537997E+03  0.36339966071E+03  0.00000000000E+00 0.  1.
<mgrwt>
<rscale>  1 0.14261409E+03</rscale>
<asrwt>0</asrwt>
<pdfrwt beam="1">  1       21 0.11983858E+00 0.14261409E+03</pdfrwt>
<pdfrwt beam="2">  1       21 0.23711644E-02 0.14261409E+03</pdfrwt>
<totfact> 0.49942653E+05</totfact>
</mgrwt>
</event>
<event>
 6    1  0.4187588E-002  0.1308803E+03  0.7546771E-02  0.1226155E+00
         21   -1    0    0  504  502  0.00000000000E+00  0.00000000000E+00  0.83439987443E+03  0.83439987443E+03  0.00000000000E+00 0.  1.
         21   -1    0    0  502  503 -0.00000000000E+00 -0.00000000000E+00 -0.86562533087E+01  0.86562533087E+01  0.00000000000E+00 0. -1.
         25    2    1    2    0    0 -0.22715385171E+02 -0.31493655625E+02  0.65580991025E+03  0.66874231544E+03  0.12498722738E+03 0.  0.
          5    1    3    3  501    0  0.29368356005E+02 -0.47126321906E+02  0.14877870196E+03  0.15880334602E+03  0.10000000000E+00 0.  1.
         -5    1    3    3    0  501 -0.52083741176E+02  0.15632666281E+02  0.50703120829E+03  0.50993896941E+03  0.10000000000E+00 0.  1.
         21    1    1    2  504  503  0.22715385171E+02  0.31493655625E+02  0.16993371087E+03  0.17431381230E+03  0.00000000000E+00 0. -1.
<mgrwt>
<rscale>  1 0.13088027E+03</rscale>
<asrwt>0</asrwt>
<pdfrwt beam="1">  1       21 0.12836915E+00 0.13088027E+03</pdfrwt>
<pdfrwt beam="2">  1       21 0.13317319E-02 0.13088027E+03</pdfrwt>
<totfact> 0.10678979E+06</totfact>
</mgrwt>
</event>
<event>
 6    1  0.4187588E-002  0.1261385E+03  0.7546771E-02  0.1233301E+00
         21   -1    0    0  503  502  0.00000000000E+00  0.00000000000E+00  0.46603521589E+01  0.46603521589E+01  0.00000000000E+00 0.  1.
         21   -1    0    0  504  503 -0.00000000000E+00 -0.00000000000E+00 -0.11057491699E+04  0.11057491699E+04  0.00000000000E+00 0.  1.
         25    2    1    2    0    0 -0.84736654612E+01  0.14656351724E+02 -0.99800297143E+03  0.10059427648E+04  0.12499721404E+03 0.  0.
          5    1    3    3  501    0 -0.10724963457E+02 -0.52531072778E+02 -0.59082324513E+03  0.59325092114E+03  0.10000000000E+00 0.  1.
         -5    1    3    3    0  501  0.22512979955E+01  0.67187424502E+02 -0.40717972630E+03  0.41269184371E+03  0.10000000000E+00 0.  1.
         21    1    1    2  504  502  0.84736654612E+01 -0.14656351724E+02 -0.10308584632E+03  0.10446675722E+03  0.00000000000E+00 0.  1.
<mgrwt>
<rscale>  1 0.12613848E+03</rscale>
<asrwt>0</asrwt>
<pdfrwt beam="1">  1       21 0.71697677E-03 0.12613848E+03</pdfrwt>
<pdfrwt beam="2">  1       21 0.17011537E+00 0.12613848E+03</pdfrwt>
<totfact> 0.13685427E+06</totfact>
</mgrwt>
</event>
<event>
 6    1  0.4187588E-002  0.1261360E+03  0.7546771E-02  0.1233304E+00
         21   -1    0    0  504  502  0.00000000000E+00  0.00000000000E+00  0.11462551754E+03  0.11462551754E+03  0.00000000000E+00 0.  1.
         21   -1    0    0  502  503 -0.00000000000E+00 -0.00000000000E+00 -0.49796888944E+02  0.49796888944E+02  0.00000000000E+00 0.  1.
         25    2    1    2    0    0 -0.83366728496E+01 -0.14775027959E+02  0.36342284277E+02  0.13126711463E+03  0.12498996836E+03 0.  0.
          5    1    3    3  501    0  0.30388158611E+01  0.31852720183E+02  0.67046688607E+02  0.74290636275E+02  0.10000000000E+00 0.  1.
         -5    1    3    3    0  501 -0.11375488711E+02 -0.46627748143E+02 -0.30704404330E+02  0.56976478353E+02  0.10000000000E+00 0.  1.
         21    1    1    2  504  503  0.83366728496E+01  0.14775027959E+02  0.28486344323E+02  0.33155291859E+02  0.00000000000E+00 0.  1.
<mgrwt>
<rscale>  1 0.12613601E+03</rscale>
<asrwt>0</asrwt>
<pdfrwt beam="1">  1       21 0.17634695E-01 0.12613601E+03</pdfrwt>
<pdfrwt beam="2">  1       21 0.76610599E-02 0.12613601E+03</pdfrwt>
<totfact> 0.37235923E+06</totfact>
</mgrwt>
</event>
<event>
 6    1  0.4187588E-002  0.1521452E+03  0.7546771E-02  0.1197861E+00
         21   -1    0    0  504  502  0.00000000000E+00  0.00000000000E+00  0.41660521742E+02  0.41660521742E+02  0.00000000000E+00 0.  1.
         21   -1    0    0  502  503 -0.00000000000E+00 -0.00000000000E+00 -0.11514237432E+04  0.11514237432E+04  0.00000000000E+00 0. -1.
         25    2    1    2    0    0 -0.48741610123E+02  0.71750957935E+02 -0.10944838045E+04  0.11050081325E+04  0.12499692042E+03 0.  0.
          5    1    3    3  501    0 -0.28780636718E+02 -0.33564360960E+02 -0.37139629780E+03  0.37401886503E+03  0.10000000000E+00 0.  1.
         -5    1    3    3    0  501 -0.19960973405E+02  0.10531531890E+03 -0.72308750665E+03  0.73098926745E+03  0.10000000000E+00 0.  1.
         21    1    1    2  504  503  0.48741610123E+02 -0.71750957935E+02 -0.15279416981E+02  0.88076132438E+02  0.00000000000E+00 0.  1.
<mgrwt>
<rscale>  1 0.15214524E+03</rscale>
<asrwt>0</asrwt>
<pdfrwt beam="1">  1       21 0.64093109E-02 0.15214524E+03</pdfrwt>
<pdfrwt beam="2">  1       21 0.17714212E+00 0.15214524E+03</pdfrwt>
<totfact> 0.34463586E+04</totfact>
</mgrwt>
</event>
<event>
 6    1  0.4187588E-002  0.1263731E+03  0.7546771E-02  0.1232939E+00
         21   -1    0    0  504  502  0.00000000000E+00  0.00000000000E+00  0.46790664457E+02  0.46790664457E+02  0.00000000000E+00 0.  1.
         21   -1    0    0  502  503 -0.00000000000E+00 -0.00000000000E+00 -0.67035552793E+03  0.67035552793E+03  0.00000000000E+00 0.  1.
         25    2    1    2    0    0 -0.15350382493E+02 -0.10421198384E+02 -0.66227242671E+03  0.67422171138E+03  0.12500365311E+03 0.  0.
          5    1    3    3  501    0 -0.21083038839E+02 -0.66144547592E+02 -0.40664320073E+03  0.41252672447E+03  0.10000000000E+00 0. -1.
         -5    1    3    3    0  501  0.57326563459E+01  0.55723349208E+02 -0.25562922598E+03  0.26169498691E+03  0.10000000000E+00 0. -1.
         21    1    1    2  504  503  0.15350382493E+02  0.10421198384E+02  0.38707563237E+02  0.42924481012E+02  0.00000000000E+00 0.  1.
<mgrwt>
<rscale>  1 0.12637305E+03</rscale>
<asrwt>0</asrwt>
<pdfrwt beam="1">  1       21 0.71985639E-02 0.12637305E+03</pdfrwt>
<pdfrwt beam="2">  1       21 0.10313162E+00 0.12637305E+03</pdfrwt>
<totfact> 0.11297301E+05</totfact>
</mgrwt>
</event>
<event>
 6    1  0.4187588E-002  0.1259404E+03  0.7546771E-02  0.1233607E+00
         21   -1    0    0  504  502  0.00000000000E+00  0.00000000000E+00  0.62043135001E+03  0.62043135001E+03  0.00000000000E+00 0. -1.
         21   -1    0    0  502  503 -0.00000000000E+00 -0.00000000000E+00 -0.21553963104E+02  0.21553963104E+02  0.00000000000E+00 0. -1.
         25    2    1    2    0    0  0.28911036487E+01 -0.15082552220E+02  0.16371326903E+03  0.20655029919E+03  0.12500059911E+03 0.  0.
          5    1    3    3  501    0  0.46140984863E+02  0.27529531131E+02  0.34690024821E+02  0.63955245215E+02  0.10000000000E+00 0. -1.
         -5    1    3    3    0  501 -0.43249881214E+02 -0.42612083351E+02  0.12902324421E+03  0.14259505398E+03  0.10000000000E+00 0. -1.
         21    1    1    2  504  503 -0.28911036487E+01  0.15082552220E+02  0.43516411788E+03  0.43543501392E+03  0.00000000000E+00 0. -1.
<mgrwt>
<rscale>  1 0.12594043E+03</rscale>
<asrwt>0</asrwt>
<pdfrwt beam="1">  1       21 0.95450963E-01 0.12594043E+03</pdfrwt>
<pdfrwt beam="2">  1       21 0.33159948E-02 0.12594043E+03</pdfrwt>
<totfact> 0.49688167E+05</totfact>
</mgrwt>
</event>
<event>
 6    1  0.4187588E-002  0.1304305E+03  0.7546771E-02  0.1226818E+00
         21   -1    0    0  504  502  0.00000000000E+00  0.00000000000E+00  0.19835868085E+02  0.19835868085E+02  0.00000000000E+00 0. -1.
         21   -1    0    0  502  503 -0.00000000000E+00 -0.00000000000E+00 -0.36756524790E+03  0.36756524790E+03  0.00000000000E+00 0. -1.
         25    2    1    2    0    0 -0.35716627972E+02  0.10695580055E+02 -0.29759483971E+03  0.32492275927E+03  0.12498815113E+03 0.  0.
          5    1    3    3  501    0 -0.29257415321E+02  0.34717332743E+02 -0.26257655833E+02  0.52447726680E+02  0.10000000000E+00 0. -1.
         -5    1    3    3    0  501 -0.64592126504E+01 -0.24021752688E+02 -0.27133718388E+03  0.27247503259E+03  0.10000000000E+00 0. -1.
         21    1    1    2  504  503  0.35716627972E+02 -0.10695580055E+02 -0.50134540107E+02  0.62478356717E+02  0.00000000000E+00 0. -1.
<mgrwt>
<rscale>  1 0.13043048E+03</rscale>
<asrwt>0</asrwt>
<pdfrwt beam="1">  1       21 0.30516721E-02 0.13043048E+03</pdfrwt>
<pdfrwt beam="2">  1       21 0.56548499E-01 0.13043048E+03</pdfrwt>
<totfact> 0.18039959E+06</totfact>
</mgrwt>
</event>
<event>
 6    1  0.4187588E-002  0.1286138E+03  0.7546771E-02  0.1229527E+00
         21   -1    0    0  503  502  0.00000000000E+00  0.00000000000E+00  0.51000526826E+02  0.51000526826E+02  0.00000000000E+00 0. -1.
         21   -1    0    0  504  503 -0.00000000000E+00 -0.00000000000E+00 -0.50665838220E+03  0.50665838220E+03  0.00000000000E+00 0. -1.
         25    2    1    2    0    0 -0.23049704756E+01  0.30190255258E+02 -0.49304798289E+03  0.50954668566E+03  0.12499898813E+03 0.  0.
          5    1    3    3  501    0 -0.64049846609E+01  0.24174893395E+02 -0.10796270898E+02  0.27240021374E+02  0.10000000000E+00 0. -1.
         -5    1    3    3    0  501  0.41000141852E+01  0.60153618629E+01 -0.48225171199E+03  0.48230666428E+03  0.10000000000E+00 0. -1.
         21    1    1    2  504  502  0.23049704756E+01 -0.30190255258E+02  0.37390127518E+02  0.48112223366E+02  0.00000000000E+00 0. -1.
<mgrwt>
<rscale>  1 0.12861381E+03</rscale>
<asrwt>0</asrwt>
<pdfrwt beam="1">  1       21 0.78462348E-02 0.12861381E+03</pdfrwt>
<pdfrwt beam="2">  1       21 0.77947444E-01 0.12861381E+03</pdfrwt>
<totfact> 0.18464810E+05</totfact>
</mgrwt>
</event>
<event>
 6    1  0.4187588E-002  0.1372586E+03  0.7546771E-02  0.1217066E+00
         21   -1    0    0  504  502  0.00000000000E+00  0.00000000000E+00  0.17261621005E+02  0.17261621005E+02  0.00000000000E+00 0.  1.
         21   -1    0    0  502  503 -0.00000000000E+00 -0.00000000000E+00 -0.54693270595E+03  0.54693270595E+03  0.00000000000E+00 0.  1.
         25    2    1    2    0    0  0.20406300232E+02 -0.52903539934E+02 -0.39019612069E+03  0.41363381659E+03  0.12499888000E+03 0.  0.
          5    1    3    3  501    0 -0.50637938744E+02 -0.40703058316E+02 -0.19629600189E+03  0.20676815556E+03  0.10000000000E+00 0.  1.
         -5    1    3    3    0  501  0.71044238975E+02 -0.12200481618E+02 -0.19390011880E+03  0.20686566103E+03  0.10000000000E+00 0.  1.
         21    1    1    2  504  503 -0.20406300232E+02  0.52903539934E+02 -0.13947496426E+03  0.15056051037E+03  0.00000000000E+00 0. -1.
<mgrwt>
<rscale>  1 0.13725859E+03</rscale>
<asrwt>0</asrwt>
<pdfrwt beam="1">  1       21 0.26556344E-02 0.13725859E+03</pdfrwt>
<pdfrwt beam="2">  1       21 0.84143480E-01 0.13725859E+03</pdfrwt>
<totfact> 0.95331700E+05</totfact>
</mgrwt>
</event>
<event>
 6    1  0.4187588E-002  0.1353131E+03  0.7546771E-02  0.1219778E+00
         21   -1    0    0  503  502  0.00000000000E+00  0.00000000000E+00  0.12973763207E+03  0.12973763207E+03  0.00000000000E+00 0.  1.
         21   -1    0    0  504  503 -0.00000000000E+00 -0.00000000000E+00 -0.96225631453E+02  0.96225631453E+02  0.00000000000E+00 0.  1.
         25    2    1    2    0    0 -0.36457891906E+02  0.36815407257E+02 -0.35284930073E+02  0.13983794921E+03  0.12500029462E+03 0.  0.
          5    1    3    3  501    0 -0.97336821517E+01  0.13253918147E+02  0.47202634890E+02  0.49985094328E+02  0.10000000000E+00 0.  1.
         -5    1    3    3    0  501 -0.26724209755E+02  0.23561489111E+02 -0.82487564963E+02  0.89852854878E+02  0.10000000000E+00 0.  1.
         21    1    1    2  504  502  0.36457891906E+02 -0.36815407257E+02  0.68796930686E+02  0.86125314313E+02  0.00000000000E+00 0.  1.
<mgrwt>
<rscale>  1 0.13531307E+03</rscale>
<asrwt>0</asrwt>
<pdfrwt beam="1">  1       21 0.19959636E-01 0.13531307E+03</pdfrwt>
<pdfrwt beam="2">  1       21 0.14803943E-01 0.13531307E+03</pdfrwt>
<totfact> 0.93277361E+05</totfact>
</mgrwt>
</event>
<event>
 6    1  0.4187588E-002  0.1282011E+03  0.7546771E-02  0.1230150E+00
         21   -1    0    0  504  502  0.00000000000E+00  0.00000000000E+00  0.81228741497E+01  0.81228741497E+01  0.00000000000E+00 0.  1.
         21   -1    0    0  502  503 -0.00000000000E+00 -0.00000000000E+00 -0.78302046493E+03  0.78302046493E+03  0.00000000000E+00 0.  1.
         25    2    1    2    0    0  0.18257314069E+02  0.21856572146E+02 -0.56755574181E+03  0.58185482626E+03  0.12499791806E+03 0.  0.
          5    1    3    3  501    0  0.25806316743E+02 -0.43415325884E+01 -0.18323861646E+02  0.31946655454E+02  0.10000000000E+00 0.  1.
         -5    1    3    3    0  501 -0.75490026742E+01  0.26198104734E+02 -0.54923188017E+03  0.54990817081E+03  0.10000000000E+00 0.  1.
         21    1    1    2  504  503 -0.18257314069E+02 -0.21856572146E+02 -0.20734184897E+03  0.20928851282E+03  0.00000000000E+00 0.  1.
<mgrwt>
<rscale>  1 0.12820109E+03</rscale>
<asrwt>0</asrwt>
<pdfrwt beam="1">  1       21 0.12496729E-02 0.12820109E+03</pdfrwt>
<pdfrwt beam="2">  1       21 0.12046469E+00 0.12820109E+03</pdfrwt>
<totfact> 0.13819202E+06</totfact>
</mgrwt>
</event>
<event>
 6    1  0.4187588E-002  0.1365308E+03  0.7546771E-02  0.1218075E+00
         21   -1    0    0  503  502  0.00000000000E+00  0.00000000000E+00  0.64483423274E+02  0.64483423274E+02  0.00000000000E+00 0.  1.
         21   -1    0    0  504  503 -0.00000000000E+00 -0.00000000000E+00 -0.16388042118E+03  0.16388042118E+03  0.00000000000E+00 0.  1.
         25    2    1    2    0    0 -0.29118278878E+02  0.46539716069E+02 -0.10630068553E+03  0.17303319979E+03  0.12500733237E+03 0.  0.
          5    1    3    3  501    0  0.28724200702E+02 -0.27378824307E+02 -0.49045175533E+02  0.63088184072E+02  0.10000000000E+00 0. -1.
         -5    1    3    3    0  501 -0.57842479580E+02  0.73918540376E+02 -0.57255509998E+02  0.10994501571E+03  0.10000000000E+00 0. -1.
         21    1    1    2  504  502  0.29118278878E+02 -0.46539716069E+02  0.69036876247E+01  0.55330644668E+02  0.00000000000E+00 0.  1.
<mgrwt>
<rscale>  1 0.13653077E+03</rscale>
<asrwt>0</asrwt>
<pdfrwt beam="1">  1       21 0.99205266E-02 0.13653077E+03</pdfrwt>
<pdfrwt beam="2">  1       21 0.25212373E-01 0.13653077E+03</pdfrwt>
<totfact> 0.12262759E+06</totfact>
</mgrwt>
</event>
<event>
 6    1  0.4187588E-002  0.1262417E+03  0.7546771E-02  0.1233141E+00
         21   -1    0    0  504  502  0.00000000000E+00  0.00000000000E+00  0.47184120429E+03  0.47184120429E+03  0.00000000000E+00 0. -1.
         21   -1    0    0  502  503 -0.00000000000E+00 -0.00000000000E+00 -0.11404017570E+03  0.11404017570E+03  0.00000000000E+00 0.  1.
         25    2    1    2    0    0 -0.14926457427E+02 -0.94827886317E+01 -0.78869106552E+02  0.14885331528E+03  0.12499700433E+03 0.  0.
          5    1    3    3  501    0 -0.20819312790E+02  0.19597942591E+02 -0.10530219552E+03  0.10911501052E+03  0.10000000000E+00 0. -1.
         -5    1    3    3    0  501  0.58928553630E+01 -0.29080731222E+02  0.26433088971E+02  0.39738304761E+02  0.10000000000E+00 0. -1.
         21    1    1    2  504  503  0.14926457427E+02  0.94827886317E+01  0.43667013515E+03  0.43702806471E+03  0.00000000000E+00 0. -1.
<mgrwt>
<rscale>  1 0.12624173E+03</rscale>
<asrwt>0</asrwt>
<pdfrwt beam="1">  1       21 0.72590953E-01 0.12624173E+03</pdfrwt>
<pdfrwt beam="2">  1       21 0.17544643E-01 0.12624173E+03</pdfrwt>
<totfact> 0.52050532E+04</totfact>
</mgrwt>
</event>
<event>
 6    1  0.4187588E-002  0.1321903E+03  0.7546771E-02  0.1224241E+00
         21   -1    0    0  504  502  0.00000000000E+00  0.00000000000E+00  0.35652695479E+02  0.35652695479E+02  0.00000000000E+00 0. -1.
         21   -1    0    0  502  503 -0.00000000000E+00 -0.00000000000E+00 -0.27897033635E+03  0.27897033635E+03  0.00000000000E+00 0. -1.
         25    2    1    2    0    0 -0.11584904610E+02  0.41654934437E+02 -0.23638337013E+03  0.27083458942E+03  0.12491970850E+03 0.  0.
          5    1    3    3  501    0  0.30123685293E+02  0.41827616565E+02 -0.28685703592E+02  0.58990384926E+02  0.10000000000E+00 0.  1.
         -5    1    3    3    0  501 -0.41708589903E+02 -0.17268212824E+00 -0.20769766654E+03  0.21184420449E+03  0.10000000000E+00 0.  1.
         21    1    1    2  504  503  0.11584904610E+02 -0.41654934437E+02 -0.69342707352E+01  0.43788442406E+02  0.00000000000E+00 0. -1.
<mgrwt>
<rscale>  1 0.13219031E+03</rscale>
<asrwt>0</asrwt>
<pdfrwt beam="1">  1       21 0.54850303E-02 0.13219031E+03</pdfrwt>
<pdfrwt beam="2">  1       21 0.42918512E-01 0.13219031E+03</pdfrwt>
<totfact> 0.12003700E+06</totfact>
</mgrwt>
</event>
<event>
 6    1  0.4187588E-002  0.1268010E+03  0.7546771E-02  0.1232281E+00
         21   -1    0    0  504  502  0.00000000000E+00  0.00000000000E+00  0.11238654888E+03  0.11238654888E+03  0.00000000000E+00 0. -1.
         21   -1    0    0  502  503 -0.00000000000E+00 -0.00000000000E+00 -0.74988710482E+03  0.74988710482E+03  0.00000000000E+00 0.  1.
         25    2    1    2    0    0  0.19220626775E+02  0.91615349168E+01 -0.74346013862E+03  0.75419590679E+03  0.12500048758E+03 0.  0.
          5    1    3    3  501    0 -0.18846313569E+02 -0.26287303307E+02 -0.55241816559E+02  0.64014640099E+02  0.10000000000E+00 0.  1.
         -5    1    3    3    0  501  0.38066940344E+02  0.35448838223E+02 -0.68821832206E+03  0.69018126669E+03  0.10000000000E+00 0.  1.
         21    1    1    2  504  503 -0.19220626775E+02 -0.91615349168E+01  0.10595958268E+03  0.10807774691E+03  0.00000000000E+00 0. -1.
<mgrwt>
<rscale>  1 0.12680098E+03</rscale>
<asrwt>0</asrwt>
<pdfrwt beam="1">  1       21 0.17290238E-01 0.12680098E+03</pdfrwt>
<pdfrwt beam="2">  1       21 0.11536725E+00 0.12680098E+03</pdfrwt>
<totfact> 0.18433575E+04</totfact>
</mgrwt>
</event>
<event>
 6    1  0.4187588E-002  0.1338696E+03  0.7546771E-02  0.1221824E+00
         21   -1    0    0  503  502  0.00000000000E+00  0.00000000000E+00  0.14437565363E+02  0.14437565363E+02  0.00000000000E+00 0.  1.
         21   -1    0    0  504  503 -0.00000000000E+00 -0.00000000000E+00 -0.10710710349E+04  0.10710710349E+04  0.00000000000E+00 0.  1.
         25    2    1    2    0    0 -0.36962243906E+01  0.47779041330E+02 -0.10093429458E+04  0.10181818411E+04  0.12499832167E+03 0.  0.
          5    1    3    3  501    0 -0.95902237618E+01  0.90110344788E+02 -0.72596462409E+03  0.73159858670E+03  0.10000000000E+00 0.  1.
         -5    1    3    3    0  501  0.58939993712E+01 -0.42331303458E+02 -0.28337832176E+03  0.28658325443E+03  0.10000000000E+00 0.  1.
         21    1    1    2  504  502  0.36962243906E+01 -0.47779041330E+02 -0.47290523719E+02  0.67326759158E+02  0.00000000000E+00 0.  1.
<mgrwt>
<rscale>  1 0.13386964E+03</rscale>
<asrwt>0</asrwt>
<pdfrwt beam="1">  1       21 0.22211638E-02 0.13386964E+03</pdfrwt>
<pdfrwt beam="2">  1       21 0.16478016E+00 0.13386964E+03</pdfrwt>
<totfact> 0.24680962E+05</totfact>
</mgrwt>
</event>
<event>
 6    1  0.4187588E-002  0.1259137E+03  0.7546771E-02  0.1233648E+00
         21   -1    0    0  503  502  0.00000000000E+00  0.00000000000E+00  0.51465550149E+02  0.51465550149E+02  0.00000000000E+00 0. -1.
         21   -1    0    0  504  503 -0.00000000000E+00 -0.00000000000E+00 -0.97332691524E+02  0.97332691524E+02  0.00000000000E+00 0. -1.
         25    2    1    2    0    0  0.11478478574E+02  0.99156840364E+01 -0.44591417217E+02  0.13357642403E+03  0.12499676118E+03 0.  0.
          5    1    3    3  501    0  0.50672575119E+02  0.12530052873E+02 -0.69607828926E+02  0.87005585694E+02  0.10000000000E+00 0. -1.
         -5    1    3    3    0  501 -0.39194096545E+02 -0.26143688366E+01  0.25016411709E+02  0.46570838335E+02  0.10000000000E+00 0. -1.
         21    1    1    2  504  502 -0.11478478574E+02 -0.99156840364E+01 -0.12757241580E+01  0.15221817645E+02  0.00000000000E+00 0. -1.
<mgrwt>
<rscale>  1 0.12591373E+03</rscale>
<asrwt>0</asrwt>
<pdfrwt beam="1">  1       21 0.79177770E-02 0.12591373E+03</pdfrwt>
<pdfrwt beam="2">  1       21 0.14974260E-01 0.12591373E+03</pdfrwt>
<totfact> 0.47325980E+06</totfact>
</mgrwt>
</event>
<event>
 6    1  0.4187588E-002  0.1381686E+03  0.7546771E-02  0.1215815E+00
         21   -1    0    0  503  502  0.00000000000E+00  0.00000000000E+00  0.72277822230E+02  0.72277822230E+02  0.00000000000E+00 0.  1.
         21   -1    0    0  504  503 -0.00000000000E+00 -0.00000000000E+00 -0.13569153224E+03  0.13569153224E+03  0.00000000000E+00 0.  1.
         25    2    1    2    0    0  0.16370166549E+02  0.56561110235E+02 -0.34702202356E+02  0.14245987259E+03  0.12499372347E+03 0.  0.
          5    1    3    3  501    0 -0.35171578532E+02  0.54402781371E+02  0.19479746504E+02  0.67647417402E+02  0.10000000000E+00 0. -1.
         -5    1    3    3    0  501  0.51541745081E+02  0.21583288635E+01 -0.54181948861E+02  0.74812455192E+02  0.10000000000E+00 0. -1.
         21    1    1    2  504  502 -0.16370166549E+02 -0.56561110235E+02 -0.28711507653E+02  0.65509481875E+02  0.00000000000E+00 0.  1.
<mgrwt>
<rscale>  1 0.13816864E+03</rscale>
<asrwt>0</asrwt>
<pdfrwt beam="1">  1       21 0.11119665E-01 0.13816864E+03</pdfrwt>
<pdfrwt beam="2">  1       21 0.20875620E-01 0.13816864E+03</pdfrwt>
<totfact> 0.14301208E+06</totfact>
</mgrwt>
</event>
<event>
 6    1  0.4187588E-002  0.1294506E+03  0.7546771E-02  0.1228273E+00
         21   -1    0    0  504  502  0.00000000000E+00  0.00000000000E+00  0.27736240098E+02  0.27736240098E+02  0.00000000000E+00 0.  1.
         21   -1    0    0  502  503 -0.00000000000E+00 -0.00000000000E+00 -0.37540065529E+03  0.37540065529E+03  0.00000000000E+00 0.  1.
         25    2    1    2    0    0  0.33002335835E+02 -0.65904149317E+01 -0.34602103646E+03  0.36944285388E+03  0.12499950748E+03 0.  0.
          5    1    3    3  501    0 -0.27971767782E+02 -0.11425637721E+02 -0.27085358220E+03  0.27253373733E+03  0.10000000000E+00 0. -1.
         -5    1    3    3    0  501  0.60974103617E+02  0.48352227893E+01 -0.75167454264E+02  0.96909116557E+02  0.10000000000E+00 0. -1.
         21    1    1    2  504  503 -0.33002335835E+02  0.65904149317E+01 -0.16433787322E+01  0.33694041509E+02  0.00000000000E+00 0.  1.
<mgrwt>
<rscale>  1 0.12945063E+03</rscale>
<asrwt>0</asrwt>
<pdfrwt beam="1">  1       21 0.42671140E-02 0.12945063E+03</pdfrwt>
<pdfrwt beam="2">  1       21 0.57753944E-01 0.12945063E+03</pdfrwt>
<totfact> 0.99109337E+05</totfact>
</mgrwt>
</event>
<event>
 6    1  0.4187588E-002  0.1321100E+03  0.7546771E-02  0.1224358E+00
         21   -1    0    0  504  502  0.00000000000E+00  0.00000000000E+00  0.52817098138E+02  0.52817098138E+02  0.00000000000E+00 0.  1.
         21   -1    0    0  502  503 -0.00000000000E+00 -0.00000000000E+00 -0.15170569579E+03  0.15170569579E+03  0.00000000000E+00 0.  1.
         25    2    1    2    0    0  0.38278059380E+02 -0.19083720011E+02 -0.92506738852E+02  0.16127783675E+03  0.12499458266E+03 0.  0.
          5    1    3    3  501    0 -0.39483586275E+02 -0.17561328535E+02 -0.39159784787E+01  0.43390076429E+02  0.10000000000E+00 0. -1.
         -5    1    3    3    0  501  0.77761645655E+02 -0.15223914764E+01 -0.88590760374E+02  0.11788776032E+03  0.10000000000E+00 0. -1.
         21    1    1    2  504  503 -0.38278059380E+02  0.19083720011E+02 -0.63818588007E+01  0.43244957175E+02  0.00000000000E+00 0.  1.
<mgrwt>
<rscale>  1 0.13210997E+03</rscale>
<asrwt>0</asrwt>
<pdfrwt beam="1">  1       21 0.81257075E-02 0.13210997E+03</pdfrwt>
<pdfrwt beam="2">  1       21 0.23339337E-01 0.13210997E+03</pdfrwt>
<totfact> 0.20057062E+06</totfact>
</mgrwt>
</event>
<event>
 6    1  0.4187588E-002  0.1261675E+03  0.7546771E-02  0.1233256E+00
         21   -1    0    0  503  502  0.00000000000E+00  0.00000000000E+00  0.43235455831E+02  0.43235455831E+02  0.00000000000E+00 0.  1.
         21   -1    0    0  504  503 -0.00000000000E+00 -0.00000000000E+00 -0.11941524369E+03  0.11941524369E+03  0.00000000000E+00 0.  1.
         25    2    1    2    0    0 -0.15557251904E+02 -0.73515105270E+01 -0.70512715427E+02  0.14453472580E+03  0.12498868402E+03 0.  0.
          5    1    3    3  501    0  0.27962933383E+02  0.37350214886E+02  0.46084522522E+01  0.46885093874E+02  0.10000000000E+00 0. -1.
         -5    1    3    3    0  501 -0.43520185287E+02 -0.44701725413E+02 -0.75121167679E+02  0.97649631929E+02  0.10000000000E+00 0. -1.
         21    1    1    2  504  502  0.15557251904E+02  0.73515105270E+01 -0.56670724336E+01  0.18115973719E+02  0.00000000000E+00 0.  1.
<mgrwt>
<rscale>  1 0.12616752E+03</rscale>
<asrwt>0</asrwt>
<pdfrwt beam="1">  1       21 0.66516086E-02 0.12616752E+03</pdfrwt>
<pdfrwt beam="2">  1       21 0.18371576E-01 0.12616752E+03</pdfrwt>
<totfact> 0.44002377E+06</totfact>
</mgrwt>
</event>
<event>
 6    1  0.4187588E-002  0.1269935E+03  0.7546771E-02  0.1231986E+00
         21   -1    0    0  503  502  0.00000000000E+00  0.00000000000E+00  0.36917603153E+02  0.36917603153E+02  0.00000000000E+00 0.  1.
         21   -1    0    0  504  503 -0.00000000000E+00 -0.00000000000E+00 -0.24711740004E+03  0.24711740004E+03  0.00000000000E+00 0.  1.
         25    2    1    2    0    0  0.19162490062E+02  0.11624659347E+02 -0.22415748555E+03  0.25763138975E+03  0.12500008371E+03 0.  0.
          5    1    3    3  501    0 -0.50287570425E+02 -0.39318982262E+01 -0.13116195858E+03  0.14052675525E+03  0.10000000000E+00 0.  1.
         -5    1    3    3    0  501  0.69450060487E+02  0.15556557573E+02 -0.92995526965E+02  0.11710463450E+03  0.10000000000E+00 0.  1.
         21    1    1    2  504  502 -0.19162490062E+02 -0.11624659347E+02  0.13957688658E+02  0.26403613445E+02  0.00000000000E+00 0.  1.
<mgrwt>
<rscale>  1 0.12699352E+03</rscale>
<asrwt>0</asrwt>
<pdfrwt beam="1">  1       21 0.56796317E-02 0.12699352E+03</pdfrwt>
<pdfrwt beam="2">  1       21 0.38018059E-01 0.12699352E+03</pdfrwt>
<totfact> 0.14417601E+06</totfact>
</mgrwt>
</event>
<event>
 6    1  0.4187588E-002  0.1610254E+03  0.7546771E-02  0.1187544E+00
         21   -1    0    0  504  502  0.00000000000E+00  0.00000000000E+00  0.35319571595E+03  0.35319571595E+03  0.00000000000E+00 0. -1.
         21   -1    0    0  502  503 -0.00000000000E+00 -0.00000000000E+00 -0.73503744960E+02  0.73503744960E+02  0.00000000000E+00 0. -1.
         25    2    1    2    0    0 -0.20702119637E+01  0.10149997405E+03  0.39303316565E+02  0.16575265467E+03  0.12499064497E+03 0.  0.
          5    1    3    3  501    0  0.85987381781E+01  0.35367139597E+02 -0.45126755138E+02  0.57975916472E+02  0.10000000000E+00 0.  1.
         -5    1    3    3    0  501 -0.10668950142E+02  0.66132834450E+02  0.84430071703E+02  0.10777673820E+03  0.10000000000E+00 0.  1.
         21    1    1    2  504  503  0.20702119637E+01 -0.10149997405E+03  0.24038865443E+03  0.26094680624E+03  0.00000000000E+00 0. -1.
<mgrwt>
<rscale>  1 0.16102544E+03</rscale>
<asrwt>0</asrwt>
<pdfrwt beam="1">  1       21 0.54337801E-01 0.16102544E+03</pdfrwt>
<pdfrwt beam="2">  1       21 0.11308269E-01 0.16102544E+03</pdfrwt>
<totfact> 0.21074588E+05</totfact>
</mgrwt>
</event>
<event>
 6    1  0.4187588E-002  0.1663566E+03  0.7546771E-02  0.1181701E+00
         21   -1    0    0  504  502  0.00000000000E+00  0.00000000000E+00  0.40915515587E+02  0.40915515587E+02  0.00000000000E+00 0.  1.
         21   -1    0    0  502  503 -0.00000000000E+00 -0.00000000000E+00 -0.71960670671E+03  0.71960670671E+03  0.00000000000E+00 0.  1.
         25    2    1    2    0    0 -0.65922638010E+02  0.87752440269E+02 -0.60710463102E+03  0.62948436302E+03  0.12501298057E+03 0.  0.
          5    1    3    3  501    0 -0.14427446962E+02 -0.16181451478E+02 -0.15586184707E+02  0.26700744399E+02  0.10000000000E+00 0.  1.
         -5    1    3    3    0  501 -0.51495191049E+02  0.10393389175E+03 -0.59151844631E+03  0.60278361862E+03  0.10000000000E+00 0.  1.
         21    1    1    2  504  503  0.65922638010E+02 -0.87752440269E+02 -0.71586560104E+02  0.13103785927E+03  0.00000000000E+00 0.  1.
<mgrwt>
<rscale>  1 0.16635664E+03</rscale>
<asrwt>0</asrwt>
<pdfrwt beam="1">  1       21 0.62946955E-02 0.16635664E+03</pdfrwt>
<pdfrwt beam="2">  1       21 0.11070871E+00 0.16635664E+03</pdfrwt>
<totfact> 0.11806289E+05</totfact>
</mgrwt>
</event>
<event>
 6    1  0.4187588E-002  0.1272477E+03  0.7546771E-02  0.1231598E+00
         21   -1    0    0  504  502  0.00000000000E+00  0.00000000000E+00  0.61721628109E+02  0.61721628109E+02  0.00000000000E+00 0. -1.
         21   -1    0    0  502  503 -0.00000000000E+00 -0.00000000000E+00 -0.13756325558E+03  0.13756325558E+03  0.00000000000E+00 0. -1.
         25    2    1    2    0    0 -0.12905396693E+02 -0.19978555037E+02 -0.10261840926E+03  0.16347025025E+03  0.12500517139E+03 0.  0.
          5    1    3    3  501    0  0.27598187387E+02 -0.28954009290E+02  0.11847922788E+02  0.41717836418E+02  0.10000000000E+00 0.  1.
         -5    1    3    3    0  501 -0.40503584081E+02  0.89754542525E+01 -0.11446633205E+03  0.12175241383E+03  0.10000000000E+00 0.  1.
         21    1    1    2  504  503  0.12905396693E+02  0.19978555037E+02  0.26776781788E+02  0.35814633435E+02  0.00000000000E+00 0. -1.
<mgrwt>
<rscale>  1 0.12724773E+03</rscale>
<asrwt>0</asrwt>
<pdfrwt beam="1">  1       21 0.94956350E-02 0.12724773E+03</pdfrwt>
<pdfrwt beam="2">  1       21 0.21163578E-01 0.12724773E+03</pdfrwt>
<totfact> 0.18358764E+06</totfact>
</mgrwt>
</event>
<event>
 6    1  0.4187588E-002  0.1718117E+03  0.7546771E-02  0.1175972E+00
         21   -1    0    0  504  502  0.00000000000E+00  0.00000000000E+00  0.41258620941E+02  0.41258620941E+02  0.00000000000E+00 0. -1.
         21   -1    0    0  502  503 -0.00000000000E+00 -0.00000000000E+00 -0.51350109548E+03  0.51350109548E+03  0.00000000000E+00 0. -1.
         25    2    1    2    0    0 -0.75374664287E+02  0.90616470623E+02 -0.30666089186E+03  0.35151123479E+03  0.12500624312E+03 0.  0.
          5    1    3    3  501    0 -0.86773550446E+02  0.46180451926E+02 -0.28362859981E+03  0.30017907294E+03  0.10000000000E+00 0. -1.
         -5    1    3    3    0  501  0.11398886159E+02  0.44436018697E+02 -0.23032292050E+02  0.51332161852E+02  0.10000000000E+00 0. -1.
         21    1    1    2  504  503  0.75374664287E+02 -0.90616470623E+02 -0.16558158268E+03  0.20324848163E+03  0.00000000000E+00 0. -1.
<mgrwt>
<rscale>  1 0.17181166E+03</rscale>
<asrwt>0</asrwt>
<pdfrwt beam="1">  1       21 0.63474805E-02 0.17181166E+03</pdfrwt>
<pdfrwt beam="2">  1       21 0.79000164E-01 0.17181166E+03</pdfrwt>
<totfact> 0.25480577E+05</totfact>
</mgrwt>
</event>
<event>
 6    1  0.4187588E-002  0.1272253E+03  0.7546771E-02  0.1231632E+00
         21   -1    0    0  503  502  0.00000000000E+00  0.00000000000E+00  0.17426722877E+02  0.17426722877E+02  0.00000000000E+00 0. -1.
         21   -1    0    0  504  503 -0.00000000000E+00 -0.00000000000E+00 -0.49382346604E+03  0.49382346604E+03  0.00000000000E+00 0. -1.
         25    2    1    2    0    0 -0.19083272905E+02  0.14161267524E+02 -0.46960673088E+03  0.48653547530E+03  0.12498629617E+03 0.  0.
          5    1    3    3  501    0 -0.46045128155E+02 -0.26448648195E+01 -0.59900004276E+02  0.75598741054E+02  0.10000000000E+00 0. -1.
         -5    1    3    3    0  501  0.26961855250E+02  0.16806132343E+02 -0.40970672661E+03  0.41093673424E+03  0.10000000000E+00 0. -1.
         21    1    1    2  504  502  0.19083272905E+02 -0.14161267524E+02 -0.67900122812E+01  0.24714713622E+02  0.00000000000E+00 0. -1.
<mgrwt>
<rscale>  1 0.12722534E+03</rscale>
<asrwt>0</asrwt>
<pdfrwt beam="1">  1       21 0.26810346E-02 0.12722534E+03</pdfrwt>
<pdfrwt beam="2">  1       21 0.75972831E-01 0.12722534E+03</pdfrwt>
<totfact> 0.11792545E+06</totfact>
</mgrwt>
</event>
<event>
 6    1  0.4187588E-002  0.1318679E+03  0.7546771E-02  0.1224710E+00
         21   -1    0    0  503  502  0.00000000000E+00  0.00000000000E+00  0.38976649748E+02  0.38976649748E+02  0.00000000000E+00 0. -1.
         21   -1    0    0  504  503 -0.00000000000E+00 -0.00000000000E+00 -0.47285988827E+03  0.47285988827E+03  0.00000000000E+00 0. -1.
         25    2    1    2    0    0 -0.34952755576E+02 -0.23304068950E+02 -0.44840128069E+03  0.46738939749E+03  0.12499746244E+03 0.  0.
          5    1    3    3  501    0 -0.61795994076E+02  0.11803213955E+02 -0.11510866326E+03  0.13117955290E+03  0.10000000000E+00 0.  1.
         -5    1    3    3    0  501  0.26843238500E+02 -0.35107282905E+02 -0.33329261743E+03  0.33620984459E+03  0.10000000000E+00 0.  1.
         21    1    1    2  504  502  0.34952755576E+02  0.23304068950E+02  0.14518042168E+02  0.44447140520E+02  0.00000000000E+00 0. -1.
<mgrwt>
<rscale>  1 0.13186789E+03</rscale>
<asrwt>0</asrwt>
<pdfrwt beam="1">  1       21 0.59964080E-02 0.13186789E+03</pdfrwt>
<pdfrwt beam="2">  1       21 0.72747670E-01 0.13186789E+03</pdfrwt>
<totfact> 0.34028372E+05</totfact>
</mgrwt>
</event>
<event>
 6    1  0.4187588E-002  0.1340024E+03  0.7546771E-02  0.1221635E+00
         21   -1    0    0  504  502  0.00000000000E+00  0.00000000000E+00  0.24838146662E+03  0.24838146662E+03  0.00000000000E+00 0. -1.
         21   -1    0    0  502  503 -0.00000000000E+00 -0.00000000000E+00 -0.52906219696E+02  0.52906219696E+02  0.00000000000E+00 0. -1.
         25    2    1    2    0    0  0.35052042710E+01  0.48165968100E+02  0.42055939057E+02  0.14044698573E+03  0.12499762737E+03 0.  0.
          5    1    3    3  501    0 -0.61302319245E+00  0.15489654437E+01 -0.43178125454E+02  0.43210364603E+02  0.10000000000E+00 0. -1.
         -5    1    3    3    0  501  0.41182274634E+01  0.46617002656E+02  0.85234064512E+02  0.97236621122E+02  0.10000000000E+00 0. -1.
         21    1    1    2  504  503 -0.35052042710E+01 -0.48165968100E+02  0.15341930787E+03  0.16084070059E+03  0.00000000000E+00 0. -1.
<mgrwt>
<rscale>  1 0.13400244E+03</rscale>
<asrwt>0</asrwt>
<pdfrwt beam="1">  1       21 0.38212533E-01 0.13400244E+03</pdfrwt>
<pdfrwt beam="2">  1       21 0.81394186E-02 0.13400244E+03</pdfrwt>
<totfact> 0.77219567E+05</totfact>
</mgrwt>
</event>
<event>
 6    1  0.4187588E-002  0.1355198E+03  0.7546771E-02  0.1219488E+00
         21   -1    0    0  503  502  0.00000000000E+00  0.00000000000E+00  0.73943703924E+03  0.73943703924E+03  0.00000000000E+00 0. -1.
         21   -1    0    0  504  503 -0.00000000000E+00 -0.00000000000E+00 -0.12220137198E+02  0.12220137198E+02  0.00000000000E+00 0. -1.
         25    2    1    2    0    0 -0.99025501358E+01  0.51386702830E+02  0.57281344827E+03  0.58862625831E+03  0.12500788668E+03 0.  0.
          5    1    3    3  501    0 -0.43143352460E+02 -0.37531368410E-01  0.44300075074E+03  0.44509664729E+03  0.10000000000E+00 0.  1.
         -5    1    3    3    0  501  0.33240802324E+02  0.51424234198E+02  0.12981269753E+03  0.14352961103E+03  0.10000000000E+00 0.  1.
         21    1    1    2  504  502  0.99025501358E+01 -0.51386702830E+02  0.15440345377E+03  0.16303091812E+03  0.00000000000E+00 0. -1.
<mgrwt>
<rscale>  1 0.13551983E+03</rscale>
<asrwt>0</asrwt>
<pdfrwt beam="1">  1       21 0.11375951E+00 0.13551983E+03</pdfrwt>
<pdfrwt beam="2">  1       21 0.18800217E-02 0.13551983E+03</pdfrwt>
<totfact> 0.82596138E+05</totfact>
</mgrwt>
</event>
<event>
 6    1  0.4187588E-002  0.1369674E+03  0.7546771E-02  0.1217469E+00
         21   -1    0    0  504  502  0.00000000000E+00  0.00000000000E+00  0.10573733572E+03  0.10573733572E+03  0.00000000000E+00 0.  1.
         21   -1    0    0  502  503 -0.00000000000E+00 -0.00000000000E+00 -0.10139592626E+03  0.10139592626E+03  0.00000000000E+00 0.  1.
         25    2    1    2    0    0  0.35900644133E+02  0.42963804016E+02 -0.31646603658E+02  0.14057590482E+03  0.12500133114E+03 0.  0.
          5    1    3    3  501    0  0.72408828961E+02 -0.86034703312E+01 -0.90666663495E+01  0.73479743140E+02  0.10000000000E+00 0.  1.
         -5    1    3    3    0  501 -0.36508184828E+02  0.51567274348E+02 -0.22579937308E+02  0.67096161678E+02  0.10000000000E+00 0.  1.
         21    1    1    2  504  503 -0.35900644133E+02 -0.42963804016E+02  0.35988013109E+02  0.66557357161E+02  0.00000000000E+00 0.  1.
<mgrwt>
<rscale>  1 0.13696743E+03</rscale>
<asrwt>0</asrwt>
<pdfrwt beam="1">  1       21 0.16267282E-01 0.13696743E+03</pdfrwt>
<pdfrwt beam="2">  1       21 0.15599373E-01 0.13696743E+03</pdfrwt>
<totfact> 0.12349134E+06</totfact>
</mgrwt>
</event>
<event>
 6    1  0.4187588E-002  0.1587511E+03  0.7546771E-02  0.1190114E+00
         21   -1    0    0  503  502  0.00000000000E+00  0.00000000000E+00  0.26641242986E+03  0.26641242986E+03  0.00000000000E+00 0. -1.
         21   -1    0    0  504  503 -0.00000000000E+00 -0.00000000000E+00 -0.69145778081E+02  0.69145778081E+02  0.00000000000E+00 0. -1.
         25    2    1    2    0    0  0.69620289196E+02 -0.68774964601E+02  0.66233014207E+02  0.17201373509E+03  0.12499972987E+03 0.  0.
          5    1    3    3  501    0  0.95613910433E+02 -0.71405407355E+02  0.23047188022E+02  0.12153984920E+03  0.10000000000E+00 0.  1.
         -5    1    3    3    0  501 -0.25993621237E+02  0.26304427541E+01  0.43185826184E+02  0.50473885894E+02  0.10000000000E+00 0.  1.
         21    1    1    2  504  502 -0.69620289196E+02  0.68774964601E+02  0.13103363757E+03  0.16354447285E+03  0.00000000000E+00 0. -1.
<mgrwt>
<rscale>  1 0.15875110E+03</rscale>
<asrwt>0</asrwt>
<pdfrwt beam="1">  1       21 0.40986527E-01 0.15875110E+03</pdfrwt>
<pdfrwt beam="2">  1       21 0.10637812E-01 0.15875110E+03</pdfrwt>
<totfact> 0.41976307E+05</totfact>
</mgrwt>
</event>
<event>
 6    1  0.4187588E-002  0.1259275E+03  0.7546771E-02  0.1233627E+00
         21   -1    0    0  503  502  0.00000000000E+00  0.00000000000E+00  0.49979395558E+02  0.49979395558E+02  0.00000000000E+00 0. -1.
         21   -1    0    0  504  503 -0.00000000000E+00 -0.00000000000E+00 -0.16301003345E+03  0.16301003345E+03  0.00000000000E+00 0. -1.
         25    2    1    2    0    0 -0.10610704430E+01  0.15366361859E+02 -0.13599107602E+03  0.18534105354E+03  0.12498192838E+03 0.  0.
          5    1    3    3  501    0 -0.22733683232E+02  0.38070099471E+02  0.14464376230E+01  0.44365020104E+02  0.10000000000E+00 0.  1.
         -5    1    3    3    0  501  0.21672612789E+02 -0.22703737612E+02 -0.13743751364E+03  0.14097603343E+03  0.10000000000E+00 0.  1.
         21    1    1    2  504  502  0.10610704430E+01 -0.15366361859E+02  0.22960438125E+02  0.27648375471E+02  0.00000000000E+00 0. -1.
<mgrwt>
<rscale>  1 0.12592749E+03</rscale>
<asrwt>0</asrwt>
<pdfrwt beam="1">  1       21 0.76891377E-02 0.12592749E+03</pdfrwt>
<pdfrwt beam="2">  1       21 0.25078467E-01 0.12592749E+03</pdfrwt>
<totfact> 0.19241006E+06</totfact>
</mgrwt>
</event>
<event>
 6    1  0.4187588E-002  0.1317970E+03  0.7546771E-02  0.1224813E+00
         21   -1    0    0  504  502  0.00000000000E+00  0.00000000000E+00  0.20454991380E+02  0.20454991380E+02  0.00000000000E+00 0.  1.
         21   -1    0    0  502  503 -0.00000000000E+00 -0.00000000000E+00 -0.58030681131E+03  0.58030681131E+03  0.00000000000E+00 0.  1.
         25    2    1    2    0    0 -0.40664435274E+02 -0.96310843873E+01 -0.53739485165E+03  0.55332058109E+03  0.12499633913E+03 0.  0.
          5    1    3    3  501    0  0.44628254576E+02 -0.12272119577E+02 -0.20293920762E+03  0.20815046965E+03  0.10000000000E+00 0. -1.
         -5    1    3    3    0  501 -0.85292689850E+02  0.26410351893E+01 -0.33445564403E+03  0.34517011144E+03  0.10000000000E+00 0. -1.
         21    1    1    2  504  503  0.40664435274E+02  0.96310843873E+01 -0.22456968279E+02  0.47441221600E+02  0.00000000000E+00 0.  1.
<mgrwt>
<rscale>  1 0.13179696E+03</rscale>
<asrwt>0</asrwt>
<pdfrwt beam="1">  1       21 0.31469218E-02 0.13179696E+03</pdfrwt>
<pdfrwt beam="2">  1       21 0.89277970E-01 0.13179696E+03</pdfrwt>
<totfact> 0.63110337E+05</totfact>
</mgrwt>
</event>
<event>
 6    1  0.4187588E-002  0.1317048E+03  0.7546771E-02  0.1224948E+00
         21   -1    0    0  503  502  0.00000000000E+00  0.00000000000E+00  0.19168886220E+04  0.19168886220E+04  0.00000000000E+00 0. -1.
         21   -1    0    0  504  503 -0.00000000000E+00 -0.00000000000E+00 -0.53973782959E+01  0.53973782959E+01  0.00000000000E+00 0. -1.
         25    2    1    2    0    0  0.19995907608E+02  0.36145677285E+02  0.86400511852E+03  0.87398569563E+03  0.12505920610E+03 0.  0.
          5    1    3    3  501    0 -0.10650359081E+02  0.17313975566E+02  0.80233258247E+03  0.80259004902E+03  0.10000000000E+00 0.  1.
         -5    1    3    3    0  501  0.30646266689E+02  0.18831701720E+02  0.61672536050E+02  0.71395646608E+02  0.10000000000E+00 0.  1.
         21    1    1    2  504  502 -0.19995907608E+02 -0.36145677285E+02  0.10474861251E+04  0.10483003046E+04  0.00000000000E+00 0. -1.
<mgrwt>
<rscale>  1 0.13170479E+03</rscale>
<asrwt>0</asrwt>
<pdfrwt beam="1">  1       21 0.29490540E+00 0.13170479E+03</pdfrwt>
<pdfrwt beam="2">  1       21 0.83036742E-03 0.13170479E+03</pdfrwt>
<totfact> 0.19338098E+05</totfact>
</mgrwt>
</event>
<event>
 6    1  0.4187588E-002  0.1283379E+03  0.7546771E-02  0.1229943E+00
         21   -1    0    0  503  502  0.00000000000E+00  0.00000000000E+00  0.12636395949E+02  0.12636395949E+02  0.00000000000E+00 0.  1.
         21   -1    0    0  504  503 -0.00000000000E+00 -0.00000000000E+00 -0.56979993765E+03  0.56979993765E+03  0.00000000000E+00 0.  1.
         25    2    1    2    0    0  0.21437266399E+02 -0.19638170235E+02 -0.51799904197E+03  0.53366060029E+03  0.12500165878E+03 0.  0.
          5    1    3    3  501    0  0.22382523473E+02  0.47055825015E+02 -0.33198085610E+03  0.33604542378E+03  0.10000000000E+00 0. -1.
         -5    1    3    3    0  501 -0.94525707356E+00 -0.66693995249E+02 -0.18601818586E+03  0.19761517651E+03  0.10000000000E+00 0. -1.
         21    1    1    2  504  502 -0.21437266399E+02  0.19638170235E+02 -0.39164499736E+02  0.48775733315E+02  0.00000000000E+00 0.  1.
<mgrwt>
<rscale>  1 0.12833795E+03</rscale>
<asrwt>0</asrwt>
<pdfrwt beam="1">  1       21 0.19440604E-02 0.12833795E+03</pdfrwt>
<pdfrwt beam="2">  1       21 0.87661550E-01 0.12833795E+03</pdfrwt>
<totfact> 0.14408812E+06</totfact>
</mgrwt>
</event>
<event>
 6    1  0.4187588E-002  0.1263439E+03  0.7546771E-02  0.1232984E+00
         21   -1    0    0  503  502  0.00000000000E+00  0.00000000000E+00  0.21300197331E+02  0.21300197331E+02  0.00000000000E+00 0.  1.
         21   -1    0    0  504  503 -0.00000000000E+00 -0.00000000000E+00 -0.25174107284E+03  0.25174107284E+03  0.00000000000E+00 0.  1.
         25    2    1    2    0    0  0.15998710398E+02 -0.90868277080E+01 -0.18509423511E+03  0.22410409649E+03  0.12499696405E+03 0.  0.
          5    1    3    3  501    0 -0.20029408307E+02 -0.37718142825E+02 -0.11097936850E+02  0.44124932834E+02  0.10000000000E+00 0.  1.
         -5    1    3    3    0  501  0.36028118705E+02  0.28631315117E+02 -0.17399629826E+03  0.17997916365E+03  0.10000000000E+00 0.  1.
         21    1    1    2  504  502 -0.15998710398E+02  0.90868277080E+01 -0.45346640400E+02  0.48937173679E+02  0.00000000000E+00 0. -1.
<mgrwt>
<rscale>  1 0.12634386E+03</rscale>
<asrwt>0</asrwt>
<pdfrwt beam="1">  1       21 0.32769535E-02 0.12634386E+03</pdfrwt>
<pdfrwt beam="2">  1       21 0.38729396E-01 0.12634386E+03</pdfrwt>
<totfact> 0.34751932E+06</totfact>
</mgrwt>
</event>
<event>
 6    1  0.4187588E-002  0.1392123E+03  0.7546771E-02  0.1214393E+00
         21   -1    0    0  503  502  0.00000000000E+00  0.00000000000E+00  0.10690261183E+03  0.10690261183E+03  0.00000000000E+00 0.  1.
         21   -1    0    0  504  503 -0.00000000000E+00 -0.00000000000E+00 -0.31888925082E+03  0.31888925082E+03  0.00000000000E+00 0.  1.
         25    2    1    2    0    0 -0.10129262552E+02  0.60437288008E+02 -0.29289524678E+03  0.32429570235E+03  0.12499923693E+03 0.  0.
          5    1    3    3  501    0 -0.79631357347E+01 -0.96270950536E+01  0.83335275660E+01  0.15018327856E+02  0.10000000000E+00 0. -1.
         -5    1    3    3    0  501 -0.21661268174E+01  0.70064383061E+02 -0.30122877435E+03  0.30927737449E+03  0.10000000000E+00 0. -1.
         21    1    1    2  504  502  0.10129262552E+02 -0.60437288008E+02  0.80908607790E+02  0.10149616030E+03  0.00000000000E+00 0.  1.
<mgrwt>
<rscale>  1 0.13921234E+03</rscale>
<asrwt>0</asrwt>
<pdfrwt beam="1">  1       21 0.16446556E-01 0.13921234E+03</pdfrwt>
<pdfrwt beam="2">  1       21 0.49059883E-01 0.13921234E+03</pdfrwt>
<totfact> 0.13384035E+05</totfact>
</mgrwt>
</event>
<event>
 6    1  0.4187588E-002  0.1497396E+03  0.7546771E-02  0.1200793E+00
         21   -1    0    0  504  502  0.00000000000E+00  0.00000000000E+00  0.11987849150E+03  0.11987849150E+03  0.00000000000E+00 0. -1.
         21   -1    0    0  502  503 -0.00000000000E+00 -0.00000000000E+00 -0.11785620246E+03  0.11785620246E+03  0.00000000000E+00 0. -1.
         25    2    1    2    0    0  0.65616567764E+02 -0.49917800063E+02  0.25760773597E+02  0.15193937720E+03  0.12499854463E+03 0.  0.
          5    1    3    3  501    0  0.66651030442E+02  0.27171672808E+02  0.19596456527E+02  0.74596854964E+02  0.10000000000E+00 0. -1.
         -5    1    3    3    0  501 -0.10344626783E+01 -0.77089472870E+02  0.61643170706E+01  0.77342522233E+02  0.10000000000E+00 0. -1.
         21    1    1    2  504  503 -0.65616567764E+02  0.49917800063E+02 -0.23738484560E+02  0.85795316756E+02  0.00000000000E+00 0. -1.
<mgrwt>
<rscale>  1 0.14973963E+03</rscale>
<asrwt>0</asrwt>
<pdfrwt beam="1">  1       21 0.18442845E-01 0.14973963E+03</pdfrwt>
<pdfrwt beam="2">  1       21 0.18131724E-01 0.14973963E+03</pdfrwt>
<totfact> 0.74624095E+05</totfact>
</mgrwt>
</event>
<event>
 6    1  0.4187588E-002  0.1280507E+03  0.7546771E-02  0.1230377E+00
         21   -1    0    0  503  502  0.00000000000E+00  0.00000000000E+00  0.38081243151E+02  0.38081243151E+02  0.00000000000E+00 0.  1.
         21   -1    0    0  504  503 -0.00000000000E+00 -0.00000000000E+00 -0.37469698968E+03  0.37469698968E+03  0.00000000000E+00 0.  1.
         25    2    1    2    0    0  0.26329628864E+02 -0.88321150718E+01 -0.35638331708E+03  0.37868992901E+03  0.12500295207E+03 0.  0.
          5    1    3    3  501    0 -0.14925065051E+02  0.44629973462E+02 -0.23612562622E+03  0.24076941969E+03  0.10000000000E+00 0.  1.
         -5    1    3    3    0  501  0.41254693916E+02 -0.53462088534E+02 -0.12025769085E+03  0.13792050932E+03  0.10000000000E+00 0.  1.
         21    1    1    2  504  502 -0.26329628864E+02  0.88321150718E+01  0.19767570545E+02  0.34088303830E+02  0.00000000000E+00 0.  1.
<mgrwt>
<rscale>  1 0.12805075E+03</rscale>
<asrwt>0</asrwt>
<pdfrwt beam="1">  1       21 0.58586528E-02 0.12805075E+03</pdfrwt>
<pdfrwt beam="2">  1       21 0.57645691E-01 0.12805075E+03</pdfrwt>
<totfact> 0.58427621E+05</totfact>
</mgrwt>
</event>
<event>
 6    1  0.4187588E-002  0.1266945E+03  0.7546771E-02  0.1232445E+00
         21   -1    0    0  504  502  0.00000000000E+00  0.00000000000E+00  0.21856867817E+03  0.21856867817E+03  0.00000000000E+00 0. -1.
         21   -1    0    0  502  503 -0.00000000000E+00 -0.00000000000E+00 -0.24918027897E+02  0.24918027897E+02  0.00000000000E+00 0. -1.
         25    2    1    2    0    0  0.10517603772E+02 -0.17908092814E+02  0.16987977586E+03  0.21192130970E+03  0.12498073245E+03 0.  0.
          5    1    3    3  501    0  0.57910892824E+02  0.80204441351E+01  0.13630887926E+03  0.14831763077E+03  0.10000000000E+00 0.  1.
         -5    1    3    3    0  501 -0.47393289052E+02 -0.25928536949E+02  0.33570896601E+02  0.63603678935E+02  0.10000000000E+00 0.  1.
         21    1    1    2  504  503 -0.10517603772E+02  0.17908092814E+02  0.23770874418E+02  0.31565396369E+02  0.00000000000E+00 0. -1.
<mgrwt>
<rscale>  1 0.12669453E+03</rscale>
<asrwt>0</asrwt>
<pdfrwt beam="1">  1       21 0.33625949E-01 0.12669453E+03</pdfrwt>
<pdfrwt beam="2">  1       21 0.38335429E-02 0.12669453E+03</pdfrwt>
<totfact> 0.35438278E+06</totfact>
</mgrwt>
</event>
<event>
 6    1  0.4187588E-002  0.1411219E+03  0.7546771E-02  0.1211827E+00
         21   -1    0    0  504  502  0.00000000000E+00  0.00000000000E+00  0.21605440800E+02  0.21605440800E+02  0.00000000000E+00 0. -1.
         21   -1    0    0  502  503 -0.00000000000E+00 -0.00000000000E+00 -0.50199073701E+03  0.50199073701E+03  0.00000000000E+00 0. -1.
         25    2    1    2    0    0 -0.36436540274E+02  0.54419475511E+02 -0.29585789301E+03  0.32779152180E+03  0.12500515241E+03 0.  0.
          5    1    3    3  501    0 -0.60667907404E+02  0.67971518710E+02 -0.12492670519E+03  0.15462022512E+03  0.10000000000E+00 0.  1.
         -5    1    3    3    0  501  0.24231367130E+02 -0.13552043200E+02 -0.17093118782E+03  0.17317129669E+03  0.10000000000E+00 0.  1.
         21    1    1    2  504  503  0.36436540274E+02 -0.54419475511E+02 -0.18452740320E+03  0.19580465600E+03  0.00000000000E+00 0. -1.
<mgrwt>
<rscale>  1 0.14112189E+03</rscale>
<asrwt>0</asrwt>
<pdfrwt beam="1">  1       21 0.33239145E-02 0.14112189E+03</pdfrwt>
<pdfrwt beam="2">  1       21 0.77229332E-01 0.14112189E+03</pdfrwt>
<totfact> 0.79909049E+05</totfact>
</mgrwt>
</event>
<event>
 6    1  0.4187588E-002  0.1278947E+03  0.7546771E-02  0.1230614E+00
         21   -1    0    0  504  502  0.00000000000E+00  0.00000000000E+00  0.42670038452E+02  0.42670038452E+02  0.00000000000E+00 0.  1.
         21   -1    0    0  502  503 -0.00000000000E+00 -0.00000000000E+00 -0.40416168897E+03  0.40416168897E+03  0.00000000000E+00 0.  1.
         25    2    1    2    0    0 -0.22764770851E+02  0.14955897067E+02 -0.38817502678E+03  0.40870147411E+03  0.12496051323E+03 0.  0.
          5    1    3    3  501    0  0.22957450518E+02 -0.32278592089E+02 -0.48002477899E+02  0.62235037768E+02  0.10000000000E+00 0.  1.
         -5    1    3    3    0  501 -0.45722221370E+02  0.47234489156E+02 -0.34017254889E+03  0.34646643634E+03  0.10000000000E+00 0.  1.
         21    1    1    2  504  503  0.22764770851E+02 -0.14955897067E+02  0.26683376266E+02  0.38130253316E+02  0.00000000000E+00 0.  1.
<mgrwt>
<rscale>  1 0.12789466E+03</rscale>
<asrwt>0</asrwt>
<pdfrwt beam="1">  1       21 0.65646215E-02 0.12789466E+03</pdfrwt>
<pdfrwt beam="2">  1       21 0.62178720E-01 0.12789466E+03</pdfrwt>
<totfact> 0.41012077E+05</totfact>
</mgrwt>
</event>
<event>
 6    1  0.4187588E-002  0.1274466E+03  0.7546771E-02  0.1231294E+00
         21   -1    0    0  504  502  0.00000000000E+00  0.00000000000E+00  0.68817715466E+03  0.68817715466E+03  0.00000000000E+00 0. -1.
         21   -1    0    0  502  503 -0.00000000000E+00 -0.00000000000E+00 -0.37905783661E+02  0.37905783661E+02  0.00000000000E+00 0.  1.
         25    2    1    2    0    0 -0.11450984730E+02  0.22061768145E+02  0.70242999128E+02  0.14552221037E+03  0.12499915247E+03 0.  0.
          5    1    3    3  501    0  0.55851261185E+02  0.70714429327E+01  0.45082412607E+02  0.72123523261E+02  0.10000000000E+00 0. -1.
         -5    1    3    3    0  501 -0.67302245914E+02  0.14990325212E+02  0.25160586520E+02  0.73398687108E+02  0.10000000000E+00 0. -1.
         21    1    1    2  504  503  0.11450984730E+02 -0.22061768145E+02  0.58002837187E+03  0.58056072795E+03  0.00000000000E+00 0. -1.
<mgrwt>
<rscale>  1 0.12744660E+03</rscale>
<asrwt>0</asrwt>
<pdfrwt beam="1">  1       21 0.10587340E+00 0.12744660E+03</pdfrwt>
<pdfrwt beam="2">  1       21 0.58316595E-02 0.12744660E+03</pdfrwt>
<totfact> 0.15188329E+05</totfact>
</mgrwt>
</event>
<event>
 6    1  0.4187588E-002  0.1302169E+03  0.7546771E-02  0.1227134E+00
         21   -1    0    0  503  502  0.00000000000E+00  0.00000000000E+00  0.14346680602E+03  0.14346680602E+03  0.00000000000E+00 0.  1.
         21   -1    0    0  504  503 -0.00000000000E+00 -0.00000000000E+00 -0.96037168373E+02  0.96037168373E+02  0.00000000000E+00 0.  1.
         25    2    1    2    0    0  0.29354870171E+02  0.21660820768E+02 -0.46868647338E+02  0.13839479523E+03  0.12500219872E+03 0.  0.
          5    1    3    3  501    0  0.96062805049E+01  0.55153613896E+01 -0.88705580826E+02  0.89394574254E+02  0.10000000000E+00 0.  1.
         -5    1    3    3    0  501  0.19748589666E+02  0.16145459379E+02  0.41836933488E+02  0.49000220979E+02  0.10000000000E+00 0.  1.
         21    1    1    2  504  502 -0.29354870171E+02 -0.21660820768E+02  0.94298284984E+02  0.10110917916E+03  0.00000000000E+00 0.  1.
<mgrwt>
<rscale>  1 0.13021693E+03</rscale>
<asrwt>0</asrwt>
<pdfrwt beam="1">  1       21 0.22071816E-01 0.13021693E+03</pdfrwt>
<pdfrwt beam="2">  1       21 0.14774949E-01 0.13021693E+03</pdfrwt>
<totfact> 0.77632935E+05</totfact>
</mgrwt>
</event>
<event>
 6    1  0.4187588E-002  0.1298287E+03  0.7546771E-02  0.1227710E+00
         21   -1    0    0  504  502  0.00000000000E+00  0.00000000000E+00  0.38959519233E+02  0.38959519233E+02  0.00000000000E+00 0.  1.
         21   -1    0    0  502  503 -0.00000000000E+00 -0.00000000000E+00 -0.17450165676E+03  0.17450165676E+03  0.00000000000E+00 0.  1.
         25    2    1    2    0    0  0.22664878332E+02  0.26766572060E+02 -0.10610712129E+03  0.16767289943E+03  0.12500133569E+03 0.  0.
          5    1    3    3  501    0 -0.44871856956E+02 -0.52005967443E+01 -0.10581256557E+02  0.46395072405E+02  0.10000000000E+00 0. -1.
         -5    1    3    3    0  501  0.67536735288E+02  0.31967168805E+02 -0.95525864732E+02  0.12127782702E+03  0.10000000000E+00 0. -1.
         21    1    1    2  504  503 -0.22664878332E+02 -0.26766572060E+02 -0.29435016233E+02  0.45788276560E+02  0.00000000000E+00 0.  1.
<mgrwt>
<rscale>  1 0.12982866E+03</rscale>
<asrwt>0</asrwt>
<pdfrwt beam="1">  1       21 0.59937723E-02 0.12982866E+03</pdfrwt>
<pdfrwt beam="2">  1       21 0.26846408E-01 0.12982866E+03</pdfrwt>
<totfact> 0.25895101E+06</totfact>
</mgrwt>
</event>
<event>
 6    1  0.4187588E-002  0.2235808E+03  0.7546771E-02  0.1131241E+00
         21   -1    0    0  504  502  0.00000000000E+00  0.00000000000E+00  0.45523048270E+03  0.45523048270E+03  0.00000000000E+00 0.  1.
         21   -1    0    0  502  503 -0.00000000000E+00 -0.00000000000E+00 -0.22263970859E+03  0.22263970859E+03  0.00000000000E+00 0. -1.
         25    2    1    2    0    0 -0.16458878914E+03 -0.85288566029E+02 -0.13853624436E+03  0.26302217955E+03  0.12499906772E+03 0.  0.
          5    1    3    3  501    0 -0.23304916136E+02  0.13500520111E+02 -0.74327906844E+02  0.79057136903E+02  0.10000000000E+00 0. -1.
         -5    1    3    3    0  501 -0.14128387300E+03 -0.98789086140E+02 -0.64208337516E+02  0.18396504265E+03  0.10000000000E+00 0. -1.
         21    1    1    2  504  503  0.16458878914E+03  0.85288566029E+02  0.37112701847E+03  0.41484801174E+03  0.00000000000E+00 0.  1.
<mgrwt>
<rscale>  1 0.22358080E+03</rscale>
<asrwt>0</asrwt>
<pdfrwt beam="1">  1       21 0.70035459E-01 0.22358080E+03</pdfrwt>
<pdfrwt beam="2">  1       21 0.34252263E-01 0.22358080E+03</pdfrwt>
<totfact> 0.14914998E+04</totfact>
</mgrwt>
</event>
<event>
 6    1  0.4187588E-002  0.1276620E+03  0.7546771E-02  0.1230967E+00
         21   -1    0    0  504  502  0.00000000000E+00  0.00000000000E+00  0.62981372828E+03  0.62981372828E+03  0.00000000000E+00 0.  1.
         21   -1    0    0  502  503 -0.00000000000E+00 -0.00000000000E+00 -0.19962742660E+02  0.19962742660E+02  0.00000000000E+00 0.  1.
         25    2    1    2    0    0  0.23964891059E+02  0.99426019591E+01  0.18870139806E+03  0.22782843334E+03  0.12499762425E+03 0.  0.
          5    1    3    3  501    0  0.60596234539E+02 -0.23063197260E+02  0.15524857975E+03  0.16824371079E+03  0.10000000000E+00 0. -1.
         -5    1    3    3    0  501 -0.36631343480E+02  0.33005799219E+02  0.33452818313E+02  0.59584722542E+02  0.10000000000E+00 0. -1.
         21    1    1    2  504  503 -0.23964891059E+02 -0.99426019591E+01  0.42114958756E+03  0.42194803760E+03  0.00000000000E+00 0.  1.
<mgrwt>
<rscale>  1 0.12766197E+03</rscale>
<asrwt>0</asrwt>
<pdfrwt beam="1">  1       21 0.96894404E-01 0.12766197E+03</pdfrwt>
<pdfrwt beam="2">  1       21 0.30711917E-02 0.12766197E+03</pdfrwt>
<totfact> 0.54425391E+05</totfact>
</mgrwt>
</event>
<event>
 6    1  0.4187588E-002  0.1270740E+03  0.7546771E-02  0.1231863E+00
         21   -1    0    0  504  502  0.00000000000E+00  0.00000000000E+00  0.18986442811E+02  0.18986442811E+02  0.00000000000E+00 0.  1.
         21   -1    0    0  502  503 -0.00000000000E+00 -0.00000000000E+00 -0.54343997032E+03  0.54343997032E+03  0.00000000000E+00 0.  1.
         25    2    1    2    0    0 -0.75704559213E+01 -0.21532688211E+02 -0.52442554182E+03  0.53960166236E+03  0.12500734635E+03 0.  0.
          5    1    3    3  501    0 -0.43555956995E+02  0.12971822790E+02 -0.77032464518E+02  0.89439365862E+02  0.10000000000E+00 0. -1.
         -5    1    3    3    0  501  0.35985501073E+02 -0.34504511000E+02 -0.44739307730E+03  0.45016229650E+03  0.10000000000E+00 0. -1.
         21    1    1    2  504  503  0.75704559213E+01  0.21532688211E+02 -0.27985683035E-01  0.22824750768E+02  0.00000000000E+00 0.  1.
<mgrwt>
<rscale>  1 0.12707401E+03</rscale>
<asrwt>0</asrwt>
<pdfrwt beam="1">  1       21 0.29209911E-02 0.12707401E+03</pdfrwt>
<pdfrwt beam="2">  1       21 0.83606153E-01 0.12707401E+03</pdfrwt>
<totfact> 0.82788043E+05</totfact>
</mgrwt>
</event>
<event>
 6    1  0.4187588E-002  0.1269193E+03  0.7546771E-02  0.1232100E+00
         21   -1    0    0  503  502  0.00000000000E+00  0.00000000000E+00  0.26922956070E+03  0.26922956070E+03  0.00000000000E+00 0.  1.
         21   -1    0    0  504  503 -0.00000000000E+00 -0.00000000000E+00 -0.21096590913E+02  0.21096590913E+02  0.00000000000E+00 0.  1.
         25    2    1    2    0    0  0.13321412352E+02  0.17488408613E+02  0.19322282669E+03  0.23117863875E+03  0.12500079119E+03 0.  0.
          5    1    3    3  501    0  0.40452997584E+01  0.45914468993E+02  0.12168306164E+02  0.47671590994E+02  0.10000000000E+00 0. -1.
         -5    1    3    3    0  501  0.92761125932E+01 -0.28426060380E+02  0.18105452053E+03  0.18350704776E+03  0.10000000000E+00 0. -1.
         21    1    1    2  504  502 -0.13321412352E+02 -0.17488408613E+02  0.54910143100E+02  0.59147512865E+02  0.00000000000E+00 0. -1.
<mgrwt>
<rscale>  1 0.12691927E+03</rscale>
<asrwt>0</asrwt>
<pdfrwt beam="1">  1       21 0.41419930E-01 0.12691927E+03</pdfrwt>
<pdfrwt beam="2">  1       21 0.32456296E-02 0.12691927E+03</pdfrwt>
<totfact> 0.30876177E+06</totfact>
</mgrwt>
</event>
<event>
 6    1  0.4187588E-002  0.1262103E+03  0.7546771E-02  0.1233190E+00
         21   -1    0    0  504  502  0.00000000000E+00  0.00000000000E+00  0.62735968634E+02  0.62735968634E+02  0.00000000000E+00 0. -1.
         21   -1    0    0  502  503 -0.00000000000E+00 -0.00000000000E+00 -0.18041049281E+03  0.18041049281E+03  0.00000000000E+00 0.  1.
         25    2    1    2    0    0  0.58823661816E+01  0.16443812313E+02 -0.15621796688E+03  0.20083100126E+03  0.12499614672E+03 0.  0.
          5    1    3    3  501    0  0.22939622143E+02  0.59891972935E+02 -0.13519988701E+03  0.14964054977E+03  0.10000000000E+00 0. -1.
         -5    1    3    3    0  501 -0.17057255962E+02 -0.43448160623E+02 -0.21018079868E+02  0.51190451490E+02  0.10000000000E+00 0. -1.
         21    1    1    2  504  503 -0.58823661816E+01 -0.16443812313E+02  0.38543442705E+02  0.42315460187E+02  0.00000000000E+00 0. -1.
<mgrwt>
<rscale>  1 0.12621029E+03</rscale>
<asrwt>0</asrwt>
<pdfrwt beam="1">  1       21 0.96516875E-02 0.12621029E+03</pdfrwt>
<pdfrwt beam="2">  1       21 0.27755460E-01 0.12621029E+03</pdfrwt>
<totfact> 0.10706741E+06</totfact>
</mgrwt>
</event>
<event>
 6    1  0.4187588E-002  0.1389990E+03  0.7546771E-02  0.1214682E+00
         21   -1    0    0  503  502  0.00000000000E+00  0.00000000000E+00  0.22671045955E+03  0.22671045955E+03  0.00000000000E+00 0. -1.
         21   -1    0    0  504  503 -0.00000000000E+00 -0.00000000000E+00 -0.46995981488E+02  0.46995981488E+02  0.00000000000E+00 0. -1.
         25    2    1    2    0    0  0.49544292476E+02 -0.35129338006E+02  0.90797996924E+02  0.16602706547E+03  0.12502800853E+03 0.  0.
          5    1    3    3  501    0 -0.16376162217E+02 -0.61520742133E+02  0.63601746484E+02  0.89989846968E+02  0.10000000000E+00 0.  1.
         -5    1    3    3    0  501  0.65920454693E+02  0.26391404128E+02  0.27196250440E+02  0.76037218497E+02  0.10000000000E+00 0.  1.
         21    1    1    2  504  502 -0.49544292476E+02  0.35129338006E+02  0.88916481137E+02  0.10767937557E+03  0.00000000000E+00 0. -1.
<mgrwt>
<rscale>  1 0.13899896E+03</rscale>
<asrwt>0</asrwt>
<pdfrwt beam="1">  1       21 0.34878532E-01 0.13899896E+03</pdfrwt>
<pdfrwt beam="2">  1       21 0.72301511E-02 0.13899896E+03</pdfrwt>
<totfact> 0.11344406E+06</totfact>
</mgrwt>
</event>
<event>
 6    1  0.4187588E-002  0.1273194E+03  0.7546771E-02  0.1231488E+00
         21   -1    0    0  503  502  0.00000000000E+00  0.00000000000E+00  0.18174846424E+02  0.18174846424E+02  0.00000000000E+00 0.  1.
         21   -1    0    0  504  503 -0.00000000000E+00 -0.00000000000E+00 -0.33287561033E+03  0.33287561033E+03  0.00000000000E+00 0.  1.
         25    2    1    2    0    0  0.23376351853E+02  0.62331829598E+01 -0.28873830795E+03  0.31556305737E+03  0.12499970521E+03 0.  0.
          5    1    3    3  501    0  0.69007554424E+02  0.24954283443E+02 -0.21200245811E+03  0.22434306558E+03  0.10000000000E+00 0. -1.
         -5    1    3    3    0  501 -0.45631202571E+02 -0.18721100483E+02 -0.76735849842E+02  0.91219991791E+02  0.10000000000E+00 0. -1.
         21    1    1    2  504  502 -0.23376351853E+02 -0.62331829598E+01 -0.25962455952E+02  0.35487399381E+02  0.00000000000E+00 0. -1.
<mgrwt>
<rscale>  1 0.12731941E+03</rscale>
<asrwt>0</asrwt>
<pdfrwt beam="1">  1       21 0.27961299E-02 0.12731941E+03</pdfrwt>
<pdfrwt beam="2">  1       21 0.51211638E-01 0.12731941E+03</pdfrwt>
<totfact> 0.25585703E+06</totfact>
</mgrwt>
</event>
<event>
 6    1  0.4187588E-002  0.1356809E+03  0.7546771E-02  0.1219262E+00
         21   -1    0    0  503  502  0.00000000000E+00  0.00000000000E+00  0.80903507995E+01  0.80903507995E+01  0.00000000000E+00 0. -1.
         21   -1    0    0  504  503 -0.00000000000E+00 -0.00000000000E+00 -0.12892292248E+04  0.12892292248E+04  0.00000000000E+00 0. -1.
         25    2    1    2    0    0  0.53057691670E+01 -0.52492648042E+02 -0.11092083408E+04  0.11174759282E+04  0.12500270951E+03 0.  0.
          5    1    3    3  501    0  0.19730504884E+02 -0.51088304288E+02 -0.10974421812E+04  0.10988078352E+04  0.10000000000E+00 0. -1.
         -5    1    3    3    0  501 -0.14424735717E+02 -0.14043437544E+01 -0.11766159622E+02  0.18668092944E+02  0.10000000000E+00 0. -1.
         21    1    1    2  504  502 -0.53057691670E+01  0.52492648042E+02 -0.17193053317E+03  0.17984364743E+03  0.00000000000E+00 0. -1.
<mgrwt>
<rscale>  1 0.13568090E+03</rscale>
<asrwt>0</asrwt>
<pdfrwt beam="1">  1       21 0.12446695E-02 0.13568090E+03</pdfrwt>
<pdfrwt beam="2">  1       21 0.19834294E+00 0.13568090E+03</pdfrwt>
<totfact> 0.37312733E+05</totfact>
</mgrwt>
</event>
<event>
 6    1  0.4187588E-002  0.2285764E+03  0.7546771E-02  0.1127646E+00
         21   -1    0    0  503  502  0.00000000000E+00  0.00000000000E+00  0.76407494288E+03  0.76407494288E+03  0.00000000000E+00 0. -1.
         21   -1    0    0  504  503 -0.00000000000E+00 -0.00000000000E+00 -0.70615323021E+02  0.70615323021E+02  0.00000000000E+00 0. -1.
         25    2    1    2    0    0  0.14716972935E+03 -0.12232472249E+03  0.19393527411E+03  0.29976331858E+03  0.12499955863E+03 0.  0.
          5    1    3    3  501    0 -0.21932741384E+02 -0.20870869790E+02  0.36519798223E+02  0.47437790975E+02  0.10000000000E+00 0.  1.
         -5    1    3    3    0  501  0.16910247073E+03 -0.10145385270E+03  0.15741547588E+03  0.25232552761E+03  0.10000000000E+00 0.  1.
         21    1    1    2  504  502 -0.14716972935E+03  0.12232472249E+03  0.49952434576E+03  0.53492694732E+03  0.00000000000E+00 0. -1.
<mgrwt>
<rscale>  1 0.22857637E+03</rscale>
<asrwt>0</asrwt>
<pdfrwt beam="1">  1       21 0.11754999E+00 0.22857637E+03</pdfrwt>
<pdfrwt beam="2">  1       21 0.10863896E-01 0.22857637E+03</pdfrwt>
<totfact> 0.38193992E+04</totfact>
</mgrwt>
</event>
<event>
 6    1  0.4187588E-002  0.1416690E+03  0.7546771E-02  0.1211101E+00
         21   -1    0    0  504  502  0.00000000000E+00  0.00000000000E+00  0.73133535157E+03  0.73133535157E+03  0.00000000000E+00 0. -1.
         21   -1    0    0  502  503 -0.00000000000E+00 -0.00000000000E+00 -0.32692428392E+02  0.32692428392E+02  0.00000000000E+00 0.  1.
         25    2    1    2    0    0  0.64659142528E+02  0.16156480947E+02  0.13249890331E+03  0.19397437209E+03  0.12501304357E+03 0.  0.
          5    1    3    3  501    0 -0.33087164844E+01 -0.44082868615E+02  0.17760073232E+02  0.47641128359E+02  0.10000000000E+00 0. -1.
         -5    1    3    3    0  501  0.67967859012E+02  0.60239349562E+02  0.11473883007E+03  0.14633324373E+03  0.10000000000E+00 0. -1.
         21    1    1    2  504  503 -0.64659142528E+02 -0.16156480947E+02  0.56614401987E+03  0.57005340787E+03  0.00000000000E+00 0. -1.
<mgrwt>
<rscale>  1 0.14166897E+03</rscale>
<asrwt>0</asrwt>
<pdfrwt beam="1">  1       21 0.11251312E+00 0.14166897E+03</pdfrwt>
<pdfrwt beam="2">  1       21 0.50296049E-02 0.14166897E+03</pdfrwt>
<totfact> 0.16772811E+05</totfact>
</mgrwt>
</event>
<event>
 6    1  0.4187588E-002  0.1259468E+03  0.7546771E-02  0.1233597E+00
         21   -1    0    0  504  502  0.00000000000E+00  0.00000000000E+00  0.26270554761E+02  0.26270554761E+02  0.00000000000E+00 0.  1.
         21   -1    0    0  502  503 -0.00000000000E+00 -0.00000000000E+00 -0.24741062871E+03  0.24741062871E+03  0.00000000000E+00 0.  1.
         25    2    1    2    0    0 -0.15316511994E+02 -0.17056705866E+01 -0.22494801730E+03  0.25780650917E+03  0.12500032332E+03 0.  0.
          5    1    3    3  501    0  0.49918796956E+02 -0.63063972440E+01 -0.15063101682E+03  0.15881237409E+03  0.10000000000E+00 0. -1.
         -5    1    3    3    0  501 -0.65235308949E+02  0.46007266575E+01 -0.74317000477E+02  0.98994135076E+02  0.10000000000E+00 0. -1.
         21    1    1    2  504  503  0.15316511994E+02  0.17056705866E+01  0.38079433480E+01  0.15874674307E+02  0.00000000000E+00 0.  1.
<mgrwt>
<rscale>  1 0.12594676E+03</rscale>
<asrwt>0</asrwt>
<pdfrwt beam="1">  1       21 0.40416239E-02 0.12594676E+03</pdfrwt>
<pdfrwt beam="2">  1       21 0.38063173E-01 0.12594676E+03</pdfrwt>
<totfact> 0.25428715E+06</totfact>
</mgrwt>
</event>
<event>
 6    1  0.4187588E-002  0.1261877E+03  0.7546771E-02  0.1233225E+00
         21   -1    0    0  504  502  0.00000000000E+00  0.00000000000E+00  0.42983535114E+03  0.42983535114E+03  0.00000000000E+00 0.  1.
         21   -1    0    0  502  503 -0.00000000000E+00 -0.00000000000E+00 -0.12046298992E+02  0.12046298992E+02  0.00000000000E+00 0.  1.
         25    2    1    2    0    0  0.16234346262E+02  0.58556025315E+01  0.37814806377E+03  0.39864682575E+03  0.12500196586E+03 0.  0.
          5    1    3    3  501    0  0.20561053349E+02 -0.23761319379E+02  0.36432508909E+03  0.36567764186E+03  0.10000000000E+00 0.  1.
         -5    1    3    3    0  501 -0.43267070875E+01  0.29616921910E+02  0.13822974678E+02  0.32969183893E+02  0.10000000000E+00 0.  1.
         21    1    1    2  504  503 -0.16234346262E+02 -0.58556025315E+01  0.39640988375E+02  0.43234824377E+02  0.00000000000E+00 0.  1.
<mgrwt>
<rscale>  1 0.12618769E+03</rscale>
<asrwt>0</asrwt>
<pdfrwt beam="1">  1       21 0.66128504E-01 0.12618769E+03</pdfrwt>
<pdfrwt beam="2">  1       21 0.18532771E-02 0.12618769E+03</pdfrwt>
<totfact> 0.29034929E+06</totfact>
</mgrwt>
</event>
<event>
 6    1  0.4187588E-002  0.1261066E+03  0.7546771E-02  0.1233350E+00
         21   -1    0    0  503  502  0.00000000000E+00  0.00000000000E+00  0.10762324650E+03  0.10762324650E+03  0.00000000000E+00 0.  1.
         21   -1    0    0  504  503 -0.00000000000E+00 -0.00000000000E+00 -0.47488585662E+02  0.47488585662E+02  0.00000000000E+00 0.  1.
         25    2    1    2    0    0 -0.16605746666E+02  0.14677069536E+01  0.50384192193E+02  0.13579922942E+03  0.12499983560E+03 0.  0.
          5    1    3    3  501    0 -0.57478539765E+02  0.32487902388E+02  0.52636581816E+02  0.84438534333E+02  0.10000000000E+00 0. -1.
         -5    1    3    3    0  501  0.40872793099E+02 -0.31020195434E+02 -0.22523896229E+01  0.51360695084E+02  0.10000000000E+00 0. -1.
         21    1    1    2  504  502  0.16605746666E+02 -0.14677069536E+01  0.97504686459E+01  0.19312602747E+02  0.00000000000E+00 0. -1.
<mgrwt>
<rscale>  1 0.12610656E+03</rscale>
<asrwt>0</asrwt>
<pdfrwt beam="1">  1       21 0.16557423E-01 0.12610656E+03</pdfrwt>
<pdfrwt beam="2">  1       21 0.73059363E-02 0.12610656E+03</pdfrwt>
<totfact> 0.45309350E+06</totfact>
</mgrwt>
</event>
<event>
 6    1  0.4187588E-002  0.1327514E+03  0.7546771E-02  0.1223429E+00
         21   -1    0    0  503  502  0.00000000000E+00  0.00000000000E+00  0.33639176430E+03  0.33639176430E+03  0.00000000000E+00 0. -1.
         21   -1    0    0  504  503 -0.00000000000E+00 -0.00000000000E+00 -0.30498803428E+03  0.30498803428E+03  0.00000000000E+00 0. -1.
         25    2    1    2    0    0  0.16450201781E+01 -0.44665075683E+02 -0.28891697313E+03  0.31795588490E+03  0.12500100920E+03 0.  0.
          5    1    3    3  501    0 -0.37246640951E+02  0.29727057497E+02 -0.85215644011E+02  0.97635680946E+02  0.10000000000E+00 0.  1.
         -5    1    3    3    0  501  0.38891661130E+02 -0.74392133180E+02 -0.20370132912E+03  0.22032020395E+03  0.10000000000E+00 0.  1.
         21    1    1    2  504  502 -0.16450201781E+01  0.44665075683E+02  0.32032070315E+03  0.32342391368E+03  0.00000000000E+00 0. -1.
<mgrwt>
<rscale>  1 0.13275137E+03</rscale>
<asrwt>0</asrwt>
<pdfrwt beam="1">  1       21 0.51752579E-01 0.13275137E+03</pdfrwt>
<pdfrwt beam="2">  1       21 0.46921236E-01 0.13275137E+03</pdfrwt>
<totfact> 0.16057913E+04</totfact>
</mgrwt>
</event>
<event>
 6    1  0.4187588E-002  0.1266882E+03  0.7546771E-02  0.1232454E+00
         21   -1    0    0  503  502  0.00000000000E+00  0.00000000000E+00  0.70578596741E+02  0.70578596741E+02  0.00000000000E+00 0.  1.
         21   -1    0    0  504  503 -0.00000000000E+00 -0.00000000000E+00 -0.17696505913E+04  0.17696505913E+04  0.00000000000E+00 0.  1.
         25    2    1    2    0    0 -0.35683207268E+01 -0.20329613976E+02 -0.17658220277E+04  0.17703607900E+04  0.12499546881E+03 0.  0.
          5    1    3    3  501    0 -0.74224675998E+01  0.58839788525E+01 -0.81695717027E+01  0.12508642381E+02  0.10000000000E+00 0.  1.
         -5    1    3    3    0  501  0.38541468730E+01 -0.26213592829E+02 -0.17576524560E+04  0.17578521476E+04  0.10000000000E+00 0.  1.
         21    1    1    2  504  502  0.35683207268E+01  0.20329613976E+02  0.66750033141E+02  0.69868398017E+02  0.00000000000E+00 0.  1.
<mgrwt>
<rscale>  1 0.12668817E+03</rscale>
<asrwt>0</asrwt>
<pdfrwt beam="1">  1       21 0.10858245E-01 0.12668817E+03</pdfrwt>
<pdfrwt beam="2">  1       21 0.27225395E+00 0.12668817E+03</pdfrwt>
<totfact> 0.37778060E+03</totfact>
</mgrwt>
</event>
<event>
 6    1  0.4187588E-002  0.1266406E+03  0.7546771E-02  0.1232527E+00
         21   -1    0    0  503  502  0.00000000000E+00  0.00000000000E+00  0.30970036940E+02  0.30970036940E+02  0.00000000000E+00 0.  1.
         21   -1    0    0  504  503 -0.00000000000E+00 -0.00000000000E+00 -0.18926131294E+03  0.18926131294E+03  0.00000000000E+00 0.  1.
         25    2    1    2    0    0  0.95066038993E+01  0.18064290688E+02 -0.15397959731E+03  0.19936787249E+03  0.12498455135E+03 0.  0.
          5    1    3    3  501    0 -0.51624790036E+02  0.34152511523E+01 -0.28610687826E+02  0.59121606411E+02  0.10000000000E+00 0. -1.
         -5    1    3    3    0  501  0.61131393935E+02  0.14649039536E+02 -0.12536890948E+03  0.14024626608E+03  0.10000000000E+00 0. -1.
         21    1    1    2  504  502 -0.95066038993E+01 -0.18064290688E+02 -0.43116786901E+01  0.20863477392E+02  0.00000000000E+00 0.  1.
<mgrwt>
<rscale>  1 0.12664056E+03</rscale>
<asrwt>0</asrwt>
<pdfrwt beam="1">  1       21 0.47646211E-02 0.12664056E+03</pdfrwt>
<pdfrwt beam="2">  1       21 0.29117125E-01 0.12664056E+03</pdfrwt>
<totfact> 0.32606564E+06</totfact>
</mgrwt>
</event>
<event>
 6    1  0.4187588E-002  0.1267866E+03  0.7546771E-02  0.1232303E+00
         21   -1    0    0  503  502  0.00000000000E+00  0.00000000000E+00  0.45962488012E+02  0.45962488012E+02  0.00000000000E+00 0. -1.
         21   -1    0    0  504  503 -0.00000000000E+00 -0.00000000000E+00 -0.29471273034E+03  0.29471273034E+03  0.00000000000E+00 0. -1.
         25    2    1    2    0    0 -0.21109078419E+02  0.20245635895E+01 -0.27741759824E+03  0.30501698866E+03  0.12500059003E+03 0.  0.
          5    1    3    3  501    0 -0.50104531301E+02 -0.42918153104E+02 -0.20243406720E+03  0.21291311252E+03  0.10000000000E+00 0.  1.
         -5    1    3    3    0  501  0.28995452882E+02  0.44942716694E+02 -0.74983531040E+02  0.92103876134E+02  0.10000000000E+00 0.  1.
         21    1    1    2  504  502  0.21109078419E+02 -0.20245635895E+01  0.28667355914E+02  0.35658229689E+02  0.00000000000E+00 0. -1.
<mgrwt>
<rscale>  1 0.12678659E+03</rscale>
<asrwt>0</asrwt>
<pdfrwt beam="1">  1       21 0.70711522E-02 0.12678659E+03</pdfrwt>
<pdfrwt beam="2">  1       21 0.45340419E-01 0.12678659E+03</pdfrwt>
<totfact> 0.69730839E+05</totfact>
</mgrwt>
</event>
<event>
 6    1  0.4187588E-002  0.1265218E+03  0.7546771E-02  0.1232710E+00
         21   -1    0    0  504  502  0.00000000000E+00  0.00000000000E+00  0.10594025862E+02  0.10594025862E+02  0.00000000000E+00 0.  1.
         21   -1    0    0  502  503 -0.00000000000E+00 -0.00000000000E+00 -0.93671338348E+03  0.93671338348E+03  0.00000000000E+00 0.  1.
         25    2    1    2    0    0 -0.19123104378E+02  0.38674218337E+01 -0.91714722387E+03  0.92583302328E+03  0.12500842640E+03 0.  0.
          5    1    3    3  501    0  0.29610714306E+02 -0.11265196062E+02 -0.66547498199E+02  0.73703992840E+02  0.10000000000E+00 0. -1.
         -5    1    3    3    0  501 -0.48733818684E+02  0.15132617896E+02 -0.85059972567E+03  0.85212903044E+03  0.10000000000E+00 0. -1.
         21    1    1    2  504  503  0.19123104378E+02 -0.38674218337E+01 -0.89721337454E+01  0.21474386059E+02  0.00000000000E+00 0.  1.
<mgrwt>
<rscale>  1 0.12652176E+03</rscale>
<asrwt>0</asrwt>
<pdfrwt beam="1">  1       21 0.16298505E-02 0.12652176E+03</pdfrwt>
<pdfrwt beam="2">  1       21 0.14410972E+00 0.12652176E+03</pdfrwt>
<totfact> 0.57845036E+05</totfact>
</mgrwt>
</event>
<event>
 6    1  0.4187588E-002  0.1268526E+03  0.7546771E-02  0.1232202E+00
         21   -1    0    0  503  502  0.00000000000E+00  0.00000000000E+00  0.19633942294E+02  0.19633942294E+02  0.00000000000E+00 0. -1.
         21   -1    0    0  504  503 -0.00000000000E+00 -0.00000000000E+00 -0.28113923031E+03  0.28113923031E+03  0.00000000000E+00 0. -1.
         25    2    1    2    0    0 -0.81406123692E+01 -0.20004056739E+02 -0.21864254105E+03  0.25277685052E+03  0.12500057419E+03 0.  0.
          5    1    3    3  501    0 -0.41286497071E+02 -0.37901349469E+02 -0.20530293691E+03  0.21281539662E+03  0.10000000000E+00 0. -1.
         -5    1    3    3    0  501  0.33145884701E+02  0.17897292730E+02 -0.13339604134E+02  0.39961453904E+02  0.10000000000E+00 0. -1.
         21    1    1    2  504  502  0.81406123692E+01  0.20004056739E+02 -0.42862746972E+02  0.47996322086E+02  0.00000000000E+00 0. -1.
<mgrwt>
<rscale>  1 0.12685257E+03</rscale>
<asrwt>0</asrwt>
<pdfrwt beam="1">  1       21 0.30206065E-02 0.12685257E+03</pdfrwt>
<pdfrwt beam="2">  1       21 0.43252189E-01 0.12685257E+03</pdfrwt>
<totfact> 0.31842777E+06</totfact>
</mgrwt>
</event>
<event>
 6    1  0.4187588E-002  0.1270457E+03  0.7546771E-02  0.1231906E+00
         21   -1    0    0  503  502  0.00000000000E+00  0.00000000000E+00  0.10651617202E+03  0.10651617202E+03  0.00000000000E+00 0. -1.
         21   -1    0    0  504  503 -0.00000000000E+00 -0.00000000000E+00 -0.56243116209E+02  0.56243116209E+02  0.00000000000E+00 0. -1.
         25    2    1    2    0    0  0.21085456616E+02 -0.84159559031E+01  0.26294699222E+02  0.12973828917E+03  0.12500075069E+03 0.  0.
          5    1    3    3  501    0  0.50015337184E+02  0.36439750265E+02 -0.13280893430E+02  0.63291243338E+02  0.10000000000E+00 0. -1.
         -5    1    3    3    0  501 -0.28929880567E+02 -0.44855706168E+02  0.39575592652E+02  0.66447045828E+02  0.10000000000E+00 0. -1.
         21    1    1    2  504  502 -0.21085456616E+02  0.84159559031E+01  0.23978356594E+02  0.33020999067E+02  0.00000000000E+00 0. -1.
<mgrwt>
<rscale>  1 0.12704571E+03</rscale>
<asrwt>0</asrwt>
<pdfrwt beam="1">  1       21 0.16387103E-01 0.12704571E+03</pdfrwt>
<pdfrwt beam="2">  1       21 0.86527871E-02 0.12704571E+03</pdfrwt>
<totfact> 0.34507209E+06</totfact>
</mgrwt>
</event>
<event>
 6    1  0.4187588E-002  0.1365136E+03  0.7546771E-02  0.1218099E+00
         21   -1    0    0  504  502  0.00000000000E+00  0.00000000000E+00  0.34657426083E+02  0.34657426083E+02  0.00000000000E+00 0.  1.
         21   -1    0    0  502  503 -0.00000000000E+00 -0.00000000000E+00 -0.26635766564E+03  0.26635766564E+03  0.00000000000E+00 0.  1.
         25    2    1    2    0    0 -0.14615970837E+02 -0.52880866183E+02 -0.17715332043E+03  0.22364986053E+03  0.12500379419E+03 0.  0.
          5    1    3    3  501    0 -0.62696675552E+02 -0.41935111019E+02 -0.59468674535E+02  0.96051860536E+02  0.10000000000E+00 0. -1.
         -5    1    3    3    0  501  0.48080704715E+02 -0.10945755164E+02 -0.11768464590E+03  0.12759799999E+03  0.10000000000E+00 0. -1.
         21    1    1    2  504  503  0.14615970837E+02  0.52880866183E+02 -0.54546919120E+02  0.77365231191E+02  0.00000000000E+00 0.  1.
<mgrwt>
<rscale>  1 0.13651359E+03</rscale>
<asrwt>0</asrwt>
<pdfrwt beam="1">  1       21 0.53319117E-02 0.13651359E+03</pdfrwt>
<pdfrwt beam="2">  1       21 0.40978102E-01 0.13651359E+03</pdfrwt>
<totfact> 0.13825852E+06</totfact>
</mgrwt>
</event>
<event>
 6    1  0.4187588E-002  0.1303332E+03  0.7546771E-02  0.1226962E+00
         21   -1    0    0  504  502  0.00000000000E+00  0.00000000000E+00  0.54096226011E+03  0.54096226011E+03  0.00000000000E+00 0.  1.
         21   -1    0    0  502  503 -0.00000000000E+00 -0.00000000000E+00 -0.15397296992E+02  0.15397296992E+02  0.00000000000E+00 0.  1.
         25    2    1    2    0    0 -0.33844753729E+02  0.14765654614E+02  0.29030848209E+03  0.31822282374E+03  0.12499303526E+03 0.  0.
          5    1    3    3  501    0 -0.29630533915E+02 -0.25626718518E+02  0.26997989955E+03  0.27280735585E+03  0.10000000000E+00 0. -1.
         -5    1    3    3    0  501 -0.42142198139E+01  0.40392373132E+02  0.20328582537E+02  0.45415467892E+02  0.10000000000E+00 0. -1.
         21    1    1    2  504  503  0.33844753729E+02 -0.14765654614E+02  0.23525648103E+03  0.23813673336E+03  0.00000000000E+00 0.  1.
<mgrwt>
<rscale>  1 0.13033323E+03</rscale>
<asrwt>0</asrwt>
<pdfrwt beam="1">  1       21 0.83224949E-01 0.13033323E+03</pdfrwt>
<pdfrwt beam="2">  1       21 0.23688153E-02 0.13033323E+03</pdfrwt>
<totfact> 0.11771976E+06</totfact>
</mgrwt>
</event>
<event>
 6    1  0.4187588E-002  0.1923841E+03  0.7546771E-02  0.1156328E+00
         21   -1    0    0  503  502  0.00000000000E+00  0.00000000000E+00  0.30498901125E+03  0.30498901125E+03  0.00000000000E+00 0.  1.
         21   -1    0    0  504  503 -0.00000000000E+00 -0.00000000000E+00 -0.52001511843E+03  0.52001511843E+03  0.00000000000E+00 0. -1.
         25    2    1    2    0    0  0.11717279556E+03 -0.87510185963E+02 -0.48289872350E+03  0.51981036297E+03  0.12499655842E+03 0.  0.
          5    1    3    3  501    0  0.13981728438E+02 -0.65616953319E+02 -0.85671105911E+02  0.10881462071E+03  0.10000000000E+00 0.  1.
         -5    1    3    3    0  501  0.10319106713E+03 -0.21893232643E+02 -0.39722761759E+03  0.41099574225E+03  0.10000000000E+00 0.  1.
         21    1    1    2  504  502 -0.11717279556E+03  0.87510185963E+02  0.26787261633E+03  0.30519376672E+03  0.00000000000E+00 0.  1.
<mgrwt>
<rscale>  1 0.19238409E+03</rscale>
<asrwt>0</asrwt>
<pdfrwt beam="1">  1       21 0.46921386E-01 0.19238409E+03</pdfrwt>
<pdfrwt beam="2">  1       21 0.80002326E-01 0.19238409E+03</pdfrwt>
<totfact> 0.59807257E+03</totfact>
</mgrwt>
</event>
<event>
 6    1  0.4187588E-002  0.1701474E+03  0.7546771E-02  0.1177694E+00
         21   -1    0    0  503  502  0.00000000000E+00  0.00000000000E+00  0.11309126737E+04  0.11309126737E+04  0.00000000000E+00 0. -1.
         21   -1    0    0  504  503 -0.00000000000E+00 -0.00000000000E+00 -0.50416419351E+02  0.50416419351E+02  0.00000000000E+00 0. -1.
         25    2    1    2    0    0 -0.55075111688E+02 -0.10145281892E+03  0.10696314885E+03  0.20097576394E+03  0.12499680029E+03 0.  0.
          5    1    3    3  501    0 -0.50534183054E+02 -0.89713301232E+02  0.13526758397E+03  0.16999855690E+03  0.10000000000E+00 0. -1.
         -5    1    3    3    0  501 -0.45409286340E+01 -0.11739517692E+02 -0.28304435121E+02  0.30977207040E+02  0.10000000000E+00 0. -1.
         21    1    1    2  504  502  0.55075111688E+02  0.10145281892E+03  0.97353310546E+03  0.98035332907E+03  0.00000000000E+00 0. -1.
<mgrwt>
<rscale>  1 0.17014741E+03</rscale>
<asrwt>0</asrwt>
<pdfrwt beam="1">  1       21 0.17398655E+00 0.17014741E+03</pdfrwt>
<pdfrwt beam="2">  1       21 0.77563730E-02 0.17014741E+03</pdfrwt>
<totfact> 0.25748018E+04</totfact>
</mgrwt>
</event>
<event>
 6    1  0.4187588E-002  0.1261876E+03  0.7546771E-02  0.1233225E+00
         21   -1    0    0  504  502  0.00000000000E+00  0.00000000000E+00  0.36700362044E+02  0.36700362044E+02  0.00000000000E+00 0. -1.
         21   -1    0    0  502  503 -0.00000000000E+00 -0.00000000000E+00 -0.20818763287E+03  0.20818763287E+03  0.00000000000E+00 0. -1.
         25    2    1    2    0    0  0.70458363225E+01  0.15977020462E+02 -0.18420785166E+03  0.22328424133E+03  0.12497364050E+03 0.  0.
          5    1    3    3  501    0 -0.25629259568E+02  0.65212187339E+01  0.83593223869E+01  0.27735780331E+02  0.10000000000E+00 0. -1.
         -5    1    3    3    0  501  0.32675095891E+02  0.94558017282E+01 -0.19256717405E+03  0.19554846100E+03  0.10000000000E+00 0. -1.
         21    1    1    2  504  503 -0.70458363225E+01 -0.15977020462E+02  0.12720580834E+02  0.21603753588E+02  0.00000000000E+00 0. -1.
<mgrwt>
<rscale>  1 0.12618764E+03</rscale>
<asrwt>0</asrwt>
<pdfrwt beam="1">  1       21 0.56462096E-02 0.12618764E+03</pdfrwt>
<pdfrwt beam="2">  1       21 0.32028867E-01 0.12618764E+03</pdfrwt>
<totfact> 0.20383963E+06</totfact>
</mgrwt>
</event>
<event>
 6    1  0.4187588E-002  0.1267418E+03  0.7546771E-02  0.1232372E+00
         21   -1    0    0  503  502  0.00000000000E+00  0.00000000000E+00  0.18507497188E+02  0.18507497188E+02  0.00000000000E+00 0. -1.
         21   -1    0    0  504  503 -0.00000000000E+00 -0.00000000000E+00 -0.39385738012E+03  0.39385738012E+03  0.00000000000E+00 0. -1.
         25    2    1    2    0    0 -0.73984283377E+01  0.19591232530E+02 -0.36948378022E+03  0.39061713501E+03  0.12499971674E+03 0.  0.
          5    1    3    3  501    0  0.52427644729E+02 -0.45642520727E+01 -0.24294366619E+03  0.24857820755E+03  0.10000000000E+00 0.  1.
         -5    1    3    3    0  501 -0.59826073067E+02  0.24155484603E+02 -0.12654011403E+03  0.14203892746E+03  0.10000000000E+00 0.  1.
         21    1    1    2  504  502  0.73984283377E+01 -0.19591232530E+02 -0.58661027132E+01  0.21747742296E+02  0.00000000000E+00 0.  1.
<mgrwt>
<rscale>  1 0.12674179E+03</rscale>
<asrwt>0</asrwt>
<pdfrwt beam="1">  1       21 0.28473075E-02 0.12674179E+03</pdfrwt>
<pdfrwt beam="2">  1       21 0.60593438E-01 0.12674179E+03</pdfrwt>
<totfact> 0.17452778E+06</totfact>
</mgrwt>
</event>
<event>
 6    1  0.4187588E-002  0.1308482E+03  0.7546771E-02  0.1226203E+00
         21   -1    0    0  503  502  0.00000000000E+00  0.00000000000E+00  0.24498207838E+03  0.24498207838E+03  0.00000000000E+00 0. -1.
         21   -1    0    0  504  503 -0.00000000000E+00 -0.00000000000E+00 -0.29357079222E+02  0.29357079222E+02  0.00000000000E+00 0. -1.
         25    2    1    2    0    0 -0.32760993078E+02 -0.20565976935E+02  0.16993489474E+03  0.21447407832E+03  0.12500007900E+03 0.  0.
          5    1    3    3  501    0 -0.73507240665E+02 -0.75975644706E+01  0.55822544613E+02  0.92613195081E+02  0.10000000000E+00 0.  1.
         -5    1    3    3    0  501  0.40746247587E+02 -0.12968412464E+02  0.11411235012E+03  0.12186088324E+03  0.10000000000E+00 0.  1.
         21    1    1    2  504  502  0.32760993078E+02  0.20565976935E+02  0.45690104424E+02  0.59865079279E+02  0.00000000000E+00 0. -1.
<mgrwt>
<rscale>  1 0.13084824E+03</rscale>
<asrwt>0</asrwt>
<pdfrwt beam="1">  1       21 0.37689549E-01 0.13084824E+03</pdfrwt>
<pdfrwt beam="2">  1       21 0.45164739E-02 0.13084824E+03</pdfrwt>
<totfact> 0.21573845E+06</totfact>
</mgrwt>
</event>
<event>
 6    1  0.4187588E-002  0.1264244E+03  0.7546771E-02  0.1232860E+00
         21   -1    0    0  503  502  0.00000000000E+00  0.00000000000E+00  0.29490286936E+02  0.29490286936E+02  0.00000000000E+00 0.  1.
         21   -1    0    0  504  503 -0.00000000000E+00 -0.00000000000E+00 -0.19382509465E+03  0.19382509465E+03  0.00000000000E+00 0.  1.
         25    2    1    2    0    0  0.17006976524E+02  0.83190822622E+01 -0.15995253543E+03  0.20388219629E+03  0.12499876797E+03 0.  0.
          5    1    3    3  501    0 -0.34863091592E+02 -0.40618913767E+02 -0.52944455893E+02  0.75289154071E+02  0.10000000000E+00 0.  1.
         -5    1    3    3    0  501  0.51870068117E+02  0.48937996029E+02 -0.10700807954E+03  0.12859304222E+03  0.10000000000E+00 0.  1.
         21    1    1    2  504  502 -0.17006976524E+02 -0.83190822622E+01 -0.43822722827E+01  0.19433185291E+02  0.00000000000E+00 0. -1.
<mgrwt>
<rscale>  1 0.12642443E+03</rscale>
<asrwt>0</asrwt>
<pdfrwt beam="1">  1       21 0.45369671E-02 0.12642443E+03</pdfrwt>
<pdfrwt beam="2">  1       21 0.29819246E-01 0.12642443E+03</pdfrwt>
<totfact> 0.33801277E+06</totfact>
</mgrwt>
</event>
<event>
 6    1  0.4187588E-002  0.1294675E+03  0.7546771E-02  0.1228248E+00
         21   -1    0    0  503  502  0.00000000000E+00  0.00000000000E+00  0.17495434328E+03  0.17495434328E+03  0.00000000000E+00 0.  1.
         21   -1    0    0  504  503 -0.00000000000E+00 -0.00000000000E+00 -0.39414847458E+02  0.39414847458E+02  0.00000000000E+00 0.  1.
         25    2    1    2    0    0 -0.33079242463E+02 -0.64885090867E+01  0.89853079567E+02  0.15759256119E+03  0.12500200960E+03 0.  0.
          5    1    3    3  501    0  0.24089502705E+02 -0.33075447852E+02  0.85025763758E+02  0.94359312703E+02  0.10000000000E+00 0. -1.
         -5    1    3    3    0  501 -0.57168745167E+02  0.26586938765E+02  0.48273158091E+01  0.63233248492E+02  0.10000000000E+00 0. -1.
         21    1    1    2  504  502  0.33079242463E+02  0.64885090867E+01  0.45686416257E+02  0.56776629545E+02  0.00000000000E+00 0.  1.
<mgrwt>
<rscale>  1 0.12946752E+03</rscale>
<asrwt>0</asrwt>
<pdfrwt beam="1">  1       21 0.26916052E-01 0.12946752E+03</pdfrwt>
<pdfrwt beam="2">  1       21 0.60638228E-02 0.12946752E+03</pdfrwt>
<totfact> 0.25262426E+06</totfact>
</mgrwt>
</event>
<event>
 6    1  0.4187588E-002  0.1690624E+03  0.7546771E-02  0.1178829E+00
         21   -1    0    0  503  502  0.00000000000E+00  0.00000000000E+00  0.64090207617E+03  0.64090207617E+03  0.00000000000E+00 0.  1.
         21   -1    0    0  504  503 -0.00000000000E+00 -0.00000000000E+00 -0.61906893411E+02  0.61906893411E+02  0.00000000000E+00 0.  1.
         25    2    1    2    0    0 -0.81338053121E+02 -0.79630356037E+02  0.72967601071E+02  0.18413683237E+03  0.12500091896E+03 0.  0.
          5    1    3    3  501    0  0.18204906247E+02 -0.22941860296E+02  0.62603981133E+02  0.69115960667E+02  0.10000000000E+00 0.  1.
         -5    1    3    3    0  501 -0.99542959368E+02 -0.56688495742E+02  0.10363619938E+02  0.11502087170E+03  0.10000000000E+00 0.  1.
         21    1    1    2  504  502  0.81338053121E+02  0.79630356037E+02  0.50602758169E+03  0.51867213721E+03  0.00000000000E+00 0.  1.
<mgrwt>
<rscale>  1 0.16906242E+03</rscale>
<asrwt>0</asrwt>
<pdfrwt beam="1">  1       21 0.98600315E-01 0.16906242E+03</pdfrwt>
<pdfrwt beam="2">  1       21 0.95241379E-02 0.16906242E+03</pdfrwt>
<totfact> 0.75870695E+04</totfact>
</mgrwt>
</event>
<event>
 6    1  0.4187588E-002  0.1302071E+03  0.7546771E-02  0.1227149E+00
         21   -1    0    0  504  502  0.00000000000E+00  0.00000000000E+00  0.96457823202E+03  0.96457823202E+03  0.00000000000E+00 0. -1.
         21   -1    0    0  502  503 -0.00000000000E+00 -0.00000000000E+00 -0.19675942370E+02  0.19675942370E+02  0.00000000000E+00 0. -1.
         25    2    1    2    0    0 -0.26459181381E+02  0.25071871239E+02  0.20118455214E+03  0.23964369898E+03  0.12500076573E+03 0.  0.
          5    1    3    3  501    0 -0.44801111638E+02  0.31477025805E+02  0.21359683610E+02  0.58772347592E+02  0.10000000000E+00 0.  1.
         -5    1    3    3    0  501  0.18341930258E+02 -0.64051545663E+01  0.17982486853E+03  0.18087135139E+03  0.10000000000E+00 0.  1.
         21    1    1    2  504  503  0.26459181381E+02 -0.25071871239E+02  0.74371773751E+03  0.74461047542E+03  0.00000000000E+00 0. -1.
<mgrwt>
<rscale>  1 0.13020706E+03</rscale>
<asrwt>0</asrwt>
<pdfrwt beam="1">  1       21 0.14839661E+00 0.13020706E+03</pdfrwt>
<pdfrwt beam="2">  1       21 0.30270688E-02 0.13020706E+03</pdfrwt>
<totfact> 0.19651343E+05</totfact>
</mgrwt>
</event>
<event>
 6    1  0.4187588E-002  0.1264789E+03  0.7546771E-02  0.1232776E+00
         21   -1    0    0  504  502  0.00000000000E+00  0.00000000000E+00  0.98578686132E+02  0.98578686132E+02  0.00000000000E+00 0.  1.
         21   -1    0    0  502  503 -0.00000000000E+00 -0.00000000000E+00 -0.69720072028E+02  0.69720072028E+02  0.00000000000E+00 0.  1.
         25    2    1    2    0    0  0.19247386908E+02 -0.86875752382E+00 -0.79753384476E+01  0.12673005956E+03  0.12500274129E+03 0.  0.
          5    1    3    3  501    0 -0.99549132006E+01  0.56025780006E+02  0.14880940840E+02  0.58817010485E+02  0.10000000000E+00 0. -1.
         -5    1    3    3    0  501  0.29202300108E+02 -0.56894537529E+02 -0.22856279287E+02  0.67913049079E+02  0.10000000000E+00 0. -1.
         21    1    1    2  504  503 -0.19247386908E+02  0.86875752382E+00  0.36833952552E+02  0.41568698596E+02  0.00000000000E+00 0. -1.
<mgrwt>
<rscale>  1 0.12647886E+03</rscale>
<asrwt>0</asrwt>
<pdfrwt beam="1">  1       21 0.15165952E-01 0.12647886E+03</pdfrwt>
<pdfrwt beam="2">  1       21 0.10726165E-01 0.12647886E+03</pdfrwt>
<totfact> 0.27287119E+06</totfact>
</mgrwt>
</event>
<event>
 6    1  0.4187588E-002  0.1355274E+03  0.7546771E-02  0.1219477E+00
         21   -1    0    0  504  502  0.00000000000E+00  0.00000000000E+00  0.74347790806E+03  0.74347790806E+03  0.00000000000E+00 0.  1.
         21   -1    0    0  502  503 -0.00000000000E+00 -0.00000000000E+00 -0.11936684477E+02  0.11936684477E+02  0.00000000000E+00 0.  1.
         25    2    1    2    0    0 -0.50315548634E+02 -0.14496493523E+02  0.55196805411E+03  0.56836292600E+03  0.12500352050E+03 0.  0.
          5    1    3    3  501    0 -0.78445329477E+02  0.27992420828E+02  0.30335934964E+03  0.31458568046E+03  0.10000000000E+00 0.  1.
         -5    1    3    3    0  501  0.28129780844E+02 -0.42488914352E+02  0.24860870448E+03  0.25377724554E+03  0.10000000000E+00 0.  1.
         21    1    1    2  504  503  0.50315548634E+02  0.14496493523E+02  0.17957316947E+03  0.18705166653E+03  0.00000000000E+00 0.  1.
<mgrwt>
<rscale>  1 0.13552742E+03</rscale>
<asrwt>0</asrwt>
<pdfrwt beam="1">  1       21 0.11438118E+00 0.13552742E+03</pdfrwt>
<pdfrwt beam="2">  1       21 0.18364136E-02 0.13552742E+03</pdfrwt>
<totfact> 0.84660625E+05</totfact>
</mgrwt>
</event>
<event>
 6    1  0.4187588E-002  0.1288078E+03  0.7546771E-02  0.1229235E+00
         21   -1    0    0  504  502  0.00000000000E+00  0.00000000000E+00  0.23023387260E+03  0.23023387260E+03  0.00000000000E+00 0.  1.
         21   -1    0    0  502  503 -0.00000000000E+00 -0.00000000000E+00 -0.27815700594E+02  0.27815700594E+02  0.00000000000E+00 0.  1.
         25    2    1    2    0    0 -0.30857226737E+02  0.37651094320E+01  0.15841034652E+03  0.20416976997E+03  0.12500045038E+03 0.  0.
          5    1    3    3  501    0  0.44158485747E+02 -0.12842921421E+02  0.90987554458E+02  0.10194928916E+03  0.10000000000E+00 0.  1.
         -5    1    3    3    0  501 -0.75015712485E+02  0.16608030853E+02  0.67422792057E+02  0.10222048081E+03  0.10000000000E+00 0.  1.
         21    1    1    2  504  503  0.30857226737E+02 -0.37651094320E+01  0.44007825491E+02  0.53879803224E+02  0.00000000000E+00 0.  1.
<mgrwt>
<rscale>  1 0.12880783E+03</rscale>
<asrwt>0</asrwt>
<pdfrwt beam="1">  1       21 0.35420595E-01 0.12880783E+03</pdfrwt>
<pdfrwt beam="2">  1       21 0.42793387E-02 0.12880783E+03</pdfrwt>
<totfact> 0.26673539E+06</totfact>
</mgrwt>
</event>
<event>
 6    1  0.4187588E-002  0.1269919E+03  0.7546771E-02  0.1231989E+00
         21   -1    0    0  504  502  0.00000000000E+00  0.00000000000E+00  0.49405242146E+02  0.49405242146E+02  0.00000000000E+00 0. -1.
         21   -1    0    0  502  503 -0.00000000000E+00 -0.00000000000E+00 -0.17651995635E+03  0.17651995635E+03  0.00000000000E+00 0. -1.
         25    2    1    2    0    0  0.20360512446E+02 -0.93837038368E+01 -0.14818725502E+03  0.19515741760E+03  0.12499740288E+03 0.  0.
          5    1    3    3  501    0  0.33344565974E+02  0.15666270423E+01 -0.16671381655E+03  0.17002300147E+03  0.10000000000E+00 0.  1.
         -5    1    3    3    0  501 -0.12984053528E+02 -0.10950330879E+02  0.18526561524E+02  0.25134416132E+02  0.10000000000E+00 0.  1.
         21    1    1    2  504  503 -0.20360512446E+02  0.93837038368E+01  0.21072540819E+02  0.30767780897E+02  0.00000000000E+00 0. -1.
<mgrwt>
<rscale>  1 0.12699195E+03</rscale>
<asrwt>0</asrwt>
<pdfrwt beam="1">  1       21 0.76008064E-02 0.12699195E+03</pdfrwt>
<pdfrwt beam="2">  1       21 0.27156917E-01 0.12699195E+03</pdfrwt>
<totfact> 0.16878687E+06</totfact>
</mgrwt>
</event>
<event>
 6    1  0.4187588E-002  0.1543533E+03  0.7546771E-02  0.1195223E+00
         21   -1    0    0  503  502  0.00000000000E+00  0.00000000000E+00  0.87854968831E+02  0.87854968831E+02  0.00000000000E+00 0.  1.
         21   -1    0    0  504  503 -0.00000000000E+00 -0.00000000000E+00 -0.19574770527E+03  0.19574770527E+03  0.00000000000E+00 0.  1.
         25    2    1    2    0    0 -0.37646561018E+02  0.82353238824E+02 -0.11542797413E+03  0.19273959409E+03  0.12500245765E+03 0.  0.
          5    1    3    3  501    0 -0.95282351527E+01 -0.20585763531E+02 -0.75450270556E+02  0.78786510598E+02  0.10000000000E+00 0. -1.
         -5    1    3    3    0  501 -0.28118325866E+02  0.10293900235E+03 -0.39977703570E+02  0.11395308349E+03  0.10000000000E+00 0. -1.
         21    1    1    2  504  502  0.37646561018E+02 -0.82353238824E+02  0.75352376883E+01  0.90863080007E+02  0.00000000000E+00 0.  1.
<mgrwt>
<rscale>  1 0.15435328E+03</rscale>
<asrwt>0</asrwt>
<pdfrwt beam="1">  1       21 0.13516149E-01 0.15435328E+03</pdfrwt>
<pdfrwt beam="2">  1       21 0.30115032E-01 0.15435328E+03</pdfrwt>
<totfact> 0.50414455E+05</totfact>
</mgrwt>
</event>
<event>
 6    1  0.4187588E-002  0.1272978E+03  0.7546771E-02  0.1231521E+00
         21   -1    0    0  503  502  0.00000000000E+00  0.00000000000E+00  0.41044790181E+02  0.41044790181E+02  0.00000000000E+00 0. -1.
         21   -1    0    0  504  503 -0.00000000000E+00 -0.00000000000E+00 -0.18018607779E+03  0.18018607779E+03  0.00000000000E+00 0. -1.
         25    2    1    2    0    0 -0.11357406463E+02 -0.21210178452E+02 -0.14834030025E+03  0.19547268121E+03  0.12500344823E+03 0.  0.
          5    1    3    3  501    0 -0.62303182367E+02  0.12830706671E+02 -0.94451171794E+02  0.11387426145E+03  0.10000000000E+00 0.  1.
         -5    1    3    3    0  501  0.50945775904E+02 -0.34040885123E+02 -0.53889128459E+02  0.81598419767E+02  0.10000000000E+00 0.  1.
         21    1    1    2  504  502  0.11357406463E+02  0.21210178452E+02  0.91990126422E+01  0.25758186759E+02  0.00000000000E+00 0. -1.
<mgrwt>
<rscale>  1 0.12729778E+03</rscale>
<asrwt>0</asrwt>
<pdfrwt beam="1">  1       21 0.63145832E-02 0.12729778E+03</pdfrwt>
<pdfrwt beam="2">  1       21 0.27720935E-01 0.12729778E+03</pdfrwt>
<totfact> 0.22280896E+06</totfact>
</mgrwt>
</event>
<event>
 6    1  0.4187588E-002  0.1284072E+03  0.7546771E-02  0.1229838E+00
         21   -1    0    0  503  502  0.00000000000E+00  0.00000000000E+00  0.12134328708E+03  0.12134328708E+03  0.00000000000E+00 0. -1.
         21   -1    0    0  504  503 -0.00000000000E+00 -0.00000000000E+00 -0.62853326524E+02  0.62853326524E+02  0.00000000000E+00 0. -1.
         25    2    1    2    0    0 -0.29136358251E+01 -0.29263790762E+02  0.11709257477E+02  0.12894000401E+03  0.12499423666E+03 0.  0.
          5    1    3    3  501    0  0.40801073281E+01  0.34014165512E+02  0.45428814383E+02  0.56898136239E+02  0.10000000000E+00 0. -1.
         -5    1    3    3    0  501 -0.69937431532E+01 -0.63277956274E+02 -0.33719556906E+02  0.72041867768E+02  0.10000000000E+00 0. -1.
         21    1    1    2  504  502  0.29136358251E+01  0.29263790762E+02  0.46780703077E+02  0.55256609594E+02  0.00000000000E+00 0. -1.
<mgrwt>
<rscale>  1 0.12840723E+03</rscale>
<asrwt>0</asrwt>
<pdfrwt beam="1">  1       21 0.18668198E-01 0.12840723E+03</pdfrwt>
<pdfrwt beam="2">  1       21 0.96697425E-02 0.12840723E+03</pdfrwt>
<totfact> 0.22431602E+06</totfact>
</mgrwt>
</event>
<event>
 6    1  0.4187588E-002  0.1312373E+03  0.7546771E-02  0.1225631E+00
         21   -1    0    0  503  502  0.00000000000E+00  0.00000000000E+00  0.10512073983E+03  0.10512073983E+03  0.00000000000E+00 0. -1.
         21   -1    0    0  504  503 -0.00000000000E+00 -0.00000000000E+00 -0.71353305625E+02  0.71353305625E+02  0.00000000000E+00 0. -1.
         25    2    1    2    0    0  0.24011333799E+02 -0.31960468479E+02  0.37042721223E+02  0.13636490434E+03  0.12500083297E+03 0.  0.
          5    1    3    3  501    0 -0.46827098677E+02 -0.64464172787E+01 -0.89881724625E+01  0.48115805204E+02  0.10000000000E+00 0.  1.
         -5    1    3    3    0  501  0.70838432475E+02 -0.25514051200E+02  0.46030893686E+02  0.88249099133E+02  0.10000000000E+00 0.  1.
         21    1    1    2  504  502 -0.24011333799E+02  0.31960468479E+02 -0.32752870196E+01  0.40109141118E+02  0.00000000000E+00 0. -1.
<mgrwt>
<rscale>  1 0.13123728E+03</rscale>
<asrwt>0</asrwt>
<pdfrwt beam="1">  1       21 0.16172422E-01 0.13123728E+03</pdfrwt>
<pdfrwt beam="2">  1       21 0.10977432E-01 0.13123728E+03</pdfrwt>
<totfact> 0.23353269E+06</totfact>
</mgrwt>
</event>
<event>
 6    1  0.4187588E-002  0.1263313E+03  0.7546771E-02  0.1233003E+00
         21   -1    0    0  503  502  0.00000000000E+00  0.00000000000E+00  0.76113770999E+02  0.76113770999E+02  0.00000000000E+00 0. -1.
         21   -1    0    0  504  503 -0.00000000000E+00 -0.00000000000E+00 -0.10581171258E+03  0.10581171258E+03  0.00000000000E+00 0. -1.
         25    2    1    2    0    0 -0.18023959608E+02 -0.31012285087E+01 -0.65070431715E+02  0.14210471267E+03  0.12500043016E+03 0.  0.
          5    1    3    3  501    0 -0.16798192410E+02  0.14698594474E+02 -0.10022552507E+03  0.10268102952E+03  0.10000000000E+00 0. -1.
         -5    1    3    3    0  501 -0.12257671980E+01 -0.17799822983E+02  0.35155093358E+02  0.39423683142E+02  0.10000000000E+00 0. -1.
         21    1    1    2  504  502  0.18023959608E+02  0.31012285087E+01  0.35372490132E+02  0.39820770916E+02  0.00000000000E+00 0. -1.
<mgrwt>
<rscale>  1 0.12633126E+03</rscale>
<asrwt>0</asrwt>
<pdfrwt beam="1">  1       21 0.11709811E-01 0.12633126E+03</pdfrwt>
<pdfrwt beam="2">  1       21 0.16278725E-01 0.12633126E+03</pdfrwt>
<totfact> 0.20567571E+06</totfact>
</mgrwt>
</event>
<event>
 6    1  0.4187588E-002  0.1304535E+03  0.7546771E-02  0.1226784E+00
         21   -1    0    0  503  502  0.00000000000E+00  0.00000000000E+00  0.12214683435E+02  0.12214683435E+02  0.00000000000E+00 0.  1.
         21   -1    0    0  504  503 -0.00000000000E+00 -0.00000000000E+00 -0.58066609960E+03  0.58066609960E+03  0.00000000000E+00 0.  1.
         25    2    1    2    0    0 -0.98785239020E+01  0.35996391288E+02 -0.46252296763E+03  0.48056799823E+03  0.12499911969E+03 0.  0.
          5    1    3    3  501    0  0.39489805574E+02  0.31624732881E+02 -0.38662514961E+03  0.38992125459E+03  0.10000000000E+00 0. -1.
         -5    1    3    3    0  501 -0.49368329476E+02  0.43716584063E+01 -0.75897818019E+02  0.90646743640E+02  0.10000000000E+00 0. -1.
         21    1    1    2  504  502  0.98785239020E+01 -0.35996391288E+02 -0.10592844854E+03  0.11231278481E+03  0.00000000000E+00 0.  1.
<mgrwt>
<rscale>  1 0.13045346E+03</rscale>
<asrwt>0</asrwt>
<pdfrwt beam="1">  1       21 0.18791819E-02 0.13045346E+03</pdfrwt>
<pdfrwt beam="2">  1       21 0.89333252E-01 0.13045346E+03</pdfrwt>
<totfact> 0.14579315E+06</totfact>
</mgrwt>
</event>
<event>
 6    1  0.4187588E-002  0.1260625E+03  0.7546771E-02  0.1233418E+00
         21   -1    0    0  504  502  0.00000000000E+00  0.00000000000E+00  0.19516327351E+03  0.19516327351E+03  0.00000000000E+00 0.  1.
         21   -1    0    0  502  503 -0.00000000000E+00 -0.00000000000E+00 -0.13963128323E+03  0.13963128323E+03  0.00000000000E+00 0. -1.
         25    2    1    2    0    0 -0.16013623890E+02 -0.35071281162E+01 -0.11069263285E+03  0.16776353736E+03  0.12499203735E+03 0.  0.
          5    1    3    3  501    0 -0.37030925200E+02 -0.26493483143E+02  0.69569750048E+01  0.46060868114E+02  0.10000000000E+00 0. -1.
         -5    1    3    3    0  501  0.21017301310E+02  0.22986355027E+02 -0.11764960786E+03  0.12170266924E+03  0.10000000000E+00 0. -1.
         21    1    1    2  504  503  0.16013623890E+02  0.35071281162E+01  0.16622462314E+03  0.16703101938E+03  0.00000000000E+00 0.  1.
<mgrwt>
<rscale>  1 0.12606247E+03</rscale>
<asrwt>0</asrwt>
<pdfrwt beam="1">  1       21 0.30025119E-01 0.12606247E+03</pdfrwt>
<pdfrwt beam="2">  1       21 0.21481736E-01 0.12606247E+03</pdfrwt>
<totfact> 0.21850890E+05</totfact>
</mgrwt>
</event>
<event>
 6    1  0.4187588E-002  0.1280627E+03  0.7546771E-02  0.1230359E+00
         21   -1    0    0  503  502  0.00000000000E+00  0.00000000000E+00  0.10285960219E+03  0.10285960219E+03  0.00000000000E+00 0. -1.
         21   -1    0    0  504  503 -0.00000000000E+00 -0.00000000000E+00 -0.59579460490E+02  0.59579460490E+02  0.00000000000E+00 0. -1.
         25    2    1    2    0    0 -0.27017807668E+02  0.67161036954E+01  0.41176280049E+02  0.13451963909E+03  0.12499991712E+03 0.  0.
          5    1    3    3  501    0 -0.32733361099E+01 -0.85348342830E+01  0.83308979823E+02  0.83809034386E+02  0.10000000000E+00 0.  1.
         -5    1    3    3    0  501 -0.23744471558E+02  0.15250937978E+02 -0.42132699774E+02  0.50710604700E+02  0.10000000000E+00 0.  1.
         21    1    1    2  504  502  0.27017807668E+02 -0.67161036954E+01  0.21038616516E+01  0.27919423595E+02  0.00000000000E+00 0.  1.
<mgrwt>
<rscale>  1 0.12806267E+03</rscale>
<asrwt>0</asrwt>
<pdfrwt beam="1">  1       21 0.15824554E-01 0.12806267E+03</pdfrwt>
<pdfrwt beam="2">  1       21 0.91660708E-02 0.12806267E+03</pdfrwt>
<totfact> 0.33275450E+06</totfact>
</mgrwt>
</event>
<event>
 6    1  0.4187588E-002  0.1330944E+03  0.7546771E-02  0.1222935E+00
         21   -1    0    0  504  502  0.00000000000E+00  0.00000000000E+00  0.10389730237E+03  0.10389730237E+03  0.00000000000E+00 0.  1.
         21   -1    0    0  502  503 -0.00000000000E+00 -0.00000000000E+00 -0.93753326002E+02  0.93753326002E+02  0.00000000000E+00 0.  1.
         25    2    1    2    0    0  0.43259258942E+02 -0.14816446721E+02 -0.30418430280E+02  0.13652617001E+03  0.12499289427E+03 0.  0.
          5    1    3    3  501    0 -0.36549535614E+02  0.13423807015E+02 -0.34143053155E+02  0.51786342090E+02  0.10000000000E+00 0. -1.
         -5    1    3    3    0  501  0.79808794556E+02 -0.28240253736E+02  0.37246228748E+01  0.84739827915E+02  0.10000000000E+00 0. -1.
         21    1    1    2  504  503 -0.43259258942E+02  0.14816446721E+02  0.40562406649E+02  0.61124458368E+02  0.00000000000E+00 0.  1.
<mgrwt>
<rscale>  1 0.13309438E+03</rscale>
<asrwt>0</asrwt>
<pdfrwt beam="1">  1       21 0.15984200E-01 0.13309438E+03</pdfrwt>
<pdfrwt beam="2">  1       21 0.14423589E-01 0.13309438E+03</pdfrwt>
<totfact> 0.14680551E+06</totfact>
</mgrwt>
</event>
<event>
 6    1  0.4187588E-002  0.1365826E+03  0.7546771E-02  0.1218003E+00
         21   -1    0    0  504  502  0.00000000000E+00  0.00000000000E+00  0.46491235577E+03  0.46491235577E+03  0.00000000000E+00 0.  1.
         21   -1    0    0  502  503 -0.00000000000E+00 -0.00000000000E+00 -0.68223242778E+02  0.68223242778E+02  0.00000000000E+00 0.  1.
         25    2    1    2    0    0 -0.35788321645E+01  0.54921541779E+02  0.40342323596E+01  0.13664216976E+03  0.12500249491E+03 0.  0.
          5    1    3    3  501    0 -0.56906931862E+02  0.55337547468E+02 -0.13473532069E+02  0.80512043323E+02  0.10000000000E+00 0. -1.
         -5    1    3    3    0  501  0.53328099698E+02 -0.41600568831E+00  0.17507764428E+02  0.56130126433E+02  0.10000000000E+00 0. -1.
         21    1    1    2  504  503  0.35788321645E+01 -0.54921541779E+02  0.39265488063E+03  0.39649342879E+03  0.00000000000E+00 0.  1.
<mgrwt>
<rscale>  1 0.13658260E+03</rscale>
<asrwt>0</asrwt>
<pdfrwt beam="1">  1       21 0.71524976E-01 0.13658260E+03</pdfrwt>
<pdfrwt beam="2">  1       21 0.10495884E-01 0.13658260E+03</pdfrwt>
<totfact> 0.13423012E+05</totfact>
</mgrwt>
</event>
<event>
 6    1  0.4187588E-002  0.1286854E+03  0.7546771E-02  0.1229419E+00
         21   -1    0    0  503  502  0.00000000000E+00  0.00000000000E+00  0.26456396537E+03  0.26456396537E+03  0.00000000000E+00 0.  1.
         21   -1    0    0  504  503 -0.00000000000E+00 -0.00000000000E+00 -0.27549847665E+02  0.27549847665E+02  0.00000000000E+00 0.  1.
         25    2    1    2    0    0  0.26546144825E+02 -0.15159378527E+02  0.13890743924E+03  0.18935475055E+03  0.12500176126E+03 0.  0.
          5    1    3    3  501    0  0.33365440028E+02 -0.58466004762E+02  0.33495366819E+02  0.75189599676E+02  0.10000000000E+00 0. -1.
         -5    1    3    3    0  501 -0.68192952027E+01  0.43306626235E+02  0.10541207242E+03  0.11416515088E+03  0.10000000000E+00 0. -1.
         21    1    1    2  504  502 -0.26546144825E+02  0.15159378527E+02  0.98106678466E+02  0.10275906248E+03  0.00000000000E+00 0.  1.
<mgrwt>
<rscale>  1 0.12868545E+03</rscale>
<asrwt>0</asrwt>
<pdfrwt beam="1">  1       21 0.40702147E-01 0.12868545E+03</pdfrwt>
<pdfrwt beam="2">  1       21 0.42384383E-02 0.12868545E+03</pdfrwt>
<totfact> 0.20568739E+06</totfact>
</mgrwt>
</event>
<event>
 6    1  0.4187588E-002  0.1358839E+03  0.7546771E-02  0.1218977E+00
         21   -1    0    0  503  502  0.00000000000E+00  0.00000000000E+00  0.12055160725E+03  0.12055160725E+03  0.00000000000E+00 0. -1.
         21   -1    0    0  504  503 -0.00000000000E+00 -0.00000000000E+00 -0.18146045019E+03  0.18146045019E+03  0.00000000000E+00 0.  1.
         25    2    1    2    0    0 -0.48501656545E+02  0.22075715014E+02 -0.14736528167E+03  0.20045190935E+03  0.12499877535E+03 0.  0.
          5    1    3    3  501    0 -0.24815186890E+02  0.35004910244E+01  0.18959732412E+02  0.31424964454E+02  0.10000000000E+00 0. -1.
         -5    1    3    3    0  501 -0.23686469655E+02  0.18575223990E+02 -0.16632501408E+03  0.16902694490E+03  0.10000000000E+00 0. -1.
         21    1    1    2  504  502  0.48501656545E+02 -0.22075715014E+02  0.86456438731E+02  0.10156014809E+03  0.00000000000E+00 0. -1.
<mgrwt>
<rscale>  1 0.13588393E+03</rscale>
<asrwt>0</asrwt>
<pdfrwt beam="1">  1       21 0.18546401E-01 0.13588393E+03</pdfrwt>
<pdfrwt beam="2">  1       21 0.27916992E-01 0.13588393E+03</pdfrwt>
<totfact> 0.32914970E+05</totfact>
</mgrwt>
</event>
<event>
 6    1  0.4187588E-002  0.1269514E+03  0.7546771E-02  0.1232051E+00
         21   -1    0    0  503  502  0.00000000000E+00  0.00000000000E+00  0.62209344779E+02  0.62209344779E+02  0.00000000000E+00 0.  1.
         21   -1    0    0  504  503 -0.00000000000E+00 -0.00000000000E+00 -0.98095641044E+02  0.98095641044E+02  0.00000000000E+00 0.  1.
         25    2    1    2    0    0  0.13782482229E+02  0.17376878503E+02 -0.47156421137E+02  0.13542671342E+03  0.12499901572E+03 0.  0.
          5    1    3    3  501    0 -0.41513030665E+02  0.94498805258E+01  0.20860613079E+02  0.47411044441E+02  0.10000000000E+00 0.  1.
         -5    1    3    3    0  501  0.55295512893E+02  0.79269979768E+01 -0.68017034217E+02  0.88015668984E+02  0.10000000000E+00 0.  1.
         21    1    1    2  504  502 -0.13782482229E+02 -0.17376878503E+02  0.11270124873E+02  0.24878272398E+02  0.00000000000E+00 0.  1.
<mgrwt>
<rscale>  1 0.12695143E+03</rscale>
<asrwt>0</asrwt>
<pdfrwt beam="1">  1       21 0.95706685E-02 0.12695143E+03</pdfrwt>
<pdfrwt beam="2">  1       21 0.15091637E-01 0.12695143E+03</pdfrwt>
<totfact> 0.33612716E+06</totfact>
</mgrwt>
</event>
<event>
 6    1  0.4187588E-002  0.1471272E+03  0.7546771E-02  0.1204048E+00
         21   -1    0    0  504  502  0.00000000000E+00  0.00000000000E+00  0.24291416464E+03  0.24291416464E+03  0.00000000000E+00 0. -1.
         21   -1    0    0  502  503 -0.00000000000E+00 -0.00000000000E+00 -0.67076290896E+03  0.67076290896E+03  0.00000000000E+00 0.  1.
         25    2    1    2    0    0  0.10427502027E+02  0.76891246136E+02 -0.65620558570E+03  0.67249696759E+03  0.12500161669E+03 0.  0.
          5    1    3    3  501    0  0.12836472843E+02 -0.68163649047E+01 -0.44582788945E+03  0.44606474292E+03  0.10000000000E+00 0.  1.
         -5    1    3    3    0  501 -0.24089708156E+01  0.83707611041E+02 -0.21037769625E+03  0.22643222467E+03  0.10000000000E+00 0.  1.
         21    1    1    2  504  503 -0.10427502027E+02 -0.76891246136E+02  0.22835684138E+03  0.24118010602E+03  0.00000000000E+00 0. -1.
<mgrwt>
<rscale>  1 0.14712716E+03</rscale>
<asrwt>0</asrwt>
<pdfrwt beam="1">  1       21 0.37371410E-01 0.14712716E+03</pdfrwt>
<pdfrwt beam="2">  1       21 0.10319429E+00 0.14712716E+03</pdfrwt>
<totfact> 0.54675887E+03</totfact>
</mgrwt>
</event>
<event>
 6    1  0.4187588E-002  0.1416678E+03  0.7546771E-02  0.1211102E+00
         21   -1    0    0  504  502  0.00000000000E+00  0.00000000000E+00  0.19158139125E+03  0.19158139125E+03  0.00000000000E+00 0. -1.
         21   -1    0    0  502  503 -0.00000000000E+00 -0.00000000000E+00 -0.56857716004E+02  0.56857716004E+02  0.00000000000E+00 0. -1.
         25    2    1    2    0    0 -0.62360591659E+02  0.23580867820E+02  0.84344136643E+02  0.16487476899E+03  0.12499942138E+03 0.  0.
          5    1    3    3  501    0 -0.14666779005E+02 -0.17573236122E+02  0.97813328260E+02  0.10045591182E+03  0.10000000000E+00 0.  1.
         -5    1    3    3    0  501 -0.47693812653E+02  0.41154103943E+02 -0.13469191618E+02  0.64418857174E+02  0.10000000000E+00 0.  1.
         21    1    1    2  504  503  0.62360591659E+02 -0.23580867820E+02  0.50379538604E+02  0.83564338261E+02  0.00000000000E+00 0. -1.
<mgrwt>
<rscale>  1 0.14166777E+03</rscale>
<asrwt>0</asrwt>
<pdfrwt beam="1">  1       21 0.29474060E-01 0.14166777E+03</pdfrwt>
<pdfrwt beam="2">  1       21 0.87473410E-02 0.14166777E+03</pdfrwt>
<totfact> 0.11334990E+06</totfact>
</mgrwt>
</event>
<event>
 6    1  0.4187588E-002  0.1498653E+03  0.7546771E-02  0.1200639E+00
         21   -1    0    0  503  502  0.00000000000E+00  0.00000000000E+00  0.53538050346E+02  0.53538050346E+02  0.00000000000E+00 0. -1.
         21   -1    0    0  504  503 -0.00000000000E+00 -0.00000000000E+00 -0.31705539645E+03  0.31705539645E+03  0.00000000000E+00 0. -1.
         25    2    1    2    0    0  0.80336809839E+02  0.19496681972E+02 -0.81292963068E+02  0.17049384811E+03  0.12500193108E+03 0.  0.
          5    1    3    3  501    0  0.24889762510E+02  0.70318540418E+02 -0.42829230970E+02  0.86014826802E+02  0.10000000000E+00 0. -1.
         -5    1    3    3    0  501  0.55447047329E+02 -0.50821858447E+02 -0.38463732097E+02  0.84479021303E+02  0.10000000000E+00 0. -1.
         21    1    1    2  504  502 -0.80336809839E+02 -0.19496681972E+02 -0.18222438304E+03  0.20009959869E+03  0.00000000000E+00 0. -1.
<mgrwt>
<rscale>  1 0.14986529E+03</rscale>
<asrwt>0</asrwt>
<pdfrwt beam="1">  1       21 0.82366230E-02 0.14986529E+03</pdfrwt>
<pdfrwt beam="2">  1       21 0.48777754E-01 0.14986529E+03</pdfrwt>
<totfact> 0.46089924E+05</totfact>
</mgrwt>
</event>
<event>
 6    1  0.4187588E-002  0.1329933E+03  0.7546771E-02  0.1223081E+00
         21   -1    0    0  504  502  0.00000000000E+00  0.00000000000E+00  0.26214744864E+02  0.26214744864E+02  0.00000000000E+00 0. -1.
         21   -1    0    0  502  503 -0.00000000000E+00 -0.00000000000E+00 -0.33392385949E+03  0.33392385949E+03  0.00000000000E+00 0. -1.
         25    2    1    2    0    0 -0.37428609503E+02 -0.25721999712E+02 -0.17451300541E+03  0.21941289388E+03  0.12499882745E+03 0.  0.
          5    1    3    3  501    0  0.62308752862E+01  0.21693865249E+02 -0.14801126630E+03  0.14972238493E+03  0.10000000000E+00 0. -1.
         -5    1    3    3    0  501 -0.43659484789E+02 -0.47415864961E+02 -0.26501739109E+02  0.69690508951E+02  0.10000000000E+00 0. -1.
         21    1    1    2  504  503  0.37428609503E+02  0.25721999712E+02 -0.13319610922E+03  0.14072571048E+03  0.00000000000E+00 0. -1.
<mgrwt>
<rscale>  1 0.13299334E+03</rscale>
<asrwt>0</asrwt>
<pdfrwt beam="1">  1       21 0.40330378E-02 0.13299334E+03</pdfrwt>
<pdfrwt beam="2">  1       21 0.51372899E-01 0.13299334E+03</pdfrwt>
<totfact> 0.13910495E+06</totfact>
</mgrwt>
</event>
<event>
 6    1  0.4187588E-002  0.1280509E+03  0.7546771E-02  0.1230377E+00
         21   -1    0    0  503  502  0.00000000000E+00  0.00000000000E+00  0.11035238007E+03  0.11035238007E+03  0.00000000000E+00 0.  1.
         21   -1    0    0  504  503 -0.00000000000E+00 -0.00000000000E+00 -0.66001123754E+02  0.66001123754E+02  0.00000000000E+00 0.  1.
         25    2    1    2    0    0 -0.27666396575E+02  0.24536086065E+01  0.49499132274E+01  0.12814649674E+03  0.12500229314E+03 0.  0.
          5    1    3    3  501    0 -0.85078502072E+01  0.15992865213E+02  0.62990656399E+02  0.65543787245E+02  0.10000000000E+00 0. -1.
         -5    1    3    3    0  501 -0.19158546368E+02 -0.13539256606E+02 -0.58040743171E+02  0.62602709496E+02  0.10000000000E+00 0. -1.
         21    1    1    2  504  502  0.27666396575E+02 -0.24536086065E+01  0.39401343086E+02  0.48207007080E+02  0.00000000000E+00 0.  1.
<mgrwt>
<rscale>  1 0.12805086E+03</rscale>
<asrwt>0</asrwt>
<pdfrwt beam="1">  1       21 0.16977289E-01 0.12805086E+03</pdfrwt>
<pdfrwt beam="2">  1       21 0.10154019E-01 0.12805086E+03</pdfrwt>
<totfact> 0.24496976E+06</totfact>
</mgrwt>
</event>
<event>
 6    1  0.4187588E-002  0.1327725E+03  0.7546771E-02  0.1223399E+00
         21   -1    0    0  503  502  0.00000000000E+00  0.00000000000E+00  0.67261901666E+02  0.67261901666E+02  0.00000000000E+00 0. -1.
         21   -1    0    0  504  503 -0.00000000000E+00 -0.00000000000E+00 -0.19853882661E+03  0.19853882661E+03  0.00000000000E+00 0. -1.
         25    2    1    2    0    0  0.42028352141E+02  0.15474367412E+02 -0.16350499306E+03  0.21062385988E+03  0.12499075632E+03 0.  0.
          5    1    3    3  501    0  0.11173408068E+02 -0.20870581761E+01  0.20383914153E+02  0.23339126287E+02  0.10000000000E+00 0.  1.
         -5    1    3    3    0  501  0.30854944073E+02  0.17561425588E+02 -0.18388890721E+03  0.18728473360E+03  0.10000000000E+00 0.  1.
         21    1    1    2  504  502 -0.42028352141E+02 -0.15474367412E+02  0.32228068120E+02  0.55176868389E+02  0.00000000000E+00 0. -1.
<mgrwt>
<rscale>  1 0.13277247E+03</rscale>
<asrwt>0</asrwt>
<pdfrwt beam="1">  1       21 0.10347985E-01 0.13277247E+03</pdfrwt>
<pdfrwt beam="2">  1       21 0.30544434E-01 0.13277247E+03</pdfrwt>
<totfact> 0.78875820E+05</totfact>
</mgrwt>
</event>
<event>
 6    1  0.4187588E-002  0.1262024E+03  0.7546771E-02  0.1233202E+00
         21   -1    0    0  503  502  0.00000000000E+00  0.00000000000E+00  0.13623045328E+03  0.13623045328E+03  0.00000000000E+00 0.  1.
         21   -1    0    0  504  503 -0.00000000000E+00 -0.00000000000E+00 -0.12004352576E+04  0.12004352576E+04  0.00000000000E+00 0.  1.
         25    2    1    2    0    0  0.12558675624E+02  0.11943358792E+02 -0.11965517980E+04  0.12031887807E+04  0.12500668990E+03 0.  0.
          5    1    3    3  501    0  0.52370504561E+02  0.47165579199E+02 -0.79830537528E+03  0.80141047148E+03  0.10000000000E+00 0. -1.
         -5    1    3    3    0  501 -0.39811828936E+02 -0.35222220407E+02 -0.39824642275E+03  0.40177830922E+03  0.10000000000E+00 0. -1.
         21    1    1    2  504  502 -0.12558675624E+02 -0.11943358792E+02  0.13234699369E+03  0.13347693019E+03  0.00000000000E+00 0.  1.
<mgrwt>
<rscale>  1 0.12620236E+03</rscale>
<asrwt>0</asrwt>
<pdfrwt beam="1">  1       21 0.20958532E-01 0.12620236E+03</pdfrwt>
<pdfrwt beam="2">  1       21 0.18468234E+00 0.12620236E+03</pdfrwt>
<totfact> 0.38455940E+03</totfact>
</mgrwt>
</event>
<event>
 6    1  0.4187588E-002  0.1260866E+03  0.7546771E-02  0.1233381E+00
         21   -1    0    0  504  502  0.00000000000E+00  0.00000000000E+00  0.33213360555E+02  0.33213360555E+02  0.00000000000E+00 0.  1.
         21   -1    0    0  502  503 -0.00000000000E+00 -0.00000000000E+00 -0.16723328077E+03  0.16723328077E+03  0.00000000000E+00 0.  1.
         25    2    1    2    0    0  0.52266733931E+01 -0.15603256921E+02 -0.13399605613E+03  0.18399123763E+03  0.12500821064E+03 0.  0.
          5    1    3    3  501    0  0.42418874718E+01  0.54597707024E+02 -0.46740787620E+02  0.71997322513E+02  0.10000000000E+00 0.  1.
         -5    1    3    3    0  501  0.98478592128E+00 -0.70200963945E+02 -0.87255268505E+02  0.11199391512E+03  0.10000000000E+00 0.  1.
         21    1    1    2  504  503 -0.52266733931E+01  0.15603256921E+02 -0.23864094164E-01  0.16455403696E+02  0.00000000000E+00 0.  1.
<mgrwt>
<rscale>  1 0.12608661E+03</rscale>
<asrwt>0</asrwt>
<pdfrwt beam="1">  1       21 0.51097478E-02 0.12608661E+03</pdfrwt>
<pdfrwt beam="2">  1       21 0.25728197E-01 0.12608661E+03</pdfrwt>
<totfact> 0.36710770E+06</totfact>
</mgrwt>
</event>
<event>
 6    1  0.4187588E-002  0.1301142E+03  0.7546771E-02  0.1227286E+00
         21   -1    0    0  503  502  0.00000000000E+00  0.00000000000E+00  0.10604592280E+03  0.10604592280E+03  0.00000000000E+00 0. -1.
         21   -1    0    0  504  503 -0.00000000000E+00 -0.00000000000E+00 -0.14860032995E+03  0.14860032995E+03  0.00000000000E+00 0. -1.
         25    2    1    2    0    0  0.27153321702E+02 -0.23757203665E+02 -0.11504023326E+03  0.17367772433E+03  0.12501195565E+03 0.  0.
          5    1    3    3  501    0  0.55947723793E+02 -0.45136714257E+02 -0.11748319492E+03  0.13773083119E+03  0.10000000000E+00 0. -1.
         -5    1    3    3    0  501 -0.28794402091E+02  0.21379510593E+02  0.24429616588E+01  0.35946893143E+02  0.10000000000E+00 0. -1.
         21    1    1    2  504  502 -0.27153321702E+02  0.23757203665E+02  0.72485826112E+02  0.80968528408E+02  0.00000000000E+00 0. -1.
<mgrwt>
<rscale>  1 0.13011417E+03</rscale>
<asrwt>0</asrwt>
<pdfrwt beam="1">  1       21 0.16314757E-01 0.13011417E+03</pdfrwt>
<pdfrwt beam="2">  1       21 0.22861589E-01 0.13011417E+03</pdfrwt>
<totfact> 0.60763364E+05</totfact>
</mgrwt>
</event>
<event>
 6    1  0.4187588E-002  0.1260669E+03  0.7546771E-02  0.1233411E+00
         21   -1    0    0  504  502  0.00000000000E+00  0.00000000000E+00  0.84951825458E+03  0.84951825458E+03  0.00000000000E+00 0. -1.
         21   -1    0    0  502  503 -0.00000000000E+00 -0.00000000000E+00 -0.17244519164E+02  0.17244519164E+02  0.00000000000E+00 0.  1.
         25    2    1    2    0    0  0.63650226085E+01  0.15218968179E+02  0.21475148469E+03  0.24902022167E+03  0.12498295931E+03 0.  0.
          5    1    3    3  501    0 -0.33256494130E+02  0.50395063397E+02  0.16741776404E+03  0.17797296011E+03  0.10000000000E+00 0.  1.
         -5    1    3    3    0  501  0.39621516739E+02 -0.35176095218E+02  0.47333720654E+02  0.71047261554E+02  0.10000000000E+00 0.  1.
         21    1    1    2  504  503 -0.63650226085E+01 -0.15218968179E+02  0.61752225072E+03  0.61774255207E+03  0.00000000000E+00 0. -1.
<mgrwt>
<rscale>  1 0.12606693E+03</rscale>
<asrwt>0</asrwt>
<pdfrwt beam="1">  1       21 0.13069508E+00 0.12606693E+03</pdfrwt>
<pdfrwt beam="2">  1       21 0.26530036E-02 0.12606693E+03</pdfrwt>
<totfact> 0.33696990E+05</totfact>
</mgrwt>
</event>
<event>
 6    1  0.4187588E-002  0.1265113E+03  0.7546771E-02  0.1232726E+00
         21   -1    0    0  504  502  0.00000000000E+00  0.00000000000E+00  0.34324257541E+03  0.34324257541E+03  0.00000000000E+00 0. -1.
         21   -1    0    0  502  503 -0.00000000000E+00 -0.00000000000E+00 -0.16604455421E+02  0.16604455421E+02  0.00000000000E+00 0. -1.
         25    2    1    2    0    0 -0.43113684539E+01 -0.19218173639E+02  0.24345213171E+03  0.27436115632E+03  0.12496870634E+03 0.  0.
          5    1    3    3  501    0  0.53574722085E+02  0.17565982054E+02  0.13140359049E+03  0.14298855956E+03  0.10000000000E+00 0. -1.
         -5    1    3    3    0  501 -0.57886090538E+02 -0.36784155693E+02  0.11204854122E+03  0.13137259675E+03  0.10000000000E+00 0. -1.
         21    1    1    2  504  503  0.43113684539E+01  0.19218173639E+02  0.83185988273E+02  0.85485874511E+02  0.00000000000E+00 0. -1.
<mgrwt>
<rscale>  1 0.12651128E+03</rscale>
<asrwt>0</asrwt>
<pdfrwt beam="1">  1       21 0.52806545E-01 0.12651128E+03</pdfrwt>
<pdfrwt beam="2">  1       21 0.25545319E-02 0.12651128E+03</pdfrwt>
<totfact> 0.27816825E+06</totfact>
</mgrwt>
</event>
<event>
 6    1  0.4187588E-002  0.1366773E+03  0.7546771E-02  0.1217871E+00
         21   -1    0    0  504  502  0.00000000000E+00  0.00000000000E+00  0.85250296973E+02  0.85250296973E+02  0.00000000000E+00 0.  1.
         21   -1    0    0  502  503 -0.00000000000E+00 -0.00000000000E+00 -0.46395314932E+03  0.46395314932E+03  0.00000000000E+00 0. -1.
         25    2    1    2    0    0  0.55257936748E+02 -0.15383278845E+01 -0.44346931888E+03  0.46405357129E+03  0.12499949682E+03 0.  0.
          5    1    3    3  501    0  0.70728782993E+01  0.45420910174E+02 -0.64774721079E+02  0.79428327311E+02  0.10000000000E+00 0. -1.
         -5    1    3    3    0  501  0.48185058449E+02 -0.46959238059E+02 -0.37869459780E+03  0.38462524397E+03  0.10000000000E+00 0. -1.
         21    1    1    2  504  503 -0.55257936748E+02  0.15383278845E+01  0.64766466536E+02  0.85149875008E+02  0.00000000000E+00 0.  1.
<mgrwt>
<rscale>  1 0.13667728E+03</rscale>
<asrwt>0</asrwt>
<pdfrwt beam="1">  1       21 0.13115430E-01 0.13667728E+03</pdfrwt>
<pdfrwt beam="2">  1       21 0.71377410E-01 0.13667728E+03</pdfrwt>
<totfact> 0.90863385E+04</totfact>
</mgrwt>
</event>
<event>
 6    1  0.4187588E-002  0.1298651E+03  0.7546771E-02  0.1227656E+00
         21   -1    0    0  503  502  0.00000000000E+00  0.00000000000E+00  0.12591129843E+03  0.12591129843E+03  0.00000000000E+00 0.  1.
         21   -1    0    0  504  503 -0.00000000000E+00 -0.00000000000E+00 -0.11666866648E+03  0.11666866648E+03  0.00000000000E+00 0.  1.
         25    2    1    2    0    0  0.31031797387E+02 -0.16753262570E+02 -0.75903046062E+02  0.15042015403E+03  0.12498522346E+03 0.  0.
          5    1    3    3  501    0  0.18364148707E+02 -0.60138882358E+02 -0.94176856954E+00  0.62887391877E+02  0.10000000000E+00 0. -1.
         -5    1    3    3    0  501  0.12667648679E+02  0.43385619788E+02 -0.74961277493E+02  0.87532762157E+02  0.10000000000E+00 0. -1.
         21    1    1    2  504  502 -0.31031797387E+02  0.16753262570E+02  0.85145678013E+02  0.92159810873E+02  0.00000000000E+00 0.  1.
<mgrwt>
<rscale>  1 0.12986512E+03</rscale>
<asrwt>0</asrwt>
<pdfrwt beam="1">  1       21 0.19370969E-01 0.12986512E+03</pdfrwt>
<pdfrwt beam="2">  1       21 0.17949026E-01 0.12986512E+03</pdfrwt>
<totfact> 0.69468122E+05</totfact>
</mgrwt>
</event>
<event>
 6    1  0.4187588E-002  0.1267822E+03  0.7546771E-02  0.1232310E+00
         21   -1    0    0  504  502  0.00000000000E+00  0.00000000000E+00  0.17963567712E+03  0.17963567712E+03  0.00000000000E+00 0.  1.
         21   -1    0    0  502  503 -0.00000000000E+00 -0.00000000000E+00 -0.35699762138E+02  0.35699762138E+02  0.00000000000E+00 0.  1.
         25    2    1    2    0    0 -0.53383745118E+01  0.20503828444E+02  0.84824404541E+02  0.15254152323E+03  0.12499932592E+03 0.  0.
          5    1    3    3  501    0 -0.43714055112E+02  0.54264842359E+02  0.71242907645E+02  0.99655173575E+02  0.10000000000E+00 0. -1.
         -5    1    3    3    0  501  0.38375680600E+02 -0.33761013915E+02  0.13581496896E+02  0.52886349657E+02  0.10000000000E+00 0. -1.
         21    1    1    2  504  503  0.53383745118E+01 -0.20503828444E+02  0.59111510443E+02  0.62793916028E+02  0.00000000000E+00 0.  1.
<mgrwt>
<rscale>  1 0.12678224E+03</rscale>
<asrwt>0</asrwt>
<pdfrwt beam="1">  1       21 0.27636258E-01 0.12678224E+03</pdfrwt>
<pdfrwt beam="2">  1       21 0.54922712E-02 0.12678224E+03</pdfrwt>
<totfact> 0.28380006E+06</totfact>
</mgrwt>
</event>
<event>
 6    1  0.4187588E-002  0.1411518E+03  0.7546771E-02  0.1211787E+00
         21   -1    0    0  504  502  0.00000000000E+00  0.00000000000E+00  0.23887406997E+02  0.23887406997E+02  0.00000000000E+00 0. -1.
         21   -1    0    0  502  503 -0.00000000000E+00 -0.00000000000E+00 -0.46075626095E+03  0.46075626095E+03  0.00000000000E+00 0. -1.
         25    2    1    2    0    0  0.64872403054E+02 -0.95372865982E+01 -0.33467119835E+03  0.36321982628E+03  0.12499777073E+03 0.  0.
          5    1    3    3  501    0  0.81956376526E+02  0.30519993817E+02 -0.15137992995E+03  0.17482623049E+03  0.10000000000E+00 0. -1.
         -5    1    3    3    0  501 -0.17083973472E+02 -0.40057280415E+02 -0.18329126840E+03  0.18839359579E+03  0.10000000000E+00 0. -1.
         21    1    1    2  504  503 -0.64872403054E+02  0.95372865982E+01 -0.10219765560E+03  0.12142384166E+03  0.00000000000E+00 0. -1.
<mgrwt>
<rscale>  1 0.14115180E+03</rscale>
<asrwt>0</asrwt>
<pdfrwt beam="1">  1       21 0.36749862E-02 0.14115180E+03</pdfrwt>
<pdfrwt beam="2">  1       21 0.70885568E-01 0.14115180E+03</pdfrwt>
<totfact> 0.81777716E+05</totfact>
</mgrwt>
</event>
<event>
 6    1  0.4187588E-002  0.1269667E+03  0.7546771E-02  0.1232027E+00
         21   -1    0    0  504  502  0.00000000000E+00  0.00000000000E+00  0.75153317433E+03  0.75153317433E+03  0.00000000000E+00 0.  1.
         21   -1    0    0  502  503 -0.00000000000E+00 -0.00000000000E+00 -0.14969105447E+02  0.14969105447E+02  0.00000000000E+00 0.  1.
         25    2    1    2    0    0  0.21922289761E+02  0.38500139308E+01  0.25926742343E+03  0.28868694185E+03  0.12500057659E+03 0.  0.
          5    1    3    3  501    0  0.63026234836E+01  0.15130836816E+02  0.26730715681E+03  0.26780924436E+03  0.10000000000E+00 0. -1.
         -5    1    3    3    0  501  0.15619666277E+02 -0.11280822885E+02 -0.80397333798E+01  0.20877697488E+02  0.10000000000E+00 0. -1.
         21    1    1    2  504  503 -0.21922289761E+02 -0.38500139308E+01  0.47729664545E+03  0.47781533793E+03  0.00000000000E+00 0.  1.
<mgrwt>
<rscale>  1 0.12696674E+03</rscale>
<asrwt>0</asrwt>
<pdfrwt beam="1">  1       21 0.11562046E+00 0.12696674E+03</pdfrwt>
<pdfrwt beam="2">  1       21 0.23029399E-02 0.12696674E+03</pdfrwt>
<totfact> 0.57277409E+05</totfact>
</mgrwt>
</event>
<event>
 6    1  0.4187588E-002  0.1338803E+03  0.7546771E-02  0.1221809E+00
         21   -1    0    0  504  502  0.00000000000E+00  0.00000000000E+00  0.11327304234E+03  0.11327304234E+03  0.00000000000E+00 0. -1.
         21   -1    0    0  502  503 -0.00000000000E+00 -0.00000000000E+00 -0.78726342511E+02  0.78726342511E+02  0.00000000000E+00 0. -1.
         25    2    1    2    0    0 -0.44417867562E+02  0.18027774818E+02  0.47976146574E+02  0.14221688127E+03  0.12500393215E+03 0.  0.
          5    1    3    3  501    0 -0.72629608788E+01 -0.16295563966E+02 -0.38274275101E+02  0.42228262340E+02  0.10000000000E+00 0. -1.
         -5    1    3    3    0  501 -0.37154906683E+02  0.34323338784E+02  0.86250421676E+02  0.99988618928E+02  0.10000000000E+00 0. -1.
         21    1    1    2  504  503  0.44417867562E+02 -0.18027774818E+02 -0.13429446741E+02  0.49782503587E+02  0.00000000000E+00 0. -1.
<mgrwt>
<rscale>  1 0.13388028E+03</rscale>
<asrwt>0</asrwt>
<pdfrwt beam="1">  1       21 0.17426622E-01 0.13388028E+03</pdfrwt>
<pdfrwt beam="2">  1       21 0.12111745E-01 0.13388028E+03</pdfrwt>
<totfact> 0.17140250E+06</totfact>
</mgrwt>
</event>
<event>
 6    1  0.4187588E-002  0.1282411E+03  0.7546771E-02  0.1230089E+00
         21   -1    0    0  504  502  0.00000000000E+00  0.00000000000E+00  0.10014061660E+03  0.10014061660E+03  0.00000000000E+00 0. -1.
         21   -1    0    0  502  503 -0.00000000000E+00 -0.00000000000E+00 -0.38138615505E+03  0.38138615505E+03  0.00000000000E+00 0. -1.
         25    2    1    2    0    0 -0.22928418552E+02  0.17180730993E+02 -0.36824228290E+03  0.38993352169E+03  0.12499953013E+03 0.  0.
          5    1    3    3  501    0 -0.62584805421E+01 -0.42696690691E+02 -0.27175464190E+03  0.27515953803E+03  0.10000000000E+00 0. -1.
         -5    1    3    3    0  501 -0.16669938010E+02  0.59877421685E+02 -0.96487640998E+02  0.11477398366E+03  0.10000000000E+00 0. -1.
         21    1    1    2  504  503  0.22928418552E+02 -0.17180730993E+02  0.86996744440E+02  0.91593249959E+02  0.00000000000E+00 0. -1.
<mgrwt>
<rscale>  1 0.12824107E+03</rscale>
<asrwt>0</asrwt>
<pdfrwt beam="1">  1       21 0.15406249E-01 0.12824107E+03</pdfrwt>
<pdfrwt beam="2">  1       21 0.58674793E-01 0.12824107E+03</pdfrwt>
<totfact> 0.10412398E+05</totfact>
</mgrwt>
</event>
<event>
 6    1  0.4187588E-002  0.1485993E+03  0.7546771E-02  0.1202205E+00
         21   -1    0    0  504  502  0.00000000000E+00  0.00000000000E+00  0.56546157174E+03  0.56546157174E+03  0.00000000000E+00 0.  1.
         21   -1    0    0  502  503 -0.00000000000E+00 -0.00000000000E+00 -0.24766735069E+02  0.24766735069E+02  0.00000000000E+00 0.  1.
         25    2    1    2    0    0 -0.77757542392E+02 -0.20239861905E+02  0.41740742807E+03  0.44306964234E+03  0.12500343814E+03 0.  0.
          5    1    3    3  501    0 -0.91275268977E+02  0.19136815096E+02  0.18738156302E+03  0.20930659946E+03  0.10000000000E+00 0.  1.
         -5    1    3    3    0  501  0.13517726585E+02 -0.39376677001E+02  0.23002586505E+03  0.23376304288E+03  0.10000000000E+00 0.  1.
         21    1    1    2  504  503  0.77757542392E+02  0.20239861905E+02  0.12328740860E+03  0.14715866447E+03  0.00000000000E+00 0.  1.
<mgrwt>
<rscale>  1 0.14859928E+03</rscale>
<asrwt>0</asrwt>
<pdfrwt beam="1">  1       21 0.86994079E-01 0.14859928E+03</pdfrwt>
<pdfrwt beam="2">  1       21 0.38102673E-02 0.14859928E+03</pdfrwt>
<totfact> 0.48703934E+05</totfact>
</mgrwt>
</event>
<event>
 6    1  0.4187588E-002  0.1280370E+03  0.7546771E-02  0.1230398E+00
         21   -1    0    0  503  502  0.00000000000E+00  0.00000000000E+00  0.38364519506E+03  0.38364519506E+03  0.00000000000E+00 0. -1.
         21   -1    0    0  504  503 -0.00000000000E+00 -0.00000000000E+00 -0.19225568379E+03  0.19225568379E+03  0.00000000000E+00 0. -1.
         25    2    1    2    0    0  0.90038036451E+01 -0.26201060763E+02 -0.17034983232E+03  0.21310215123E+03  0.12500358963E+03 0.  0.
          5    1    3    3  501    0  0.39375602915E+02 -0.48072450127E+02 -0.16368835159E+03  0.17508650722E+03  0.10000000000E+00 0.  1.
         -5    1    3    3    0  501 -0.30371799269E+02  0.21871389364E+02 -0.66614807311E+01  0.38015644005E+02  0.10000000000E+00 0.  1.
         21    1    1    2  504  502 -0.90038036451E+01  0.26201060763E+02  0.36173934359E+03  0.36279872762E+03  0.00000000000E+00 0. -1.
<mgrwt>
<rscale>  1 0.12803695E+03</rscale>
<asrwt>0</asrwt>
<pdfrwt beam="1">  1       21 0.59022338E-01 0.12803695E+03</pdfrwt>
<pdfrwt beam="2">  1       21 0.29577798E-01 0.12803695E+03</pdfrwt>
<totfact> 0.30535125E+04</totfact>
</mgrwt>
</event>
<event>
 6    1  0.4187588E-002  0.1265020E+03  0.7546771E-02  0.1232740E+00
         21   -1    0    0  504  502  0.00000000000E+00  0.00000000000E+00  0.63207960810E+02  0.63207960810E+02  0.00000000000E+00 0.  1.
         21   -1    0    0  502  503 -0.00000000000E+00 -0.00000000000E+00 -0.85614820262E+02  0.85614820262E+02  0.00000000000E+00 0.  1.
         25    2    1    2    0    0  0.19077897050E+02 -0.37684912906E+01 -0.25735817253E+02  0.12909337047E+03  0.12499839330E+03 0.  0.
          5    1    3    3  501    0 -0.48799013527E+02  0.27134139732E+01 -0.35231918511E+02  0.60249517994E+02  0.10000000000E+00 0. -1.
         -5    1    3    3    0  501  0.67876910577E+02 -0.64819052638E+01  0.94961012575E+01  0.68843852481E+02  0.10000000000E+00 0. -1.
         21    1    1    2  504  503 -0.19077897050E+02  0.37684912906E+01  0.33289578007E+01  0.19729410597E+02  0.00000000000E+00 0.  1.
<mgrwt>
<rscale>  1 0.12650204E+03</rscale>
<asrwt>0</asrwt>
<pdfrwt beam="1">  1       21 0.97243016E-02 0.12650204E+03</pdfrwt>
<pdfrwt beam="2">  1       21 0.13171511E-01 0.12650204E+03</pdfrwt>
<totfact> 0.41720261E+06</totfact>
</mgrwt>
</event>
<event>
 6    1  0.4187588E-002  0.2020482E+03  0.7546771E-02  0.1148022E+00
         21   -1    0    0  504  502  0.00000000000E+00  0.00000000000E+00  0.37913021402E+02  0.37913021402E+02  0.00000000000E+00 0.  1.
         21   -1    0    0  502  503 -0.00000000000E+00 -0.00000000000E+00 -0.99012237915E+03  0.99012237915E+03  0.00000000000E+00 0.  1.
         25    2    1    2    0    0  0.15659895541E+03 -0.26015767136E+02 -0.71198148714E+03  0.74009533250E+03  0.12499364055E+03 0.  0.
          5    1    3    3  501    0  0.48772041714E+02  0.45113296254E+02 -0.33705319313E+03  0.34353862454E+03  0.10000000000E+00 0.  1.
         -5    1    3    3    0  501  0.10782691370E+03 -0.71129063390E+02 -0.37492829401E+03  0.39655670795E+03  0.10000000000E+00 0.  1.
         21    1    1    2  504  503 -0.15659895541E+03  0.26015767136E+02 -0.24022787061E+03  0.28794006806E+03  0.00000000000E+00 0.  1.
<mgrwt>
<rscale>  1 0.20204817E+03</rscale>
<asrwt>0</asrwt>
<pdfrwt beam="1">  1       21 0.58327720E-02 0.20204817E+03</pdfrwt>
<pdfrwt beam="2">  1       21 0.15232653E+00 0.20204817E+03</pdfrwt>
<totfact> 0.59087256E+04</totfact>
</mgrwt>
</event>
<event>
 6    1  0.4187588E-002  0.1712546E+03  0.7546771E-02  0.1176546E+00
         21   -1    0    0  503  502  0.00000000000E+00  0.00000000000E+00  0.58489424089E+03  0.58489424089E+03  0.00000000000E+00 0.  1.
         21   -1    0    0  504  503 -0.00000000000E+00 -0.00000000000E+00 -0.48469460172E+02  0.48469460172E+02  0.00000000000E+00 0.  1.
         25    2    1    2    0    0 -0.22533196782E+02  0.11487209234E+03  0.14367959190E+03  0.22354407501E+03  0.12499914315E+03 0.  0.
          5    1    3    3  501    0  0.13635447338E+02  0.44547107996E+02  0.13639101871E+03  0.14412803419E+03  0.10000000000E+00 0. -1.
         -5    1    3    3    0  501 -0.36168644121E+02  0.70324984346E+02  0.72885731921E+01  0.79416040823E+02  0.10000000000E+00 0. -1.
         21    1    1    2  504  502  0.22533196782E+02 -0.11487209234E+03  0.39274518881E+03  0.40981962605E+03  0.00000000000E+00 0.  1.
<mgrwt>
<rscale>  1 0.17125457E+03</rscale>
<asrwt>0</asrwt>
<pdfrwt beam="1">  1       21 0.89983724E-01 0.17125457E+03</pdfrwt>
<pdfrwt beam="2">  1       21 0.74568404E-02 0.17125457E+03</pdfrwt>
<totfact> 0.14361950E+05</totfact>
</mgrwt>
</event>
<event>
 6    1  0.4187588E-002  0.1261679E+03  0.7546771E-02  0.1233255E+00
         21   -1    0    0  503  502  0.00000000000E+00  0.00000000000E+00  0.34090624073E+01  0.34090624073E+01  0.00000000000E+00 0. -1.
         21   -1    0    0  504  503 -0.00000000000E+00 -0.00000000000E+00 -0.15912983299E+04  0.15912983299E+04  0.00000000000E+00 0. -1.
         25    2    1    2    0    0 -0.14204206249E+02  0.95783128035E+01 -0.14898319823E+04  0.14951647646E+04  0.12499933707E+03 0.  0.
          5    1    3    3  501    0  0.50965744488E+02  0.27912890435E+02 -0.74464098184E+03  0.74690483891E+03  0.10000000000E+00 0. -1.
         -5    1    3    3    0  501 -0.65169950736E+02 -0.18334577632E+02 -0.74519100044E+03  0.74825992567E+03  0.10000000000E+00 0. -1.
         21    1    1    2  504  502  0.14204206249E+02 -0.95783128035E+01 -0.98057285173E+02  0.99542627687E+02  0.00000000000E+00 0. -1.
<mgrwt>
<rscale>  1 0.12616790E+03</rscale>
<asrwt>0</asrwt>
<pdfrwt beam="1">  1       21 0.52447153E-03 0.12616790E+03</pdfrwt>
<pdfrwt beam="2">  1       21 0.24481495E+00 0.12616790E+03</pdfrwt>
<totfact> 0.76320518E+05</totfact>
</mgrwt>
</event>
<event>
 6    1  0.4187588E-002  0.1283154E+03  0.7546771E-02  0.1229977E+00
         21   -1    0    0  504  502  0.00000000000E+00  0.00000000000E+00  0.23837980930E+03  0.23837980930E+03  0.00000000000E+00 0. -1.
         21   -1    0    0  502  503 -0.00000000000E+00 -0.00000000000E+00 -0.13831177062E+03  0.13831177062E+03  0.00000000000E+00 0. -1.
         25    2    1    2    0    0  0.26048399223E+02 -0.12589703768E+02 -0.10732968294E+03  0.16728567103E+03  0.12501126009E+03 0.  0.
          5    1    3    3  501    0 -0.42480229482E+01  0.41531587999E+02  0.17719856991E+01  0.41785983703E+02  0.10000000000E+00 0. -1.
         -5    1    3    3    0  501  0.30296422171E+02 -0.54121291767E+02 -0.10910166864E+03  0.12549968733E+03  0.10000000000E+00 0. -1.
         21    1    1    2  504  503 -0.26048399223E+02  0.12589703768E+02  0.20739772162E+03  0.20940590889E+03  0.00000000000E+00 0. -1.
<mgrwt>
<rscale>  1 0.12831537E+03</rscale>
<asrwt>0</asrwt>
<pdfrwt beam="1">  1       21 0.36673817E-01 0.12831537E+03</pdfrwt>
<pdfrwt beam="2">  1       21 0.21278734E-01 0.12831537E+03</pdfrwt>
<totfact> 0.15043921E+05</totfact>
</mgrwt>
</event>
<event>
 6    1  0.4187588E-002  0.1453947E+03  0.7546771E-02  0.1206249E+00
         21   -1    0    0  503  502  0.00000000000E+00  0.00000000000E+00  0.79225710089E+03  0.79225710089E+03  0.00000000000E+00 0.  1.
         21   -1    0    0  504  503 -0.00000000000E+00 -0.00000000000E+00 -0.37474886024E+02  0.37474886024E+02  0.00000000000E+00 0. -1.
         25    2    1    2    0    0 -0.51819345745E+02  0.53185969945E+02  0.11425722386E+03  0.18491708626E+03  0.12500249436E+03 0.  0.
          5    1    3    3  501    0 -0.28139476764E+02 -0.28520288584E+02  0.86677511049E+02  0.95489465048E+02  0.10000000000E+00 0.  1.
         -5    1    3    3    0  501 -0.23679868980E+02  0.81706258529E+02  0.27579712807E+02  0.89427621216E+02  0.10000000000E+00 0.  1.
         21    1    1    2  504  502  0.51819345745E+02 -0.53185969945E+02  0.64052499101E+03  0.64481490065E+03  0.00000000000E+00 0.  1.
<mgrwt>
<rscale>  1 0.14539469E+03</rscale>
<asrwt>0</asrwt>
<pdfrwt beam="1">  1       21 0.12188570E+00 0.14539469E+03</pdfrwt>
<pdfrwt beam="2">  1       21 0.57653677E-02 0.14539469E+03</pdfrwt>
<totfact> 0.10946848E+05</totfact>
</mgrwt>
</event>
<event>
 6    1  0.4187588E-002  0.1268637E+03  0.7546771E-02  0.1232185E+00
         21   -1    0    0  504  502  0.00000000000E+00  0.00000000000E+00  0.83368999027E+02  0.83368999027E+02  0.00000000000E+00 0.  1.
         21   -1    0    0  502  503 -0.00000000000E+00 -0.00000000000E+00 -0.28109864052E+03  0.28109864052E+03  0.00000000000E+00 0.  1.
         25    2    1    2    0    0 -0.31884181203E+00  0.21665345056E+02 -0.26499577744E+03  0.29379783070E+03  0.12499965770E+03 0.  0.
          5    1    3    3  501    0 -0.47289617725E+02 -0.29964578891E+02 -0.99171988783E+02  0.11388273483E+03  0.10000000000E+00 0. -1.
         -5    1    3    3    0  501  0.46970775913E+02  0.51629923946E+02 -0.16582378866E+03  0.17991509587E+03  0.10000000000E+00 0. -1.
         21    1    1    2  504  503  0.31884181203E+00 -0.21665345056E+02  0.67266135952E+02  0.70669808847E+02  0.00000000000E+00 0.  1.
<mgrwt>
<rscale>  1 0.12686372E+03</rscale>
<asrwt>0</asrwt>
<pdfrwt beam="1">  1       21 0.12826000E-01 0.12686372E+03</pdfrwt>
<pdfrwt beam="2">  1       21 0.43245945E-01 0.12686372E+03</pdfrwt>
<totfact> 0.27174914E+05</totfact>
</mgrwt>
</event>
<event>
 6    1  0.4187588E-002  0.1269880E+03  0.7546771E-02  0.1231995E+00
         21   -1    0    0  504  502  0.00000000000E+00  0.00000000000E+00  0.63479579821E+02  0.63479579821E+02  0.00000000000E+00 0.  1.
         21   -1    0    0  502  503 -0.00000000000E+00 -0.00000000000E+00 -0.23636568621E+03  0.23636568621E+03  0.00000000000E+00 0.  1.
         25    2    1    2    0    0  0.85841133370E+01  0.20683024069E+02 -0.21639945033E+03  0.25090769778E+03  0.12499790484E+03 0.  0.
          5    1    3    3  501    0 -0.45557841781E+01 -0.52404410383E+02 -0.95282756289E+02  0.10883837119E+03  0.10000000000E+00 0.  1.
         -5    1    3    3    0  501  0.13139897515E+02  0.73087434452E+02 -0.12111669404E+03  0.14206932659E+03  0.10000000000E+00 0.  1.
         21    1    1    2  504  503 -0.85841133370E+01 -0.20683024069E+02  0.43513343938E+02  0.48937568259E+02  0.00000000000E+00 0.  1.
<mgrwt>
<rscale>  1 0.12698799E+03</rscale>
<asrwt>0</asrwt>
<pdfrwt beam="1">  1       21 0.97660890E-02 0.12698799E+03</pdfrwt>
<pdfrwt beam="2">  1       21 0.36363952E-01 0.12698799E+03</pdfrwt>
<totfact> 0.62086907E+05</totfact>
</mgrwt>
</event>
<event>
 6    1  0.4187588E-002  0.1261638E+03  0.7546771E-02  0.1233262E+00
         21   -1    0    0  504  502  0.00000000000E+00  0.00000000000E+00  0.34136356347E+03  0.34136356347E+03  0.00000000000E+00 0.  1.
         21   -1    0    0  502  503 -0.00000000000E+00 -0.00000000000E+00 -0.16097417868E+02  0.16097417868E+02  0.00000000000E+00 0.  1.
         25    2    1    2    0    0 -0.13842460016E+02  0.99701278602E+01  0.24698426446E+03  0.27734188209E+03  0.12500510199E+03 0.  0.
          5    1    3    3  501    0  0.55955641903E+02  0.52401850697E+01  0.11124546353E+03  0.12463569535E+03  0.10000000000E+00 0.  1.
         -5    1    3    3    0  501 -0.69798101919E+02  0.47299427904E+01  0.13573880094E+03  0.15270618674E+03  0.10000000000E+00 0.  1.
         21    1    1    2  504  503  0.13842460016E+02 -0.99701278602E+01  0.78281881140E+02  0.80119099244E+02  0.00000000000E+00 0.  1.
<mgrwt>
<rscale>  1 0.12616375E+03</rscale>
<asrwt>0</asrwt>
<pdfrwt beam="1">  1       21 0.52517466E-01 0.12616375E+03</pdfrwt>
<pdfrwt beam="2">  1       21 0.24765261E-02 0.12616375E+03</pdfrwt>
<totfact> 0.29589531E+06</totfact>
</mgrwt>
</event>
<event>
 6    1  0.4187588E-002  0.1297734E+03  0.7546771E-02  0.1227792E+00
         21   -1    0    0  503  502  0.00000000000E+00  0.00000000000E+00  0.11486317532E+03  0.11486317532E+03  0.00000000000E+00 0.  1.
         21   -1    0    0  504  503 -0.00000000000E+00 -0.00000000000E+00 -0.92928025292E+02  0.92928025292E+02  0.00000000000E+00 0.  1.
         25    2    1    2    0    0 -0.31607318649E+02  0.14705881944E+02 -0.40787121035E+02  0.13603209775E+03  0.12500342724E+03 0.  0.
          5    1    3    3  501    0 -0.14225978595E+02 -0.50780015427E+02  0.68924015739E+01  0.53183678259E+02  0.10000000000E+00 0. -1.
         -5    1    3    3    0  501 -0.17381340054E+02  0.65485897370E+02 -0.47679522609E+02  0.82848419494E+02  0.10000000000E+00 0. -1.
         21    1    1    2  504  502  0.31607318649E+02 -0.14705881944E+02  0.62722271067E+02  0.71759102863E+02  0.00000000000E+00 0.  1.
<mgrwt>
<rscale>  1 0.12977343E+03</rscale>
<asrwt>0</asrwt>
<pdfrwt beam="1">  1       21 0.17671258E-01 0.12977343E+03</pdfrwt>
<pdfrwt beam="2">  1       21 0.14296619E-01 0.12977343E+03</pdfrwt>
<totfact> 0.12419868E+06</totfact>
</mgrwt>
</event>
<event>
 6    1  0.4187588E-002  0.2028024E+03  0.7546771E-02  0.1147396E+00
         21   -1    0    0  503  502  0.00000000000E+00  0.00000000000E+00  0.15226938972E+03  0.15226938972E+03  0.00000000000E+00 0. -1.
         21   -1    0    0  504  503 -0.00000000000E+00 -0.00000000000E+00 -0.23354470677E+03  0.23354470677E+03  0.00000000000E+00 0. -1.
         25    2    1    2    0    0  0.13770758620E+03  0.80880281747E+02 -0.97997195219E+02  0.22523819393E+03  0.12499517776E+03 0.  0.
          5    1    3    3  501    0  0.14270898767E+02 -0.28197072164E+02 -0.39157116931E+02  0.50319213394E+02  0.10000000000E+00 0. -1.
         -5    1    3    3    0  501  0.12343668743E+03  0.10907735391E+03 -0.58840078287E+02  0.17491898054E+03  0.10000000000E+00 0. -1.
         21    1    1    2  504  502 -0.13770758620E+03 -0.80880281747E+02  0.16721878172E+02  0.16057590255E+03  0.00000000000E+00 0. -1.
<mgrwt>
<rscale>  1 0.20280235E+03</rscale>
<asrwt>0</asrwt>
<pdfrwt beam="1">  1       21 0.23426060E-01 0.20280235E+03</pdfrwt>
<pdfrwt beam="2">  1       21 0.35929955E-01 0.20280235E+03</pdfrwt>
<totfact> 0.12755858E+05</totfact>
</mgrwt>
</event>
<event>
 6    1  0.4187588E-002  0.1338302E+03  0.7546771E-02  0.1221881E+00
         21   -1    0    0  504  502  0.00000000000E+00  0.00000000000E+00  0.32111908551E+02  0.32111908551E+02  0.00000000000E+00 0.  1.
         21   -1    0    0  502  503 -0.00000000000E+00 -0.00000000000E+00 -0.42593494096E+03  0.42593494096E+03  0.00000000000E+00 0.  1.
         25    2    1    2    0    0  0.47650234101E+02  0.35771033455E+01 -0.38736035543E+03  0.40982748958E+03  0.12500874283E+03 0.  0.
          5    1    3    3  501    0  0.14375093863E+02  0.39326724274E+02 -0.33730186926E+03  0.33989085833E+03  0.10000000000E+00 0. -1.
         -5    1    3    3    0  501  0.33275140238E+02 -0.35749620929E+02 -0.50058486161E+02  0.69936631254E+02  0.10000000000E+00 0. -1.
         21    1    1    2  504  503 -0.47650234101E+02 -0.35771033455E+01 -0.64626769840E+01  0.48219359929E+02  0.00000000000E+00 0.  1.
<mgrwt>
<rscale>  1 0.13383021E+03</rscale>
<asrwt>0</asrwt>
<pdfrwt beam="1">  1       21 0.49402936E-02 0.13383021E+03</pdfrwt>
<pdfrwt beam="2">  1       21 0.65528452E-01 0.13383021E+03</pdfrwt>
<totfact> 0.59234232E+05</totfact>
</mgrwt>
</event>
<event>
 6    1  0.4187588E-002  0.1303911E+03  0.7546771E-02  0.1226877E+00
         21   -1    0    0  504  502  0.00000000000E+00  0.00000000000E+00  0.11372898507E+03  0.11372898507E+03  0.00000000000E+00 0.  1.
         21   -1    0    0  502  503 -0.00000000000E+00 -0.00000000000E+00 -0.76817279690E+02  0.76817279690E+02  0.00000000000E+00 0.  1.
         25    2    1    2    0    0 -0.10200324601E+02  0.35681188770E+02 -0.99496256997E+01  0.13077019760E+03  0.12499862270E+03 0.  0.
          5    1    3    3  501    0  0.30539011693E+02 -0.34080965295E+02  0.11499689037E+02  0.47184703862E+02  0.10000000000E+00 0.  1.
         -5    1    3    3    0  501 -0.40739336293E+02  0.69762154065E+02 -0.21449314737E+02  0.83585493742E+02  0.10000000000E+00 0.  1.
         21    1    1    2  504  503  0.10200324601E+02 -0.35681188770E+02  0.46861331075E+02  0.59776067152E+02  0.00000000000E+00 0.  1.
<mgrwt>
<rscale>  1 0.13039114E+03</rscale>
<asrwt>0</asrwt>
<pdfrwt beam="1">  1       21 0.17496767E-01 0.13039114E+03</pdfrwt>
<pdfrwt beam="2">  1       21 0.11818043E-01 0.13039114E+03</pdfrwt>
<totfact> 0.17760652E+06</totfact>
</mgrwt>
</event>
<event>
 6    1  0.4187588E-002  0.1282712E+03  0.7546771E-02  0.1230044E+00
         21   -1    0    0  504  502  0.00000000000E+00  0.00000000000E+00  0.75818269183E+03  0.75818269183E+03  0.00000000000E+00 0. -1.
         21   -1    0    0  502  503 -0.00000000000E+00 -0.00000000000E+00 -0.10296472460E+02  0.10296472460E+02  0.00000000000E+00 0. -1.
         25    2    1    2    0    0  0.13678731496E+02  0.25273320088E+02  0.41540571303E+03  0.43475901881E+03  0.12501059801E+03 0.  0.
          5    1    3    3  501    0 -0.40845508569E+02  0.39626269466E+01  0.32144343852E+03  0.32405239106E+03  0.10000000000E+00 0. -1.
         -5    1    3    3    0  501  0.54524240065E+02  0.21310693141E+02  0.93962274510E+02  0.11070662775E+03  0.10000000000E+00 0. -1.
         21    1    1    2  504  503 -0.13678731496E+02 -0.25273320088E+02  0.33248050634E+03  0.33372014548E+03  0.00000000000E+00 0. -1.
<mgrwt>
<rscale>  1 0.12827119E+03</rscale>
<asrwt>0</asrwt>
<pdfrwt beam="1">  1       21 0.11664345E+00 0.12827119E+03</pdfrwt>
<pdfrwt beam="2">  1       21 0.15840733E-02 0.12827119E+03</pdfrwt>
<totfact> 0.10243071E+06</totfact>
</mgrwt>
</event>
<event>
 6    1  0.4187588E-002  0.1265972E+03  0.7546771E-02  0.1232594E+00
         21   -1    0    0  504  502  0.00000000000E+00  0.00000000000E+00  0.19888528372E+03  0.19888528372E+03  0.00000000000E+00 0.  1.
         21   -1    0    0  502  503 -0.00000000000E+00 -0.00000000000E+00 -0.14538841868E+03  0.14538841868E+03  0.00000000000E+00 0.  1.
         25    2    1    2    0    0 -0.18245300941E+02 -0.86882790326E+01 -0.11711995659E+03  0.17246428176E+03  0.12497386549E+03 0.  0.
          5    1    3    3  501    0  0.30768818815E+02 -0.45338530217E+02 -0.21343523867E+02  0.58803558945E+02  0.10000000000E+00 0. -1.
         -5    1    3    3    0  501 -0.49014119755E+02  0.36650251185E+02 -0.95776432719E+02  0.11366072282E+03  0.10000000000E+00 0. -1.
         21    1    1    2  504  503  0.18245300941E+02  0.86882790326E+01  0.17061682162E+03  0.17180942064E+03  0.00000000000E+00 0.  1.
<mgrwt>
<rscale>  1 0.12659717E+03</rscale>
<asrwt>0</asrwt>
<pdfrwt beam="1">  1       21 0.30597736E-01 0.12659717E+03</pdfrwt>
<pdfrwt beam="2">  1       21 0.22367449E-01 0.12659717E+03</pdfrwt>
<totfact> 0.19537361E+05</totfact>
</mgrwt>
</event>
<event>
 6    1  0.4187588E-002  0.1465967E+03  0.7546771E-02  0.1204718E+00
         21   -1    0    0  504  502  0.00000000000E+00  0.00000000000E+00  0.56469526642E+03  0.56469526642E+03  0.00000000000E+00 0. -1.
         21   -1    0    0  502  503 -0.00000000000E+00 -0.00000000000E+00 -0.49575775800E+02  0.49575775800E+02  0.00000000000E+00 0.  1.
         25    2    1    2    0    0  0.61727385580E+02 -0.45317332649E+02  0.69710376776E+02  0.16232722993E+03  0.12500664854E+03 0.  0.
          5    1    3    3  501    0 -0.27123207722E+02  0.15660896902E+02  0.39499685332E+02  0.50409991373E+02  0.10000000000E+00 0.  1.
         -5    1    3    3    0  501  0.88850593302E+02 -0.60978229552E+02  0.30210691444E+02  0.11191723856E+03  0.10000000000E+00 0.  1.
         21    1    1    2  504  503 -0.61727385580E+02  0.45317332649E+02  0.44540911385E+03  0.45194381229E+03  0.00000000000E+00 0. -1.
<mgrwt>
<rscale>  1 0.14659670E+03</rscale>
<asrwt>0</asrwt>
<pdfrwt beam="1">  1       21 0.86876191E-01 0.14659670E+03</pdfrwt>
<pdfrwt beam="2">  1       21 0.76270428E-02 0.14659670E+03</pdfrwt>
<totfact> 0.15102112E+05</totfact>
</mgrwt>
</event>
<event>
 6    1  0.4187588E-002  0.1273829E+03  0.7546771E-02  0.1231391E+00
         21   -1    0    0  504  502  0.00000000000E+00  0.00000000000E+00  0.15210590848E+04  0.15210590848E+04  0.00000000000E+00 0. -1.
         21   -1    0    0  502  503 -0.00000000000E+00 -0.00000000000E+00 -0.54741710380E+02  0.54741710380E+02  0.00000000000E+00 0. -1.
         25    2    1    2    0    0 -0.19518636322E+02  0.14831602441E+02  0.19607398066E+02  0.12888313710E+03  0.12500183748E+03 0.  0.
          5    1    3    3  501    0  0.36841593439E+02 -0.87862373107E+01  0.48295318474E+02  0.61375473601E+02  0.10000000000E+00 0.  1.
         -5    1    3    3    0  501 -0.56360229761E+02  0.23617839752E+02 -0.28687920407E+02  0.67507663495E+02  0.10000000000E+00 0.  1.
         21    1    1    2  504  503  0.19518636322E+02 -0.14831602441E+02  0.14467099764E+04  0.14469176581E+04  0.00000000000E+00 0. -1.
<mgrwt>
<rscale>  1 0.12738294E+03</rscale>
<asrwt>0</asrwt>
<pdfrwt beam="1">  1       21 0.23400906E+00 0.12738294E+03</pdfrwt>
<pdfrwt beam="2">  1       21 0.84218027E-02 0.12738294E+03</pdfrwt>
<totfact> 0.97311120E+03</totfact>
</mgrwt>
</event>
<event>
 6    1  0.4187588E-002  0.1291445E+03  0.7546771E-02  0.1228731E+00
         21   -1    0    0  503  502  0.00000000000E+00  0.00000000000E+00  0.23653365423E+02  0.23653365423E+02  0.00000000000E+00 0.  1.
         21   -1    0    0  504  503 -0.00000000000E+00 -0.00000000000E+00 -0.33554157460E+03  0.33554157460E+03  0.00000000000E+00 0.  1.
         25    2    1    2    0    0  0.17906731908E+02 -0.27043592504E+02 -0.29627426824E+03  0.32319768881E+03  0.12500518826E+03 0.  0.
          5    1    3    3  501    0  0.40418202253E+02  0.31512149691E+01 -0.27870528183E+03  0.28163843017E+03  0.10000000000E+00 0. -1.
         -5    1    3    3    0  501 -0.22511470345E+02 -0.30194807473E+02 -0.17568986407E+02  0.41559258640E+02  0.10000000000E+00 0. -1.
         21    1    1    2  504  502 -0.17906731908E+02  0.27043592504E+02 -0.15613940941E+02  0.35997251212E+02  0.00000000000E+00 0.  1.
<mgrwt>
<rscale>  1 0.12914451E+03</rscale>
<asrwt>0</asrwt>
<pdfrwt beam="1">  1       21 0.36389794E-02 0.12914451E+03</pdfrwt>
<pdfrwt beam="2">  1       21 0.51621779E-01 0.12914451E+03</pdfrwt>
<totfact> 0.16324374E+06</totfact>
</mgrwt>
</event>
<event>
 6    1  0.4187588E-002  0.1266064E+03  0.7546771E-02  0.1232580E+00
         21   -1    0    0  504  502  0.00000000000E+00  0.00000000000E+00  0.11771842012E+03  0.11771842012E+03  0.00000000000E+00 0. -1.
         21   -1    0    0  502  503 -0.00000000000E+00 -0.00000000000E+00 -0.45745505625E+02  0.45745505625E+02  0.00000000000E+00 0. -1.
         25    2    1    2    0    0  0.16617676917E+02  0.11262095305E+02  0.60174112451E+02  0.14017887246E+03  0.12500484190E+03 0.  0.
          5    1    3    3  501    0 -0.21487171137E+02 -0.30587490937E+02  0.73118129373E+02  0.82119205843E+02  0.10000000000E+00 0.  1.
         -5    1    3    3    0  501  0.38104848054E+02  0.41849586241E+02 -0.12944016923E+02  0.58059666619E+02  0.10000000000E+00 0.  1.
         21    1    1    2  504  503 -0.16617676917E+02 -0.11262095305E+02  0.11798802048E+02  0.23285053287E+02  0.00000000000E+00 0.  1.
<mgrwt>
<rscale>  1 0.12660645E+03</rscale>
<asrwt>0</asrwt>
<pdfrwt beam="1">  1       21 0.18110526E-01 0.12660645E+03</pdfrwt>
<pdfrwt beam="2">  1       21 0.70377701E-02 0.12660645E+03</pdfrwt>
<totfact> 0.41028140E+06</totfact>
</mgrwt>
</event>
<event>
 6    1  0.4187588E-002  0.1561577E+03  0.7546771E-02  0.1193104E+00
         21   -1    0    0  503  502  0.00000000000E+00  0.00000000000E+00  0.28935479063E+03  0.28935479063E+03  0.00000000000E+00 0. -1.
         21   -1    0    0  504  503 -0.00000000000E+00 -0.00000000000E+00 -0.53981150643E+02  0.53981150643E+02  0.00000000000E+00 0. -1.
         25    2    1    2    0    0 -0.88555069259E+02 -0.30260190541E+02  0.15405392517E+03  0.21935781642E+03  0.12501024095E+03 0.  0.
          5    1    3    3  501    0 -0.29161658749E+01 -0.57086589691E+01 -0.21530743752E+02  0.22464989142E+02  0.10000000000E+00 0.  1.
         -5    1    3    3    0  501 -0.85638903384E+02 -0.24551531571E+02  0.17558466892E+03  0.19689282728E+03  0.10000000000E+00 0.  1.
         21    1    1    2  504  502  0.88555069259E+02  0.30260190541E+02  0.81319714825E+02  0.12397812485E+03  0.00000000000E+00 0. -1.
<mgrwt>
<rscale>  1 0.15615774E+03</rscale>
<asrwt>0</asrwt>
<pdfrwt beam="1">  1       21 0.44516120E-01 0.15615774E+03</pdfrwt>
<pdfrwt beam="2">  1       21 0.83047926E-02 0.15615774E+03</pdfrwt>
<totfact> 0.54777468E+05</totfact>
</mgrwt>
</event>
<event>
 6    1  0.4187588E-002  0.1687165E+03  0.7546771E-02  0.1179193E+00
         21   -1    0    0  504  502  0.00000000000E+00  0.00000000000E+00  0.12213517099E+03  0.12213517099E+03  0.00000000000E+00 0. -1.
         21   -1    0    0  502  503 -0.00000000000E+00 -0.00000000000E+00 -0.25543403873E+03  0.25543403873E+03  0.00000000000E+00 0.  1.
         25    2    1    2    0    0 -0.11224756780E+03  0.15556892067E+02 -0.18726191402E+03  0.25205608798E+03  0.12499485460E+03 0.  0.
          5    1    3    3  501    0 -0.13236437606E+03  0.25277413963E+02 -0.18599051190E+03  0.22967750482E+03  0.10000000000E+00 0.  1.
         -5    1    3    3    0  501  0.20116808263E+02 -0.97205218955E+01 -0.12714021218E+01  0.22378583154E+02  0.10000000000E+00 0.  1.
         21    1    1    2  504  503  0.11224756780E+03 -0.15556892067E+02  0.53963046275E+02  0.12551312174E+03  0.00000000000E+00 0. -1.
<mgrwt>
<rscale>  1 0.16871647E+03</rscale>
<asrwt>0</asrwt>
<pdfrwt beam="1">  1       21 0.18790026E-01 0.16871647E+03</pdfrwt>
<pdfrwt beam="2">  1       21 0.39297544E-01 0.16871647E+03</pdfrwt>
<totfact> 0.16310266E+05</totfact>
</mgrwt>
</event>
<event>
 6    1  0.4187588E-002  0.1268218E+03  0.7546771E-02  0.1232249E+00
         21   -1    0    0  504  502  0.00000000000E+00  0.00000000000E+00  0.47828763795E+02  0.47828763795E+02  0.00000000000E+00 0.  1.
         21   -1    0    0  502  503 -0.00000000000E+00 -0.00000000000E+00 -0.11851546288E+03  0.11851546288E+03  0.00000000000E+00 0.  1.
         25    2    1    2    0    0  0.68961071232E+01 -0.20318585702E+02 -0.70040958827E+02  0.14487755020E+03  0.12499346952E+03 0.  0.
          5    1    3    3  501    0  0.45841174076E+02  0.14877688305E+02 -0.78096093971E+02  0.91770195289E+02  0.10000000000E+00 0.  1.
         -5    1    3    3    0  501 -0.38945066953E+02 -0.35196274007E+02  0.80551351442E+01  0.53107354916E+02  0.10000000000E+00 0.  1.
         21    1    1    2  504  503 -0.68961071232E+01  0.20318585702E+02 -0.64574026261E+00  0.21466676475E+02  0.00000000000E+00 0.  1.
<mgrwt>
<rscale>  1 0.12682180E+03</rscale>
<asrwt>0</asrwt>
<pdfrwt beam="1">  1       21 0.73582714E-02 0.12682180E+03</pdfrwt>
<pdfrwt beam="2">  1       21 0.18233148E-01 0.12682180E+03</pdfrwt>
<totfact> 0.37551443E+06</totfact>
</mgrwt>
</event>
<event>
 6    1  0.4187588E-002  0.1277456E+03  0.7546771E-02  0.1230840E+00
         21   -1    0    0  503  502  0.00000000000E+00  0.00000000000E+00  0.18182572296E+03  0.18182572296E+03  0.00000000000E+00 0. -1.
         21   -1    0    0  504  503 -0.00000000000E+00 -0.00000000000E+00 -0.36195305099E+02  0.36195305099E+02  0.00000000000E+00 0. -1.
         25    2    1    2    0    0  0.55925383187E+01 -0.25730051774E+02  0.89369350733E+02  0.15590323895E+03  0.12500250804E+03 0.  0.
          5    1    3    3  501    0 -0.31928712148E+02  0.20242377909E+02  0.88852023972E+02  0.96560285246E+02  0.10000000000E+00 0. -1.
         -5    1    3    3    0  501  0.37521250467E+02 -0.45972429684E+02  0.51732676068E+00  0.59342953706E+02  0.10000000000E+00 0. -1.
         21    1    1    2  504  502 -0.55925383187E+01  0.25730051774E+02  0.56261067133E+02  0.62117789111E+02  0.00000000000E+00 0.  1.
<mgrwt>
<rscale>  1 0.12774560E+03</rscale>
<asrwt>0</asrwt>
<pdfrwt beam="1">  1       21 0.27973188E-01 0.12774560E+03</pdfrwt>
<pdfrwt beam="2">  1       21 0.55685086E-02 0.12774560E+03</pdfrwt>
<totfact> 0.27099725E+06</totfact>
</mgrwt>
</event>
<event>
 6    1  0.4187588E-002  0.1433235E+03  0.7546771E-02  0.1208926E+00
         21   -1    0    0  504  502  0.00000000000E+00  0.00000000000E+00  0.38508690584E+02  0.38508690584E+02  0.00000000000E+00 0. -1.
         21   -1    0    0  502  503 -0.00000000000E+00 -0.00000000000E+00 -0.34972692221E+03  0.34972692221E+03  0.00000000000E+00 0. -1.
         25    2    1    2    0    0 -0.43184973544E+02  0.55235253788E+02 -0.27311614056E+03  0.30843809062E+03  0.12500301721E+03 0.  0.
          5    1    3    3  501    0 -0.76798157679E+02  0.32372906793E+01 -0.18865215587E+03  0.20371078270E+03  0.10000000000E+00 0.  1.
         -5    1    3    3    0  501  0.33613184135E+02  0.51997963109E+02 -0.84463984684E+02  0.10472730792E+03  0.10000000000E+00 0.  1.
         21    1    1    2  504  503  0.43184973544E+02 -0.55235253788E+02 -0.38102091066E+02  0.79797522171E+02  0.00000000000E+00 0. -1.
<mgrwt>
<rscale>  1 0.14332351E+03</rscale>
<asrwt>0</asrwt>
<pdfrwt beam="1">  1       21 0.59244140E-02 0.14332351E+03</pdfrwt>
<pdfrwt beam="2">  1       21 0.53804141E-01 0.14332351E+03</pdfrwt>
<totfact> 0.66206016E+05</totfact>
</mgrwt>
</event>
<event>
 6    1  0.4187588E-002  0.1282494E+03  0.7546771E-02  0.1230077E+00
         21   -1    0    0  503  502  0.00000000000E+00  0.00000000000E+00  0.11039665013E+02  0.11039665013E+02  0.00000000000E+00 0.  1.
         21   -1    0    0  504  503 -0.00000000000E+00 -0.00000000000E+00 -0.84835717477E+03  0.84835717477E+03  0.00000000000E+00 0.  1.
         25    2    1    2    0    0  0.25444569222E+02  0.13186982632E+02 -0.80901870459E+03  0.81912097868E+03  0.12500636272E+03 0.  0.
          5    1    3    3  501    0 -0.35098678780E+02  0.29772108581E+02 -0.14470768555E+03  0.15185065017E+03  0.10000000000E+00 0. -1.
         -5    1    3    3    0  501  0.60543248002E+02 -0.16585125949E+02 -0.66431101905E+03  0.66727032851E+03  0.10000000000E+00 0. -1.
         21    1    1    2  504  502 -0.25444569222E+02 -0.13186982632E+02 -0.28298805166E+02  0.40275861104E+02  0.00000000000E+00 0.  1.
<mgrwt>
<rscale>  1 0.12824942E+03</rscale>
<asrwt>0</asrwt>
<pdfrwt beam="1">  1       21 0.16984097E-02 0.12824942E+03</pdfrwt>
<pdfrwt beam="2">  1       21 0.13051651E+00 0.12824942E+03</pdfrwt>
<totfact> 0.69508198E+05</totfact>
</mgrwt>
</event>
<event>
 6    1  0.4187588E-002  0.1283296E+03  0.7546771E-02  0.1229955E+00
         21   -1    0    0  503  502  0.00000000000E+00  0.00000000000E+00  0.88748878549E+02  0.88748878549E+02  0.00000000000E+00 0.  1.
         21   -1    0    0  504  503 -0.00000000000E+00 -0.00000000000E+00 -0.17165662821E+03  0.17165662821E+03  0.00000000000E+00 0.  1.
         25    2    1    2    0    0 -0.43620040869E+01  0.28700856830E+02 -0.14392838866E+03  0.19283121693E+03  0.12500292355E+03 0.  0.
          5    1    3    3  501    0 -0.37943556053E+01  0.58203811258E+02 -0.14528855206E+02  0.60109719788E+02  0.10000000000E+00 0. -1.
         -5    1    3    3    0  501 -0.56764848161E+00 -0.29502954428E+02 -0.12939953346E+03  0.13272149714E+03  0.10000000000E+00 0. -1.
         21    1    1    2  504  502  0.43620040869E+01 -0.28700856830E+02  0.61020638999E+02  0.67574289832E+02  0.00000000000E+00 0.  1.
<mgrwt>
<rscale>  1 0.12832964E+03</rscale>
<asrwt>0</asrwt>
<pdfrwt beam="1">  1       21 0.13653674E-01 0.12832964E+03</pdfrwt>
<pdfrwt beam="2">  1       21 0.26408712E-01 0.12832964E+03</pdfrwt>
<totfact> 0.63803821E+05</totfact>
</mgrwt>
</event>
<event>
 6    1  0.4187588E-002  0.1265536E+03  0.7546771E-02  0.1232661E+00
         21   -1    0    0  503  502  0.00000000000E+00  0.00000000000E+00  0.10052585160E+02  0.10052585160E+02  0.00000000000E+00 0. -1.
         21   -1    0    0  504  503 -0.00000000000E+00 -0.00000000000E+00 -0.56402180869E+03  0.56402180869E+03  0.00000000000E+00 0. -1.
         25    2    1    2    0    0  0.17691038556E+02 -0.88721488609E+01 -0.42003358467E+03  0.43868442662E+03  0.12499650409E+03 0.  0.
          5    1    3    3  501    0  0.38258510654E+02  0.42178805467E+02 -0.11065177438E+03  0.12444513025E+03  0.10000000000E+00 0. -1.
         -5    1    3    3    0  501 -0.20567472098E+02 -0.51050954327E+02 -0.30938181029E+03  0.31423929637E+03  0.10000000000E+00 0. -1.
         21    1    1    2  504  502 -0.17691038556E+02  0.88721488609E+01 -0.13393563886E+03  0.13538996723E+03  0.00000000000E+00 0. -1.
<mgrwt>
<rscale>  1 0.12655360E+03</rscale>
<asrwt>0</asrwt>
<pdfrwt beam="1">  1       21 0.15465514E-02 0.12655360E+03</pdfrwt>
<pdfrwt beam="2">  1       21 0.86772594E-01 0.12655360E+03</pdfrwt>
<totfact> 0.21282064E+06</totfact>
</mgrwt>
</event>
<event>
 6    1  0.4187588E-002  0.1403729E+03  0.7546771E-02  0.1212828E+00
         21   -1    0    0  503  502  0.00000000000E+00  0.00000000000E+00  0.21047080516E+03  0.21047080516E+03  0.00000000000E+00 0. -1.
         21   -1    0    0  504  503 -0.00000000000E+00 -0.00000000000E+00 -0.34880669772E+03  0.34880669772E+03  0.00000000000E+00 0. -1.
         25    2    1    2    0    0  0.54916064540E+02 -0.32618825694E+02 -0.32926992133E+03  0.35794304166E+03  0.12499911216E+03 0.  0.
          5    1    3    3  501    0  0.44844276461E+02 -0.72489430828E+02 -0.13722008154E+03  0.16153973967E+03  0.10000000000E+00 0.  1.
         -5    1    3    3    0  501  0.10071788079E+02  0.39870605134E+02 -0.19204983979E+03  0.19640330199E+03  0.10000000000E+00 0.  1.
         21    1    1    2  504  502 -0.54916064540E+02  0.32618825694E+02  0.19093402877E+03  0.20133446123E+03  0.00000000000E+00 0. -1.
<mgrwt>
<rscale>  1 0.14037286E+03</rscale>
<asrwt>0</asrwt>
<pdfrwt beam="1">  1       21 0.32380124E-01 0.14037286E+03</pdfrwt>
<pdfrwt beam="2">  1       21 0.53662569E-01 0.14037286E+03</pdfrwt>
<totfact> 0.31059001E+04</totfact>
</mgrwt>
</event>
<event>
 6    1  0.4187588E-002  0.1264832E+03  0.7546771E-02  0.1232769E+00
         21   -1    0    0  504  502  0.00000000000E+00  0.00000000000E+00  0.60593171889E+02  0.60593171889E+02  0.00000000000E+00 0. -1.
         21   -1    0    0  502  503 -0.00000000000E+00 -0.00000000000E+00 -0.90371974860E+02  0.90371974860E+02  0.00000000000E+00 0. -1.
         25    2    1    2    0    0 -0.32046060300E+01  0.19049503824E+02 -0.34450724384E+02  0.13109104437E+03  0.12499942563E+03 0.  0.
          5    1    3    3  501    0 -0.52402247813E+02  0.32628873677E+02  0.11055281458E+02  0.62712584235E+02  0.10000000000E+00 0.  1.
         -5    1    3    3    0  501  0.49197641783E+02 -0.13579369852E+02 -0.45506005842E+02  0.68378460134E+02  0.10000000000E+00 0.  1.
         21    1    1    2  504  503  0.32046060300E+01 -0.19049503824E+02  0.46719214125E+01  0.19874102381E+02  0.00000000000E+00 0. -1.
<mgrwt>
<rscale>  1 0.12648324E+03</rscale>
<asrwt>0</asrwt>
<pdfrwt beam="1">  1       21 0.93220264E-02 0.12648324E+03</pdfrwt>
<pdfrwt beam="2">  1       21 0.13903381E-01 0.12648324E+03</pdfrwt>
<totfact> 0.40770511E+06</totfact>
</mgrwt>
</event>
<event>
 6    1  0.4187588E-002  0.1293593E+03  0.7546771E-02  0.1228410E+00
         21   -1    0    0  504  502  0.00000000000E+00  0.00000000000E+00  0.58086521775E+03  0.58086521775E+03  0.00000000000E+00 0.  1.
         21   -1    0    0  502  503 -0.00000000000E+00 -0.00000000000E+00 -0.11653171633E+02  0.11653171633E+02  0.00000000000E+00 0.  1.
         25    2    1    2    0    0  0.13149044326E+01  0.33274471970E+02  0.41252208524E+03  0.43232892875E+03  0.12499964946E+03 0.  0.
          5    1    3    3  501    0 -0.40629419766E+02  0.54801429072E+02  0.33271018440E+03  0.33963218809E+03  0.10000000000E+00 0.  1.
         -5    1    3    3    0  501  0.41944324198E+02 -0.21526957102E+02  0.79811900843E+02  0.92696740669E+02  0.10000000000E+00 0.  1.
         21    1    1    2  504  503 -0.13149044326E+01 -0.33274471970E+02  0.15668996087E+03  0.16018946063E+03  0.00000000000E+00 0.  1.
<mgrwt>
<rscale>  1 0.12935931E+03</rscale>
<asrwt>0</asrwt>
<pdfrwt beam="1">  1       21 0.89363857E-01 0.12935931E+03</pdfrwt>
<pdfrwt beam="2">  1       21 0.17927961E-02 0.12935931E+03</pdfrwt>
<totfact> 0.15712256E+06</totfact>
</mgrwt>
</event>
<event>
 6    1  0.4187588E-002  0.1259514E+03  0.7546771E-02  0.1233590E+00
         21   -1    0    0  503  502  0.00000000000E+00  0.00000000000E+00  0.18178311589E+02  0.18178311589E+02  0.00000000000E+00 0.  1.
         21   -1    0    0  504  503 -0.00000000000E+00 -0.00000000000E+00 -0.38119551249E+03  0.38119551249E+03  0.00000000000E+00 0.  1.
         25    2    1    2    0    0  0.12578701705E+02  0.89657878314E+01 -0.36267499557E+03  0.38392305735E+03  0.12500060986E+03 0.  0.
          5    1    3    3  501    0  0.60027494848E+02  0.27970963150E+02 -0.13234099287E+03  0.14798588889E+03  0.10000000000E+00 0.  1.
         -5    1    3    3    0  501 -0.47448793143E+02 -0.19005175319E+02 -0.23033400271E+03  0.23593716846E+03  0.10000000000E+00 0.  1.
         21    1    1    2  504  502 -0.12578701705E+02 -0.89657878314E+01 -0.34220532936E+00  0.15450766729E+02  0.00000000000E+00 0.  1.
<mgrwt>
<rscale>  1 0.12595143E+03</rscale>
<asrwt>0</asrwt>
<pdfrwt beam="1">  1       21 0.27966636E-02 0.12595143E+03</pdfrwt>
<pdfrwt beam="2">  1       21 0.58645458E-01 0.12595143E+03</pdfrwt>
<totfact> 0.19259341E+06</totfact>
</mgrwt>
</event>
<event>
 6    1  0.4187588E-002  0.1262716E+03  0.7546771E-02  0.1233095E+00
         21   -1    0    0  504  502  0.00000000000E+00  0.00000000000E+00  0.12217756994E+03  0.12217756994E+03  0.00000000000E+00 0.  1.
         21   -1    0    0  502  503 -0.00000000000E+00 -0.00000000000E+00 -0.42681284933E+02  0.42681284933E+02  0.00000000000E+00 0.  1.
         25    2    1    2    0    0 -0.15098617902E+02 -0.95972368866E+01  0.72811072394E+02  0.14575997307E+03  0.12499776905E+03 0.  0.
          5    1    3    3  501    0  0.30946526828E+02  0.31831393847E+02 -0.67773192636E+01  0.44909544792E+02  0.10000000000E+00 0. -1.
         -5    1    3    3    0  501 -0.46045144731E+02 -0.41428630734E+02  0.79588391657E+02  0.10085042828E+03  0.10000000000E+00 0. -1.
         21    1    1    2  504  503  0.15098617902E+02  0.95972368866E+01  0.66852126142E+01  0.19098881803E+02  0.00000000000E+00 0.  1.
<mgrwt>
<rscale>  1 0.12627160E+03</rscale>
<asrwt>0</asrwt>
<pdfrwt beam="1">  1       21 0.18796549E-01 0.12627160E+03</pdfrwt>
<pdfrwt beam="2">  1       21 0.65663516E-02 0.12627160E+03</pdfrwt>
<totfact> 0.43134072E+06</totfact>
</mgrwt>
</event>
<event>
 6    1  0.4187588E-002  0.1299278E+03  0.7546771E-02  0.1227563E+00
         21   -1    0    0  503  502  0.00000000000E+00  0.00000000000E+00  0.10750429169E+03  0.10750429169E+03  0.00000000000E+00 0.  1.
         21   -1    0    0  504  503 -0.00000000000E+00 -0.00000000000E+00 -0.98256813494E+02  0.98256813494E+02  0.00000000000E+00 0.  1.
         25    2    1    2    0    0 -0.61849762645E+01  0.34806863624E+02 -0.47972412454E+02  0.13850125406E+03  0.12502589065E+03 0.  0.
          5    1    3    3  501    0  0.15107052082E+02 -0.32257003791E+02 -0.57355150068E+02  0.67515631935E+02  0.10000000000E+00 0. -1.
         -5    1    3    3    0  501 -0.21292028346E+02  0.67063867416E+02  0.93827376147E+01  0.70985622129E+02  0.10000000000E+00 0. -1.
         21    1    1    2  504  502  0.61849762645E+01 -0.34806863624E+02  0.57219890646E+02  0.67259851118E+02  0.00000000000E+00 0.  1.
<mgrwt>
<rscale>  1 0.12992785E+03</rscale>
<asrwt>0</asrwt>
<pdfrwt beam="1">  1       21 0.16539122E-01 0.12992785E+03</pdfrwt>
<pdfrwt beam="2">  1       21 0.15116433E-01 0.12992785E+03</pdfrwt>
<totfact> 0.12674797E+06</totfact>
</mgrwt>
</event>
<event>
 6    1  0.4187588E-002  0.1283143E+03  0.7546771E-02  0.1229979E+00
         21   -1    0    0  504  502  0.00000000000E+00  0.00000000000E+00  0.36950825632E+03  0.36950825632E+03  0.00000000000E+00 0. -1.
         21   -1    0    0  502  503 -0.00000000000E+00 -0.00000000000E+00 -0.27579629552E+02  0.27579629552E+02  0.00000000000E+00 0. -1.
         25    2    1    2    0    0  0.27000091244E+02  0.10521217576E+02  0.12812683922E+03  0.18133129778E+03  0.12499940672E+03 0.  0.
          5    1    3    3  501    0  0.22356333875E+02 -0.50845333672E+02  0.98381289065E+02  0.11297761574E+03  0.10000000000E+00 0. -1.
         -5    1    3    3    0  501  0.46437573692E+01  0.61366551248E+02  0.29745550158E+02  0.68353682042E+02  0.10000000000E+00 0. -1.
         21    1    1    2  504  503 -0.27000091244E+02 -0.10521217576E+02  0.21380178755E+03  0.21575658809E+03  0.00000000000E+00 0. -1.
<mgrwt>
<rscale>  1 0.12831427E+03</rscale>
<asrwt>0</asrwt>
<pdfrwt beam="1">  1       21 0.56847420E-01 0.12831427E+03</pdfrwt>
<pdfrwt beam="2">  1       21 0.42430202E-02 0.12831427E+03</pdfrwt>
<totfact> 0.10343523E+06</totfact>
</mgrwt>
</event>
<event>
 6    1  0.4187588E-002  0.1262144E+03  0.7546771E-02  0.1233183E+00
         21   -1    0    0  504  502  0.00000000000E+00  0.00000000000E+00  0.18375699017E+02  0.18375699017E+02  0.00000000000E+00 0. -1.
         21   -1    0    0  502  503 -0.00000000000E+00 -0.00000000000E+00 -0.33424187948E+03  0.33424187948E+03  0.00000000000E+00 0. -1.
         25    2    1    2    0    0  0.42829395866E+01 -0.16890149752E+02 -0.30918785102E+03  0.33395690288E+03  0.12500586000E+03 0.  0.
          5    1    3    3  501    0  0.11068728318E+02 -0.50181927147E+01 -0.31764553137E+03  0.31787795237E+03  0.10000000000E+00 0.  1.
         -5    1    3    3    0  501 -0.67857887319E+01 -0.11871957037E+02  0.84576803504E+01  0.16078950510E+02  0.10000000000E+00 0.  1.
         21    1    1    2  504  503 -0.42829395866E+01  0.16890149752E+02 -0.66783294389E+01  0.18660675610E+02  0.00000000000E+00 0. -1.
<mgrwt>
<rscale>  1 0.12621444E+03</rscale>
<asrwt>0</asrwt>
<pdfrwt beam="1">  1       21 0.28270309E-02 0.12621444E+03</pdfrwt>
<pdfrwt beam="2">  1       21 0.51421822E-01 0.12621444E+03</pdfrwt>
<totfact> 0.24911633E+06</totfact>
</mgrwt>
</event>
<event>
 6    1  0.4187588E-002  0.1337466E+03  0.7546771E-02  0.1222000E+00
         21   -1    0    0  503  502  0.00000000000E+00  0.00000000000E+00  0.26141290945E+03  0.26141290945E+03  0.00000000000E+00 0. -1.
         21   -1    0    0  504  503 -0.00000000000E+00 -0.00000000000E+00 -0.41107148154E+02  0.41107148154E+02  0.00000000000E+00 0. -1.
         25    2    1    2    0    0  0.45835697998E+02 -0.12722985668E+02  0.83479908952E+02  0.15766116266E+03  0.12500144574E+03 0.  0.
          5    1    3    3  501    0  0.74778572918E+02 -0.39114722327E+02  0.26379764747E+02  0.88417749680E+02  0.10000000000E+00 0.  1.
         -5    1    3    3    0  501 -0.28942874920E+02  0.26391736659E+02  0.57100144205E+02  0.69243412977E+02  0.10000000000E+00 0.  1.
         21    1    1    2  504  502 -0.45835697998E+02  0.12722985668E+02  0.13682585235E+03  0.14485889495E+03  0.00000000000E+00 0. -1.
<mgrwt>
<rscale>  1 0.13374658E+03</rscale>
<asrwt>0</asrwt>
<pdfrwt beam="1">  1       21 0.40217370E-01 0.13374658E+03</pdfrwt>
<pdfrwt beam="2">  1       21 0.63241768E-02 0.13374658E+03</pdfrwt>
<totfact> 0.10748192E+06</totfact>
</mgrwt>
</event>
<event>
 6    1  0.4187588E-002  0.1299472E+03  0.7546771E-02  0.1227534E+00
         21   -1    0    0  504  502  0.00000000000E+00  0.00000000000E+00  0.16812097662E+03  0.16812097662E+03  0.00000000000E+00 0.  1.
         21   -1    0    0  502  503 -0.00000000000E+00 -0.00000000000E+00 -0.43647118002E+02  0.43647118002E+02  0.00000000000E+00 0.  1.
         25    2    1    2    0    0  0.35438923556E+02 -0.24039549422E+01  0.72463798096E+02  0.14878601227E+03  0.12499831643E+03 0.  0.
          5    1    3    3  501    0  0.55358031553E+01  0.58832809310E+02  0.18692459463E+02  0.61978727066E+02  0.10000000000E+00 0. -1.
         -5    1    3    3    0  501  0.29903120400E+02 -0.61236764253E+02  0.53771338633E+02  0.86807285202E+02  0.10000000000E+00 0. -1.
         21    1    1    2  504  503 -0.35438923556E+02  0.24039549422E+01  0.52010060524E+02  0.62982082356E+02  0.00000000000E+00 0.  1.
<mgrwt>
<rscale>  1 0.12994720E+03</rscale>
<asrwt>0</asrwt>
<pdfrwt beam="1">  1       21 0.25864765E-01 0.12994720E+03</pdfrwt>
<pdfrwt beam="2">  1       21 0.67149413E-02 0.12994720E+03</pdfrwt>
<totfact> 0.22909946E+06</totfact>
</mgrwt>
</event>
<event>
 6    1  0.4187588E-002  0.1907432E+03  0.7546771E-02  0.1157793E+00
         21   -1    0    0  503  502  0.00000000000E+00  0.00000000000E+00  0.47724446714E+03  0.47724446714E+03  0.00000000000E+00 0.  1.
         21   -1    0    0  504  503 -0.00000000000E+00 -0.00000000000E+00 -0.12727419983E+03  0.12727419983E+03  0.00000000000E+00 0.  1.
         25    2    1    2    0    0  0.12624858215E+03 -0.69451415659E+02 -0.34586218633E+02  0.19385348155E+03  0.12498304748E+03 0.  0.
          5    1    3    3  501    0  0.76080352296E+02 -0.10052768618E+03 -0.12554268036E+01  0.12607784020E+03  0.10000000000E+00 0. -1.
         -5    1    3    3    0  501  0.50168229854E+02  0.31076270517E+02 -0.33330791829E+02  0.67775641346E+02  0.10000000000E+00 0. -1.
         21    1    1    2  504  502 -0.12624858215E+03  0.69451415659E+02  0.38455648594E+03  0.41066518542E+03  0.00000000000E+00 0.  1.
<mgrwt>
<rscale>  1 0.19074319E+03</rscale>
<asrwt>0</asrwt>
<pdfrwt beam="1">  1       21 0.73422225E-01 0.19074319E+03</pdfrwt>
<pdfrwt beam="2">  1       21 0.19580646E-01 0.19074319E+03</pdfrwt>
<totfact> 0.40073083E+04</totfact>
</mgrwt>
</event>
<event>
 6    1  0.4187588E-002  0.1706056E+03  0.7546771E-02  0.1177218E+00
         21   -1    0    0  503  502  0.00000000000E+00  0.00000000000E+00  0.71118695841E+03  0.71118695841E+03  0.00000000000E+00 0.  1.
         21   -1    0    0  504  503 -0.00000000000E+00 -0.00000000000E+00 -0.60647843491E+02  0.60647843491E+02  0.00000000000E+00 0.  1.
         25    2    1    2    0    0 -0.79952000852E+02  0.84202166191E+02  0.77912280863E+02  0.18755420295E+03  0.12499571314E+03 0.  0.
          5    1    3    3  501    0  0.11718144642E+02  0.74716512219E+02  0.52132225377E+02  0.91856687480E+02  0.10000000000E+00 0.  1.
         -5    1    3    3    0  501 -0.91670145494E+02  0.94856539715E+01  0.25780055487E+02  0.95697515469E+02  0.10000000000E+00 0.  1.
         21    1    1    2  504  502  0.79952000852E+02 -0.84202166191E+02  0.57262683405E+03  0.58428059895E+03  0.00000000000E+00 0.  1.
<mgrwt>
<rscale>  1 0.17060556E+03</rscale>
<asrwt>0</asrwt>
<pdfrwt beam="1">  1       21 0.10941337E+00 0.17060556E+03</pdfrwt>
<pdfrwt beam="2">  1       21 0.93304379E-02 0.17060556E+03</pdfrwt>
<totfact> 0.61323546E+04</totfact>
</mgrwt>
</event>
<event>
 6    1  0.4187588E-002  0.1267830E+03  0.7546771E-02  0.1232309E+00
         21   -1    0    0  504  502  0.00000000000E+00  0.00000000000E+00  0.10989291109E+03  0.10989291109E+03  0.00000000000E+00 0.  1.
         21   -1    0    0  502  503 -0.00000000000E+00 -0.00000000000E+00 -0.49822599259E+02  0.49822599259E+02  0.00000000000E+00 0.  1.
         25    2    1    2    0    0  0.48707376982E+01  0.20625277403E+02  0.50723753512E+02  0.13655337949E+03  0.12499920050E+03 0.  0.
          5    1    3    3  501    0 -0.22641406415E+01  0.22166681352E+02  0.91988060139E+02  0.94648303224E+02  0.10000000000E+00 0.  1.
         -5    1    3    3    0  501  0.71348783397E+01 -0.15414039492E+01 -0.41264306627E+02  0.41905076262E+02  0.10000000000E+00 0.  1.
         21    1    1    2  504  503 -0.48707376982E+01 -0.20625277403E+02  0.93465583180E+01  0.23162130862E+02  0.00000000000E+00 0.  1.
<mgrwt>
<rscale>  1 0.12678299E+03</rscale>
<asrwt>0</asrwt>
<pdfrwt beam="1">  1       21 0.16906602E-01 0.12678299E+03</pdfrwt>
<pdfrwt beam="2">  1       21 0.76650153E-02 0.12678299E+03</pdfrwt>
<totfact> 0.40184419E+06</totfact>
</mgrwt>
</event>
<event>
 6    1  0.4187588E-002  0.1272882E+03  0.7546771E-02  0.1231536E+00
         21   -1    0    0  504  502  0.00000000000E+00  0.00000000000E+00  0.55570000196E+02  0.55570000196E+02  0.00000000000E+00 0. -1.
         21   -1    0    0  502  503 -0.00000000000E+00 -0.00000000000E+00 -0.12633405855E+04  0.12633405855E+04  0.00000000000E+00 0.  1.
         25    2    1    2    0    0  0.58896219705E+01  0.23284376132E+02 -0.12573729233E+04  0.12637994095E+04  0.12500171733E+03 0.  0.
          5    1    3    3  501    0 -0.58802091872E+01 -0.38177560806E+02 -0.91101866050E+03  0.91183721837E+03  0.10000000000E+00 0. -1.
         -5    1    3    3    0  501  0.11769831158E+02  0.61461936938E+02 -0.34635426278E+03  0.35196219110E+03  0.10000000000E+00 0. -1.
         21    1    1    2  504  503 -0.58896219705E+01 -0.23284376132E+02  0.49602337950E+02  0.55111176262E+02  0.00000000000E+00 0. -1.
<mgrwt>
<rscale>  1 0.12728817E+03</rscale>
<asrwt>0</asrwt>
<pdfrwt beam="1">  1       21 0.85492314E-02 0.12728817E+03</pdfrwt>
<pdfrwt beam="2">  1       21 0.19436008E+00 0.12728817E+03</pdfrwt>
<totfact> 0.16526828E+04</totfact>
</mgrwt>
</event>
<event>
 6    1  0.4187588E-002  0.1276725E+03  0.7546771E-02  0.1230951E+00
         21   -1    0    0  503  502  0.00000000000E+00  0.00000000000E+00  0.34425382297E+03  0.34425382297E+03  0.00000000000E+00 0.  1.
         21   -1    0    0  504  503 -0.00000000000E+00 -0.00000000000E+00 -0.17797389511E+02  0.17797389511E+02  0.00000000000E+00 0.  1.
         25    2    1    2    0    0  0.25754613499E+02 -0.34630188780E+01  0.29361733393E+03  0.32017402210E+03  0.12499989211E+03 0.  0.
          5    1    3    3  501    0 -0.16964501659E+02 -0.90019163916E+01  0.27069999735E+03  0.27138041083E+03  0.10000000000E+00 0.  1.
         -5    1    3    3    0  501  0.42719115158E+02  0.55388975136E+01  0.22917336583E+02  0.48793611279E+02  0.10000000000E+00 0.  1.
         21    1    1    2  504  502 -0.25754613499E+02  0.34630188780E+01  0.32839099528E+02  0.41877190379E+02  0.00000000000E+00 0.  1.
<mgrwt>
<rscale>  1 0.12767249E+03</rscale>
<asrwt>0</asrwt>
<pdfrwt beam="1">  1       21 0.52962122E-01 0.12767249E+03</pdfrwt>
<pdfrwt beam="2">  1       21 0.27380602E-02 0.12767249E+03</pdfrwt>
<totfact> 0.24696512E+06</totfact>
</mgrwt>
</event>
<event>
 6    1  0.4187588E-002  0.1259523E+03  0.7546771E-02  0.1233588E+00
         21   -1    0    0  503  502  0.00000000000E+00  0.00000000000E+00  0.75253383140E+02  0.75253383140E+02  0.00000000000E+00 0. -1.
         21   -1    0    0  504  503 -0.00000000000E+00 -0.00000000000E+00 -0.67412959710E+02  0.67412959710E+02  0.00000000000E+00 0. -1.
         25    2    1    2    0    0  0.13353917958E+02 -0.78325503925E+01  0.12310346964E+02  0.12655249207E+03  0.12499725052E+03 0.  0.
          5    1    3    3  501    0 -0.30371991836E+02 -0.27612302101E+02 -0.38770976705E+02  0.56463224758E+02  0.10000000000E+00 0.  1.
         -5    1    3    3    0  501  0.43725909794E+02  0.19779751708E+02  0.51081323669E+02  0.70089267315E+02  0.10000000000E+00 0.  1.
         21    1    1    2  504  502 -0.13353917958E+02  0.78325503925E+01 -0.44699235339E+01  0.16113850777E+02  0.00000000000E+00 0. -1.
<mgrwt>
<rscale>  1 0.12595233E+03</rscale>
<asrwt>0</asrwt>
<pdfrwt beam="1">  1       21 0.11577444E-01 0.12595233E+03</pdfrwt>
<pdfrwt beam="2">  1       21 0.10371225E-01 0.12595233E+03</pdfrwt>
<totfact> 0.46853022E+06</totfact>
</mgrwt>
</event>
<event>
 6    1  0.4187588E-002  0.1332577E+03  0.7546771E-02  0.1222700E+00
         21   -1    0    0  503  502  0.00000000000E+00  0.00000000000E+00  0.82469617171E+02  0.82469617171E+02  0.00000000000E+00 0. -1.
         21   -1    0    0  504  503 -0.00000000000E+00 -0.00000000000E+00 -0.61723650021E+03  0.61723650021E+03  0.00000000000E+00 0. -1.
         25    2    1    2    0    0 -0.86716894392E+01  0.45378350301E+02 -0.60286413854E+03  0.61741620864E+03  0.12499284893E+03 0.  0.
          5    1    3    3  501    0  0.45729333269E+02 -0.18475345749E+02 -0.23157062961E+03  0.23676460212E+03  0.10000000000E+00 0. -1.
         -5    1    3    3    0  501 -0.54401022708E+02  0.63853696050E+02 -0.37129350893E+03  0.38065160652E+03  0.10000000000E+00 0. -1.
         21    1    1    2  504  502  0.86716894392E+01 -0.45378350301E+02  0.68097255499E+02  0.82289908739E+02  0.00000000000E+00 0. -1.
<mgrwt>
<rscale>  1 0.13325766E+03</rscale>
<asrwt>0</asrwt>
<pdfrwt beam="1">  1       21 0.12687634E-01 0.13325766E+03</pdfrwt>
<pdfrwt beam="2">  1       21 0.94959459E-01 0.13325766E+03</pdfrwt>
<totfact> 0.50788911E+04</totfact>
</mgrwt>
</event>
<event>
 6    1  0.4187588E-002  0.1310730E+03  0.7546771E-02  0.1225872E+00
         21   -1    0    0  504  502  0.00000000000E+00  0.00000000000E+00  0.85157878638E+02  0.85157878638E+02  0.00000000000E+00 0. -1.
         21   -1    0    0  502  503 -0.00000000000E+00 -0.00000000000E+00 -0.31634876872E+03  0.31634876872E+03  0.00000000000E+00 0. -1.
         25    2    1    2    0    0 -0.30781561435E+02  0.24680902915E+02 -0.29707882630E+03  0.32470904563E+03  0.12499393498E+03 0.  0.
          5    1    3    3  501    0 -0.10952124662E+02 -0.49119809669E+02 -0.16049760980E+03  0.16820284626E+03  0.10000000000E+00 0.  1.
         -5    1    3    3    0  501 -0.19829436774E+02  0.73800712584E+02 -0.13658121650E+03  0.15650619937E+03  0.10000000000E+00 0.  1.
         21    1    1    2  504  503  0.30781561435E+02 -0.24680902915E+02  0.65887936218E+02  0.76797601734E+02  0.00000000000E+00 0. -1.
<mgrwt>
<rscale>  1 0.13107302E+03</rscale>
<asrwt>0</asrwt>
<pdfrwt beam="1">  1       21 0.13101212E-01 0.13107302E+03</pdfrwt>
<pdfrwt beam="2">  1       21 0.48669041E-01 0.13107302E+03</pdfrwt>
<totfact> 0.20548397E+05</totfact>
</mgrwt>
</event>
<event>
 6    1  0.4187588E-002  0.1609655E+03  0.7546771E-02  0.1187611E+00
         21   -1    0    0  504  502  0.00000000000E+00  0.00000000000E+00  0.62840159823E+03  0.62840159823E+03  0.00000000000E+00 0.  1.
         21   -1    0    0  502  503 -0.00000000000E+00 -0.00000000000E+00 -0.29323815451E+02  0.29323815451E+02  0.00000000000E+00 0.  1.
         25    2    1    2    0    0 -0.17162574226E+02  0.99960850018E+02  0.28063488875E+03  0.32352098186E+03  0.12499263751E+03 0.  0.
          5    1    3    3  501    0  0.10760236338E+02  0.26238170423E+01 -0.10509851876E+02  0.15268729101E+02  0.10000000000E+00 0. -1.
         -5    1    3    3    0  501 -0.27922810564E+02  0.97337032976E+02  0.29114474063E+03  0.30825225276E+03  0.10000000000E+00 0. -1.
         21    1    1    2  504  503  0.17162574226E+02 -0.99960850018E+02  0.31844289403E+03  0.33420443182E+03  0.00000000000E+00 0.  1.
<mgrwt>
<rscale>  1 0.16096548E+03</rscale>
<asrwt>0</asrwt>
<pdfrwt beam="1">  1       21 0.96677159E-01 0.16096548E+03</pdfrwt>
<pdfrwt beam="2">  1       21 0.45113567E-02 0.16096548E+03</pdfrwt>
<totfact> 0.28718680E+05</totfact>
</mgrwt>
</event>
<event>
 6    1  0.4187588E-002  0.1260008E+03  0.7546771E-02  0.1233513E+00
         21   -1    0    0  503  502  0.00000000000E+00  0.00000000000E+00  0.12467346406E+03  0.12467346406E+03  0.00000000000E+00 0. -1.
         21   -1    0    0  504  503 -0.00000000000E+00 -0.00000000000E+00 -0.42305781703E+02  0.42305781703E+02  0.00000000000E+00 0. -1.
         25    2    1    2    0    0  0.66287367946E+01 -0.14385576532E+02  0.59963615344E+02  0.13954154939E+03  0.12500129550E+03 0.  0.
          5    1    3    3  501    0  0.50949290119E+02  0.30231536982E+02  0.46289804327E+02  0.75183322463E+02  0.10000000000E+00 0.  1.
         -5    1    3    3    0  501 -0.44320553324E+02 -0.44617113514E+02  0.13673811017E+02  0.64358226926E+02  0.10000000000E+00 0.  1.
         21    1    1    2  504  502 -0.66287367946E+01  0.14385576532E+02  0.22404067016E+02  0.27437696377E+02  0.00000000000E+00 0. -1.
<mgrwt>
<rscale>  1 0.12600083E+03</rscale>
<asrwt>0</asrwt>
<pdfrwt beam="1">  1       21 0.19180533E-01 0.12600083E+03</pdfrwt>
<pdfrwt beam="2">  1       21 0.65085819E-02 0.12600083E+03</pdfrwt>
<totfact> 0.42185194E+06</totfact>
</mgrwt>
</event>
<event>
 6    1  0.4187588E-002  0.1273839E+03  0.7546771E-02  0.1231390E+00
         21   -1    0    0  503  502  0.00000000000E+00  0.00000000000E+00  0.16677735875E+02  0.16677735875E+02  0.00000000000E+00 0.  1.
         21   -1    0    0  504  503 -0.00000000000E+00 -0.00000000000E+00 -0.42717698500E+03  0.42717698500E+03  0.00000000000E+00 0.  1.
         25    2    1    2    0    0 -0.40267661505E+01  0.24190020030E+02 -0.39454421954E+03  0.41459835603E+03  0.12500113495E+03 0.  0.
          5    1    3    3  501    0 -0.20491149793E+02  0.72501086141E+02 -0.20912454322E+03  0.22228220642E+03  0.10000000000E+00 0. -1.
         -5    1    3    3    0  501  0.16464383642E+02 -0.48311066111E+02 -0.18541967631E+03  0.19231614961E+03  0.10000000000E+00 0. -1.
         21    1    1    2  504  502  0.40267661505E+01 -0.24190020030E+02 -0.15955029585E+02  0.29256364841E+02  0.00000000000E+00 0.  1.
<mgrwt>
<rscale>  1 0.12738389E+03</rscale>
<asrwt>0</asrwt>
<pdfrwt beam="1">  1       21 0.25658060E-02 0.12738389E+03</pdfrwt>
<pdfrwt beam="2">  1       21 0.65719525E-01 0.12738389E+03</pdfrwt>
<totfact> 0.17385391E+06</totfact>
</mgrwt>
</event>
<event>
 6    1  0.4187588E-002  0.1389456E+03  0.7546771E-02  0.1214755E+00
         21   -1    0    0  504  502  0.00000000000E+00  0.00000000000E+00  0.28304968641E+02  0.28304968641E+02  0.00000000000E+00 0.  1.
         21   -1    0    0  502  503 -0.00000000000E+00 -0.00000000000E+00 -0.43765369185E+03  0.43765369185E+03  0.00000000000E+00 0.  1.
         25    2    1    2    0    0  0.36282234444E+02  0.48621237301E+02 -0.36574341049E+03  0.39124689067E+03  0.12500184754E+03 0.  0.
          5    1    3    3  501    0  0.59346610468E+02  0.69037784855E+02 -0.16766099759E+03  0.19078379392E+03  0.10000000000E+00 0. -1.
         -5    1    3    3    0  501 -0.23064376024E+02 -0.20416547553E+02 -0.19808241290E+03  0.20046309674E+03  0.10000000000E+00 0. -1.
         21    1    1    2  504  503 -0.36282234444E+02 -0.48621237301E+02 -0.43605312722E+02  0.74711769826E+02  0.00000000000E+00 0.  1.
<mgrwt>
<rscale>  1 0.13894563E+03</rscale>
<asrwt>0</asrwt>
<pdfrwt beam="1">  1       21 0.43546107E-02 0.13894563E+03</pdfrwt>
<pdfrwt beam="2">  1       21 0.67331336E-01 0.13894563E+03</pdfrwt>
<totfact> 0.68981798E+05</totfact>
</mgrwt>
</event>
<event>
 6    1  0.4187588E-002  0.1272841E+03  0.7546771E-02  0.1231542E+00
         21   -1    0    0  504  502  0.00000000000E+00  0.00000000000E+00  0.67076702026E+03  0.67076702026E+03  0.00000000000E+00 0.  1.
         21   -1    0    0  502  503 -0.00000000000E+00 -0.00000000000E+00 -0.47188088683E+02  0.47188088683E+02  0.00000000000E+00 0.  1.
         25    2    1    2    0    0  0.39169303026E+01  0.23707874005E+02  0.39343805965E+02  0.13322603695E+03  0.12499534480E+03 0.  0.
          5    1    3    3  501    0 -0.26419039948E+02 -0.39340345432E+02  0.41838545831E+02  0.63214732205E+02  0.10000000000E+00 0. -1.
         -5    1    3    3    0  501  0.30335970251E+02  0.63048219437E+02 -0.24947398665E+01  0.70011304746E+02  0.10000000000E+00 0. -1.
         21    1    1    2  504  503 -0.39169303026E+01 -0.23707874005E+02  0.58423512562E+03  0.58472907200E+03  0.00000000000E+00 0.  1.
<mgrwt>
<rscale>  1 0.12728410E+03</rscale>
<asrwt>0</asrwt>
<pdfrwt beam="1">  1       21 0.10319492E+00 0.12728410E+03</pdfrwt>
<pdfrwt beam="2">  1       21 0.72597064E-02 0.12728410E+03</pdfrwt>
<totfact> 0.11114196E+05</totfact>
</mgrwt>
</event>
<event>
 6    1  0.4187588E-002  0.1281368E+03  0.7546771E-02  0.1230247E+00
         21   -1    0    0  503  502  0.00000000000E+00  0.00000000000E+00  0.85631073456E+02  0.85631073456E+02  0.00000000000E+00 0. -1.
         21   -1    0    0  504  503 -0.00000000000E+00 -0.00000000000E+00 -0.22124332331E+04  0.22124332331E+04  0.00000000000E+00 0. -1.
         25    2    1    2    0    0 -0.35236762599E+01 -0.27930547095E+02 -0.22082108369E+04  0.22119254391E+04  0.12500606398E+03 0.  0.
          5    1    3    3  501    0  0.52460189316E+01 -0.39265486708E+02 -0.21237079228E+03  0.21603393848E+03  0.10000000000E+00 0. -1.
         -5    1    3    3    0  501 -0.87696951915E+01  0.11334939613E+02 -0.19958400446E+04  0.19958915006E+04  0.10000000000E+00 0. -1.
         21    1    1    2  504  502  0.35236762599E+01  0.27930547095E+02  0.81408677269E+02  0.86138867476E+02  0.00000000000E+00 0. -1.
<mgrwt>
<rscale>  1 0.12813683E+03</rscale>
<asrwt>0</asrwt>
<pdfrwt beam="1">  1       21 0.13174014E-01 0.12813683E+03</pdfrwt>
<pdfrwt beam="2">  1       21 0.34037429E+00 0.12813683E+03</pdfrwt>
<totfact> 0.11048803E+03</totfact>
</mgrwt>
</event>
<event>
 6    1  0.4187588E-002  0.1275882E+03  0.7546771E-02  0.1231079E+00
         21   -1    0    0  504  502  0.00000000000E+00  0.00000000000E+00  0.60992342632E+02  0.60992342632E+02  0.00000000000E+00 0. -1.
         21   -1    0    0  502  503 -0.00000000000E+00 -0.00000000000E+00 -0.55693181128E+03  0.55693181128E+03  0.00000000000E+00 0. -1.
         25    2    1    2    0    0  0.19312215833E+02 -0.16701989126E+02 -0.54654627394E+03  0.56124111532E+03  0.12500736718E+03 0.  0.
          5    1    3    3  501    0 -0.35032997260E+02 -0.14342592605E+02 -0.55439623573E+02  0.67131086104E+02  0.10000000000E+00 0. -1.
         -5    1    3    3    0  501  0.54345213092E+02 -0.23593965205E+01 -0.49110665037E+03  0.49411002922E+03  0.10000000000E+00 0. -1.
         21    1    1    2  504  503 -0.19312215833E+02  0.16701989126E+02  0.50606805297E+02  0.56683038587E+02  0.00000000000E+00 0. -1.
<mgrwt>
<rscale>  1 0.12758824E+03</rscale>
<asrwt>0</asrwt>
<pdfrwt beam="1">  1       21 0.93834371E-02 0.12758824E+03</pdfrwt>
<pdfrwt beam="2">  1       21 0.85681820E-01 0.12758824E+03</pdfrwt>
<totfact> 0.10960171E+05</totfact>
</mgrwt>
</event>
<event>
 6    1  0.4187588E-002  0.1275696E+03  0.7546771E-02  0.1231107E+00
         21   -1    0    0  504  502  0.00000000000E+00  0.00000000000E+00  0.11434489511E+04  0.11434489511E+04  0.00000000000E+00 0. -1.
         21   -1    0    0  502  503 -0.00000000000E+00 -0.00000000000E+00 -0.53482357826E+01  0.53482357826E+01  0.00000000000E+00 0. -1.
         25    2    1    2    0    0 -0.19272752414E+02 -0.16696847451E+02  0.84312864318E+03  0.85272498785E+03  0.12499508890E+03 0.  0.
          5    1    3    3  501    0  0.33722892681E+02  0.25307595738E+02  0.13638687018E+03  0.14275537205E+03  0.10000000000E+00 0.  1.
         -5    1    3    3    0  501 -0.52995645095E+02 -0.42004443189E+02  0.70674177301E+03  0.70996961580E+03  0.10000000000E+00 0.  1.
         21    1    1    2  504  503  0.19272752414E+02  0.16696847451E+02  0.29497207214E+03  0.29607219904E+03  0.00000000000E+00 0. -1.
<mgrwt>
<rscale>  1 0.12756957E+03</rscale>
<asrwt>0</asrwt>
<pdfrwt beam="1">  1       21 0.17591503E+00 0.12756957E+03</pdfrwt>
<pdfrwt beam="2">  1       21 0.82280642E-03 0.12756957E+03</pdfrwt>
<totfact> 0.10071762E+06</totfact>
</mgrwt>
</event>
<event>
 6    1  0.4187588E-002  0.1264675E+03  0.7546771E-02  0.1232794E+00
         21   -1    0    0  504  502  0.00000000000E+00  0.00000000000E+00  0.36562238538E+02  0.36562238538E+02  0.00000000000E+00 0.  1.
         21   -1    0    0  502  503 -0.00000000000E+00 -0.00000000000E+00 -0.16045306741E+03  0.16045306741E+03  0.00000000000E+00 0.  1.
         25    2    1    2    0    0 -0.16989153242E+02 -0.89616700319E+01 -0.12494473521E+03  0.17777852929E+03  0.12500030305E+03 0.  0.
          5    1    3    3  501    0  0.35652580705E+02 -0.39027551525E+02 -0.98189231923E+02  0.11151408680E+03  0.10000000000E+00 0. -1.
         -5    1    3    3    0  501 -0.52641733947E+02  0.30065881493E+02 -0.26755503288E+02  0.66264442494E+02  0.10000000000E+00 0. -1.
         21    1    1    2  504  503  0.16989153242E+02  0.89616700319E+01  0.10539063345E+01  0.19236776658E+02  0.00000000000E+00 0. -1.
<mgrwt>
<rscale>  1 0.12646746E+03</rscale>
<asrwt>0</asrwt>
<pdfrwt beam="1">  1       21 0.56249599E-02 0.12646746E+03</pdfrwt>
<pdfrwt beam="2">  1       21 0.24685087E-01 0.12646746E+03</pdfrwt>
<totfact> 0.33770930E+06</totfact>
</mgrwt>
</event>
<event>
 6    1  0.4187588E-002  0.1473671E+03  0.7546771E-02  0.1203746E+00
         21   -1    0    0  504  502  0.00000000000E+00  0.00000000000E+00  0.17340697109E+04  0.17340697109E+04  0.00000000000E+00 0.  1.
         21   -1    0    0  502  503 -0.00000000000E+00 -0.00000000000E+00 -0.76585036911E+01  0.76585036911E+01  0.00000000000E+00 0.  1.
         25    2    1    2    0    0 -0.77784468830E+02 -0.59510138577E+01  0.94342770556E+03  0.95486799701E+03  0.12502486928E+03 0.  0.
          5    1    3    3  501    0 -0.90870322567E+02  0.15927572585E+02  0.38653312733E+03  0.39739020070E+03  0.10000000000E+00 0.  1.
         -5    1    3    3    0  501  0.13085853737E+02 -0.21878586443E+02  0.55689457823E+03  0.55747779631E+03  0.10000000000E+00 0.  1.
         21    1    1    2  504  503  0.77784468830E+02  0.59510138577E+01  0.78298350164E+03  0.78686021757E+03  0.00000000000E+00 0.  1.
<mgrwt>
<rscale>  1 0.14736708E+03</rscale>
<asrwt>0</asrwt>
<pdfrwt beam="1">  1       21 0.26677964E+00 0.14736708E+03</pdfrwt>
<pdfrwt beam="2">  1       21 0.11782327E-02 0.14736708E+03</pdfrwt>
<totfact> 0.15850261E+05</totfact>
</mgrwt>
</event>
<event>
 6    1  0.4187588E-002  0.1287132E+03  0.7546771E-02  0.1229378E+00
         21   -1    0    0  504  502  0.00000000000E+00  0.00000000000E+00  0.13435434263E+04  0.13435434263E+04  0.00000000000E+00 0. -1.
         21   -1    0    0  502  503 -0.00000000000E+00 -0.00000000000E+00 -0.55792097286E+01  0.55792097286E+01  0.00000000000E+00 0. -1.
         25    2    1    2    0    0  0.26860614441E+02 -0.14841248560E+02  0.80040170863E+03  0.81068489106E+03  0.12500136856E+03 0.  0.
          5    1    3    3  501    0  0.76393972130E+02 -0.15481138285E+02  0.43319132689E+03  0.44014820267E+03  0.10000000000E+00 0.  1.
         -5    1    3    3    0  501 -0.49533357689E+02  0.63988972499E+00  0.36721038174E+03  0.37053668839E+03  0.10000000000E+00 0.  1.
         21    1    1    2  504  503 -0.26860614441E+02  0.14841248560E+02  0.53756250790E+03  0.53843774494E+03  0.00000000000E+00 0. -1.
<mgrwt>
<rscale>  1 0.12871324E+03</rscale>
<asrwt>0</asrwt>
<pdfrwt beam="1">  1       21 0.20669873E+00 0.12871324E+03</pdfrwt>
<pdfrwt beam="2">  1       21 0.85834103E-03 0.12871324E+03</pdfrwt>
<totfact> 0.59653466E+05</totfact>
</mgrwt>
</event>
<event>
 6    1  0.4187588E-002  0.1289215E+03  0.7546771E-02  0.1229065E+00
         21   -1    0    0  503  502  0.00000000000E+00  0.00000000000E+00  0.23761810939E+02  0.23761810939E+02  0.00000000000E+00 0. -1.
         21   -1    0    0  504  503 -0.00000000000E+00 -0.00000000000E+00 -0.37338133928E+03  0.37338133928E+03  0.00000000000E+00 0. -1.
         25    2    1    2    0    0 -0.16281782819E+02  0.27065496436E+02 -0.34076948505E+03  0.36434130858E+03  0.12499243834E+03 0.  0.
          5    1    3    3  501    0  0.23585326861E+02  0.42869895758E+02 -0.30381626586E+03  0.30773109853E+03  0.10000000000E+00 0.  1.
         -5    1    3    3    0  501 -0.39867109680E+02 -0.15804399322E+02 -0.36953219195E+02  0.56610210043E+02  0.10000000000E+00 0.  1.
         21    1    1    2  504  502  0.16281782819E+02 -0.27065496436E+02 -0.88500432906E+01  0.32801841646E+02  0.00000000000E+00 0. -1.
<mgrwt>
<rscale>  1 0.12892148E+03</rscale>
<asrwt>0</asrwt>
<pdfrwt beam="1">  1       21 0.36556633E-02 0.12892148E+03</pdfrwt>
<pdfrwt beam="2">  1       21 0.57443281E-01 0.12892148E+03</pdfrwt>
<totfact> 0.12958409E+06</totfact>
</mgrwt>
</event>
<event>
 6    1  0.4187588E-002  0.1280330E+03  0.7546771E-02  0.1230404E+00
         21   -1    0    0  504  502  0.00000000000E+00  0.00000000000E+00  0.12945795338E+03  0.12945795338E+03  0.00000000000E+00 0. -1.
         21   -1    0    0  502  503 -0.00000000000E+00 -0.00000000000E+00 -0.47604803686E+02  0.47604803686E+02  0.00000000000E+00 0. -1.
         25    2    1    2    0    0 -0.24534771776E+02 -0.12916941518E+02  0.75432389078E+02  0.14860175619E+03  0.12499453674E+03 0.  0.
          5    1    3    3  501    0  0.35276491138E+02  0.55241988578E+01  0.78183872952E+02  0.85951588641E+02  0.10000000000E+00 0. -1.
         -5    1    3    3    0  501 -0.59811262915E+02 -0.18441140376E+02 -0.27514838747E+01  0.62650167544E+02  0.10000000000E+00 0. -1.
         21    1    1    2  504  503  0.24534771776E+02  0.12916941518E+02  0.64207606172E+01  0.28461000882E+02  0.00000000000E+00 0. -1.
<mgrwt>
<rscale>  1 0.12803295E+03</rscale>
<asrwt>0</asrwt>
<pdfrwt beam="1">  1       21 0.19916608E-01 0.12803295E+03</pdfrwt>
<pdfrwt beam="2">  1       21 0.73238160E-02 0.12803295E+03</pdfrwt>
<totfact> 0.32190772E+06</totfact>
</mgrwt>
</event>
<event>
 6    1  0.4187588E-002  0.1262881E+03  0.7546771E-02  0.1233070E+00
         21   -1    0    0  504  502  0.00000000000E+00  0.00000000000E+00  0.26136081843E+02  0.26136081843E+02  0.00000000000E+00 0. -1.
         21   -1    0    0  502  503 -0.00000000000E+00 -0.00000000000E+00 -0.22559133882E+03  0.22559133882E+03  0.00000000000E+00 0. -1.
         25    2    1    2    0    0 -0.29851257625E+01  0.17877118268E+02 -0.19617330699E+03  0.23330804149E+03  0.12498069257E+03 0.  0.
          5    1    3    3  501    0 -0.37588728369E+02 -0.17262221336E+02 -0.17468038643E+03  0.17951084700E+03  0.10000000000E+00 0.  1.
         -5    1    3    3    0  501  0.34603602607E+02  0.35139339605E+02 -0.21492920559E+02  0.53797194493E+02  0.10000000000E+00 0.  1.
         21    1    1    2  504  503  0.29851257625E+01 -0.17877118268E+02 -0.32819499870E+01  0.18419379173E+02  0.00000000000E+00 0. -1.
<mgrwt>
<rscale>  1 0.12628807E+03</rscale>
<asrwt>0</asrwt>
<pdfrwt beam="1">  1       21 0.40209356E-02 0.12628807E+03</pdfrwt>
<pdfrwt beam="2">  1       21 0.34706361E-01 0.12628807E+03</pdfrwt>
<totfact> 0.30771672E+06</totfact>
</mgrwt>
</event>
<event>
 6    1  0.4187588E-002  0.1442713E+03  0.7546771E-02  0.1207695E+00
         21   -1    0    0  504  502  0.00000000000E+00  0.00000000000E+00  0.77684769888E+02  0.77684769888E+02  0.00000000000E+00 0.  1.
         21   -1    0    0  502  503 -0.00000000000E+00 -0.00000000000E+00 -0.58167831438E+03  0.58167831438E+03  0.00000000000E+00 0.  1.
         25    2    1    2    0    0 -0.73246571974E+01 -0.71678910235E+02 -0.55346663936E+03  0.57196111695E+03  0.12499072623E+03 0.  0.
          5    1    3    3  501    0  0.33255662359E+02 -0.71358425844E+02 -0.49230880320E+03  0.49856386926E+03  0.10000000000E+00 0.  1.
         -5    1    3    3    0  501 -0.40580319557E+02 -0.32048439167E+00 -0.61157836159E+02  0.73397247695E+02  0.10000000000E+00 0.  1.
         21    1    1    2  504  503  0.73246571974E+01  0.71678910235E+02  0.49473094866E+02  0.87401967319E+02  0.00000000000E+00 0.  1.
<mgrwt>
<rscale>  1 0.14427127E+03</rscale>
<asrwt>0</asrwt>
<pdfrwt beam="1">  1       21 0.11951503E-01 0.14427127E+03</pdfrwt>
<pdfrwt beam="2">  1       21 0.89488972E-01 0.14427127E+03</pdfrwt>
<totfact> 0.64382756E+04</totfact>
</mgrwt>
</event>
<event>
 6    1  0.4187588E-002  0.1263750E+03  0.7546771E-02  0.1232936E+00
         21   -1    0    0  504  502  0.00000000000E+00  0.00000000000E+00  0.48812428426E+03  0.48812428426E+03  0.00000000000E+00 0.  1.
         21   -1    0    0  502  503 -0.00000000000E+00 -0.00000000000E+00 -0.10821543042E+02  0.10821543042E+02  0.00000000000E+00 0.  1.
         25    2    1    2    0    0  0.79125285540E+00  0.18546446855E+02  0.40243633177E+03  0.42181233240E+03  0.12500418339E+03 0.  0.
          5    1    3    3  501    0 -0.26850029312E+02  0.24937907093E+02  0.38846216304E+03  0.39018673145E+03  0.10000000000E+00 0. -1.
         -5    1    3    3    0  501  0.27641282168E+02 -0.63914602387E+01  0.13974168727E+02  0.31625600950E+02  0.10000000000E+00 0. -1.
         21    1    1    2  504  503 -0.79125285540E+00 -0.18546446855E+02  0.74866409445E+02  0.77133494898E+02  0.00000000000E+00 0.  1.
<mgrwt>
<rscale>  1 0.12637501E+03</rscale>
<asrwt>0</asrwt>
<pdfrwt beam="1">  1       21 0.75096027E-01 0.12637501E+03</pdfrwt>
<pdfrwt beam="2">  1       21 0.16648532E-02 0.12637501E+03</pdfrwt>
<totfact> 0.26132706E+06</totfact>
</mgrwt>
</event>
<event>
 6    1  0.4187588E-002  0.1356182E+03  0.7546771E-02  0.1219350E+00
         21   -1    0    0  503  502  0.00000000000E+00  0.00000000000E+00  0.42990068505E+02  0.42990068505E+02  0.00000000000E+00 0. -1.
         21   -1    0    0  504  503 -0.00000000000E+00 -0.00000000000E+00 -0.22429097302E+03  0.22429097302E+03  0.00000000000E+00 0. -1.
         25    2    1    2    0    0  0.50248076836E+02  0.15548078912E+02 -0.16195262004E+03  0.21123670108E+03  0.12500272302E+03 0.  0.
          5    1    3    3  501    0  0.72786805371E+02  0.52656432716E+02 -0.89759323251E+02  0.12699356304E+03  0.10000000000E+00 0. -1.
         -5    1    3    3    0  501 -0.22538728535E+02 -0.37108353804E+02 -0.72193296790E+02  0.84243138044E+02  0.10000000000E+00 0. -1.
         21    1    1    2  504  502 -0.50248076836E+02 -0.15548078912E+02 -0.19348284473E+02  0.56044340442E+02  0.00000000000E+00 0. -1.
<mgrwt>
<rscale>  1 0.13561819E+03</rscale>
<asrwt>0</asrwt>
<pdfrwt beam="1">  1       21 0.66138567E-02 0.13561819E+03</pdfrwt>
<pdfrwt beam="2">  1       21 0.34506304E-01 0.13561819E+03</pdfrwt>
<totfact> 0.13492256E+06</totfact>
</mgrwt>
</event>
<event>
 6    1  0.4187588E-002  0.1261591E+03  0.7546771E-02  0.1233269E+00
         21   -1    0    0  503  502  0.00000000000E+00  0.00000000000E+00  0.68241731458E+02  0.68241731458E+02  0.00000000000E+00 0. -1.
         21   -1    0    0  504  503 -0.00000000000E+00 -0.00000000000E+00 -0.17915462161E+03  0.17915462161E+03  0.00000000000E+00 0. -1.
         25    2    1    2    0    0 -0.14615286336E+02 -0.88210223609E+01 -0.15515619285E+03  0.19997392311E+03  0.12499883486E+03 0.  0.
          5    1    3    3  501    0 -0.81944021074E+01 -0.65684145916E+02 -0.62296097868E+02  0.90897574556E+02  0.10000000000E+00 0. -1.
         -5    1    3    3    0  501 -0.64208842281E+01  0.56863123555E+02 -0.92860094978E+02  0.10907634855E+03  0.10000000000E+00 0. -1.
         21    1    1    2  504  502  0.14615286336E+02  0.88210223609E+01  0.44243302692E+02  0.47422429959E+02  0.00000000000E+00 0. -1.
<mgrwt>
<rscale>  1 0.12615913E+03</rscale>
<asrwt>0</asrwt>
<pdfrwt beam="1">  1       21 0.10498728E-01 0.12615913E+03</pdfrwt>
<pdfrwt beam="2">  1       21 0.27562250E-01 0.12615913E+03</pdfrwt>
<totfact> 0.93658644E+05</totfact>
</mgrwt>
</event>
<event>
 6    1  0.4187588E-002  0.1284942E+03  0.7546771E-02  0.1229707E+00
         21   -1    0    0  504  502  0.00000000000E+00  0.00000000000E+00  0.10062431073E+03  0.10062431073E+03  0.00000000000E+00 0. -1.
         21   -1    0    0  502  503 -0.00000000000E+00 -0.00000000000E+00 -0.28245627625E+03  0.28245627625E+03  0.00000000000E+00 0. -1.
         25    2    1    2    0    0 -0.26684304481E+02 -0.13461928773E+02 -0.26510641714E+03  0.29460511057E+03  0.12496992892E+03 0.  0.
          5    1    3    3  501    0  0.30766303464E+02  0.86303190764E+01 -0.20865050784E+03  0.21108314063E+03  0.10000000000E+00 0.  1.
         -5    1    3    3    0  501 -0.57450607945E+02 -0.22092247850E+02 -0.56455909304E+02  0.83521969946E+02  0.10000000000E+00 0.  1.
         21    1    1    2  504  503  0.26684304481E+02  0.13461928773E+02  0.83274451622E+02  0.88475476404E+02  0.00000000000E+00 0. -1.
<mgrwt>
<rscale>  1 0.12849420E+03</rscale>
<asrwt>0</asrwt>
<pdfrwt beam="1">  1       21 0.15480663E-01 0.12849420E+03</pdfrwt>
<pdfrwt beam="2">  1       21 0.43454811E-01 0.12849420E+03</pdfrwt>
<totfact> 0.19197779E+05</totfact>
</mgrwt>
</event>
<event>
 6    1  0.4187588E-002  0.1636283E+03  0.7546771E-02  0.1184660E+00
         21   -1    0    0  503  502  0.00000000000E+00  0.00000000000E+00  0.90566961091E+02  0.90566961091E+02  0.00000000000E+00 0. -1.
         21   -1    0    0  504  503 -0.00000000000E+00 -0.00000000000E+00 -0.25898540246E+03  0.25898540246E+03  0.00000000000E+00 0.  1.
         25    2    1    2    0    0 -0.75163603748E+02  0.74168517348E+02 -0.18007715804E+03  0.24331460206E+03  0.12499470562E+03 0.  0.
          5    1    3    3  501    0 -0.70591511671E+01 -0.32578497838E+02 -0.18803614521E+02  0.38272392865E+02  0.10000000000E+00 0. -1.
         -5    1    3    3    0  501 -0.68104452581E+02  0.10674701519E+03 -0.16127354352E+03  0.20504220919E+03  0.10000000000E+00 0. -1.
         21    1    1    2  504  502  0.75163603748E+02 -0.74168517348E+02  0.11658716662E+02  0.10623776150E+03  0.00000000000E+00 0. -1.
<mgrwt>
<rscale>  1 0.16362828E+03</rscale>
<asrwt>0</asrwt>
<pdfrwt beam="1">  1       21 0.13933379E-01 0.16362828E+03</pdfrwt>
<pdfrwt beam="2">  1       21 0.39843908E-01 0.16362828E+03</pdfrwt>
<totfact> 0.27429131E+05</totfact>
</mgrwt>
</event>
<event>
 6    1  0.4187588E-002  0.1660123E+03  0.7546771E-02  0.1182071E+00
         21   -1    0    0  504  502  0.00000000000E+00  0.00000000000E+00  0.89567880988E+02  0.89567880988E+02  0.00000000000E+00 0. -1.
         21   -1    0    0  502  503 -0.00000000000E+00 -0.00000000000E+00 -0.23471462514E+03  0.23471462514E+03  0.00000000000E+00 0. -1.
         25    2    1    2    0    0 -0.44447928975E+02 -0.99794747850E+02 -0.13608683581E+03  0.21466183277E+03  0.12500186190E+03 0.  0.
          5    1    3    3  501    0  0.25507152584E+02  0.25856850672E+01  0.57403084383E+01  0.26272832759E+02  0.10000000000E+00 0.  1.
         -5    1    3    3    0  501 -0.69955081559E+02 -0.10238043292E+03 -0.14182714425E+03  0.18838900001E+03  0.10000000000E+00 0.  1.
         21    1    1    2  504  503  0.44447928975E+02  0.99794747850E+02 -0.90599083459E+01  0.10962067336E+03  0.00000000000E+00 0. -1.
<mgrwt>
<rscale>  1 0.16601228E+03</rscale>
<asrwt>0</asrwt>
<pdfrwt beam="1">  1       21 0.13779674E-01 0.16601228E+03</pdfrwt>
<pdfrwt beam="2">  1       21 0.36109941E-01 0.16601228E+03</pdfrwt>
<totfact> 0.34040291E+05</totfact>
</mgrwt>
</event>
<event>
 6    1  0.4187588E-002  0.2215097E+03  0.7546771E-02  0.1132762E+00
         21   -1    0    0  504  502  0.00000000000E+00  0.00000000000E+00  0.13873694723E+03  0.13873694723E+03  0.00000000000E+00 0. -1.
         21   -1    0    0  502  503 -0.00000000000E+00 -0.00000000000E+00 -0.10202460655E+04  0.10202460655E+04  0.00000000000E+00 0. -1.
         25    2    1    2    0    0  0.58321399884E+02 -0.17332294418E+03 -0.94096689860E+03  0.96668778057E+03  0.12499732870E+03 0.  0.
          5    1    3    3  501    0 -0.26723267562E+02 -0.11569020048E+03 -0.51361242955E+03  0.52715850871E+03  0.10000000000E+00 0. -1.
         -5    1    3    3    0  501  0.85044667446E+02 -0.57632743700E+02 -0.42735446905E+03  0.43952927186E+03  0.10000000000E+00 0. -1.
         21    1    1    2  504  503 -0.58321399884E+02  0.17332294418E+03  0.59457780341E+02  0.19229523215E+03  0.00000000000E+00 0. -1.
<mgrwt>
<rscale>  1 0.22150973E+03</rscale>
<asrwt>0</asrwt>
<pdfrwt beam="1">  1       21 0.21344146E-01 0.22150973E+03</pdfrwt>
<pdfrwt beam="2">  1       21 0.15696093E+00 0.22150973E+03</pdfrwt>
<totfact> 0.52902611E+03</totfact>
</mgrwt>
</event>
<event>
 6    1  0.4187588E-002  0.1271372E+03  0.7546771E-02  0.1231766E+00
         21   -1    0    0  504  502  0.00000000000E+00  0.00000000000E+00  0.11313562727E+03  0.11313562727E+03  0.00000000000E+00 0. -1.
         21   -1    0    0  502  503 -0.00000000000E+00 -0.00000000000E+00 -0.18074712075E+03  0.18074712075E+03  0.00000000000E+00 0.  1.
         25    2    1    2    0    0  0.15772028791E+02  0.17023639025E+02 -0.15671852979E+03  0.20180329811E+03  0.12500124948E+03 0.  0.
          5    1    3    3  501    0  0.17984891266E+02  0.16069337203E+02  0.16080489590E+02  0.28987446549E+02  0.10000000000E+00 0. -1.
         -5    1    3    3    0  501 -0.22128624755E+01  0.95430182246E+00 -0.17279901938E+03  0.17281585156E+03  0.10000000000E+00 0. -1.
         21    1    1    2  504  503 -0.15772028791E+02 -0.17023639025E+02  0.89107036306E+02  0.92079449917E+02  0.00000000000E+00 0. -1.
<mgrwt>
<rscale>  1 0.12713722E+03</rscale>
<asrwt>0</asrwt>
<pdfrwt beam="1">  1       21 0.17405481E-01 0.12713722E+03</pdfrwt>
<pdfrwt beam="2">  1       21 0.27807249E-01 0.12713722E+03</pdfrwt>
<totfact> 0.37299669E+05</totfact>
</mgrwt>
</event>
<event>
 6    1  0.4187588E-002  0.1300820E+03  0.7546771E-02  0.1227334E+00
         21   -1    0    0  504  502  0.00000000000E+00  0.00000000000E+00  0.96735077498E+03  0.96735077498E+03  0.00000000000E+00 0.  1.
         21   -1    0    0  502  503 -0.00000000000E+00 -0.00000000000E+00 -0.17148874017E+02  0.17148874017E+02  0.00000000000E+00 0.  1.
         25    2    1    2    0    0 -0.15340858477E+02 -0.32378131165E+02  0.23662264124E+03  0.27002148613E+03  0.12505056299E+03 0.  0.
          5    1    3    3  501    0  0.14532589410E+02  0.43214270867E+02  0.57996286249E+02  0.73771597382E+02  0.10000000000E+00 0. -1.
         -5    1    3    3    0  501 -0.29873447887E+02 -0.75592402033E+02  0.17862635499E+03  0.19624988874E+03  0.10000000000E+00 0. -1.
         21    1    1    2  504  503  0.15340858477E+02  0.32378131165E+02  0.71357925972E+03  0.71447816288E+03  0.00000000000E+00 0.  1.
<mgrwt>
<rscale>  1 0.13008201E+03</rscale>
<asrwt>0</asrwt>
<pdfrwt beam="1">  1       21 0.14882315E+00 0.13008201E+03</pdfrwt>
<pdfrwt beam="2">  1       21 0.26382891E-02 0.13008201E+03</pdfrwt>
<totfact> 0.24426888E+05</totfact>
</mgrwt>
</event>
<event>
 6    1  0.4187588E-002  0.1285023E+03  0.7546771E-02  0.1229695E+00
         21   -1    0    0  503  502  0.00000000000E+00  0.00000000000E+00  0.22349822130E+03  0.22349822130E+03  0.00000000000E+00 0. -1.
         21   -1    0    0  504  503 -0.00000000000E+00 -0.00000000000E+00 -0.73662332356E+02  0.73662332356E+02  0.00000000000E+00 0. -1.
         25    2    1    2    0    0 -0.29746099506E+02  0.19461002312E+01 -0.15250729042E+02  0.12940415533E+03  0.12499693171E+03 0.  0.
          5    1    3    3  501    0  0.33691402659E+02  0.41116855384E+02  0.69274277476E+00  0.53161981738E+02  0.10000000000E+00 0. -1.
         -5    1    3    3    0  501 -0.63437502165E+02 -0.39170755152E+02 -0.15943471816E+02  0.76242173590E+02  0.10000000000E+00 0. -1.
         21    1    1    2  504  502  0.29746099506E+02 -0.19461002312E+01  0.16508661799E+03  0.16775639833E+03  0.00000000000E+00 0. -1.
<mgrwt>
<rscale>  1 0.12850234E+03</rscale>
<asrwt>0</asrwt>
<pdfrwt beam="1">  1       21 0.34384341E-01 0.12850234E+03</pdfrwt>
<pdfrwt beam="2">  1       21 0.11332667E-01 0.12850234E+03</pdfrwt>
<totfact> 0.53380978E+05</totfact>
</mgrwt>
</event>
<event>
 6    1  0.4187588E-002  0.1264816E+03  0.7546771E-02  0.1232772E+00
         21   -1    0    0  504  502  0.00000000000E+00  0.00000000000E+00  0.13996774331E+02  0.13996774331E+02  0.00000000000E+00 0. -1.
         21   -1    0    0  502  503 -0.00000000000E+00 -0.00000000000E+00 -0.43540264678E+03  0.43540264678E+03  0.00000000000E+00 0. -1.
         25    2    1    2    0    0 -0.45345243711E+01  0.18746651557E+02 -0.40428910506E+03  0.42361216492E+03  0.12500234776E+03 0.  0.
          5    1    3    3  501    0  0.26033884040E+02  0.44278372002E+02 -0.36159399286E+03  0.36522399020E+03  0.10000000000E+00 0. -1.
         -5    1    3    3    0  501 -0.30568408412E+02 -0.25531720444E+02 -0.42695112197E+02  0.58388174721E+02  0.10000000000E+00 0. -1.
         21    1    1    2  504  503  0.45345243711E+01 -0.18746651557E+02 -0.17116767389E+02  0.25787256189E+02  0.00000000000E+00 0. -1.
<mgrwt>
<rscale>  1 0.12648156E+03</rscale>
<asrwt>0</asrwt>
<pdfrwt beam="1">  1       21 0.21533502E-02 0.12648156E+03</pdfrwt>
<pdfrwt beam="2">  1       21 0.66985014E-01 0.12648156E+03</pdfrwt>
<totfact> 0.22170160E+06</totfact>
</mgrwt>
</event>
<event>
 6    1  0.4187588E-002  0.1729034E+03  0.7546771E-02  0.1174853E+00
         21   -1    0    0  504  502  0.00000000000E+00  0.00000000000E+00  0.81701229758E+01  0.81701229758E+01  0.00000000000E+00 0.  1.
         21   -1    0    0  502  503 -0.00000000000E+00 -0.00000000000E+00 -0.29598669770E+04  0.29598669770E+04  0.00000000000E+00 0.  1.
         25    2    1    2    0    0  0.11578586729E+03  0.29398430231E+02 -0.22128970907E+04  0.22196416663E+04  0.12499983305E+03 0.  0.
          5    1    3    3  501    0  0.86946945542E+02  0.48942456982E+02 -0.20754957992E+04  0.20778926723E+04  0.10000000000E+00 0. -1.
         -5    1    3    3    0  501  0.28838921751E+02 -0.19544026751E+02 -0.13740129150E+03  0.14174899398E+03  0.10000000000E+00 0. -1.
         21    1    1    2  504  503 -0.11578586729E+03 -0.29398430231E+02 -0.73879976336E+03  0.74839543365E+03  0.00000000000E+00 0.  1.
<mgrwt>
<rscale>  1 0.17290342E+03</rscale>
<asrwt>0</asrwt>
<pdfrwt beam="1">  1       21 0.12569408E-02 0.17290342E+03</pdfrwt>
<pdfrwt beam="2">  1       21 0.45536460E+00 0.17290342E+03</pdfrwt>
<totfact> 0.10269644E+04</totfact>
</mgrwt>
</event>
<event>
 6    1  0.4187588E-002  0.1263027E+03  0.7546771E-02  0.1233047E+00
         21   -1    0    0  503  502  0.00000000000E+00  0.00000000000E+00  0.81731848570E+02  0.81731848570E+02  0.00000000000E+00 0. -1.
         21   -1    0    0  504  503 -0.00000000000E+00 -0.00000000000E+00 -0.66788848625E+02  0.66788848625E+02  0.00000000000E+00 0. -1.
         25    2    1    2    0    0 -0.21548010963E+01  0.17989751561E+02  0.21140827146E+01  0.12632034931E+03  0.12499634784E+03 0.  0.
          5    1    3    3  501    0  0.12119709219E+02  0.52731326339E+01  0.62032996214E+02  0.63425514571E+02  0.10000000000E+00 0.  1.
         -5    1    3    3    0  501 -0.14274510316E+02  0.12716618928E+02 -0.59918913499E+02  0.62894834737E+02  0.10000000000E+00 0.  1.
         21    1    1    2  504  502  0.21548010963E+01 -0.17989751561E+02  0.12828917231E+02  0.22200347887E+02  0.00000000000E+00 0. -1.
<mgrwt>
<rscale>  1 0.12630266E+03</rscale>
<asrwt>0</asrwt>
<pdfrwt beam="1">  1       21 0.12574131E-01 0.12630266E+03</pdfrwt>
<pdfrwt beam="2">  1       21 0.10275208E-01 0.12630266E+03</pdfrwt>
<totfact> 0.41148267E+06</totfact>
</mgrwt>
</event>
<event>
 6    1  0.4187588E-002  0.1327413E+03  0.7546771E-02  0.1223444E+00
         21   -1    0    0  503  502  0.00000000000E+00  0.00000000000E+00  0.14913771853E+03  0.14913771853E+03  0.00000000000E+00 0.  1.
         21   -1    0    0  504  503 -0.00000000000E+00 -0.00000000000E+00 -0.10660017943E+03  0.10660017943E+03  0.00000000000E+00 0. -1.
         25    2    1    2    0    0 -0.44279392313E+02 -0.59890376014E+01 -0.58652281696E+02  0.14512183680E+03  0.12499489674E+03 0.  0.
          5    1    3    3  501    0  0.27202494224E+02 -0.28848122956E+02 -0.57770332122E+02  0.70068617537E+02  0.10000000000E+00 0.  1.
         -5    1    3    3    0  501 -0.71481886537E+02  0.22859085355E+02 -0.88194957411E+00  0.75053219259E+02  0.10000000000E+00 0.  1.
         21    1    1    2  504  502  0.44279392313E+02  0.59890376014E+01  0.10118982080E+03  0.11061606117E+03  0.00000000000E+00 0.  1.
<mgrwt>
<rscale>  1 0.13274132E+03</rscale>
<asrwt>0</asrwt>
<pdfrwt beam="1">  1       21 0.22944264E-01 0.13274132E+03</pdfrwt>
<pdfrwt beam="2">  1       21 0.16400028E-01 0.13274132E+03</pdfrwt>
<totfact> 0.59780918E+05</totfact>
</mgrwt>
</event>
<event>
 6    1  0.4187588E-002  0.1354268E+03  0.7546771E-02  0.1219618E+00
         21   -1    0    0  503  502  0.00000000000E+00  0.00000000000E+00  0.64436193345E+03  0.64436193345E+03  0.00000000000E+00 0.  1.
         21   -1    0    0  504  503 -0.00000000000E+00 -0.00000000000E+00 -0.23939728601E+02  0.23939728601E+02  0.00000000000E+00 0.  1.
         25    2    1    2    0    0 -0.41213602131E+02 -0.31901897438E+02  0.18234226894E+03  0.22713239487E+03  0.12499651873E+03 0.  0.
          5    1    3    3  501    0  0.37131708974E+02  0.19285167568E+02  0.56687392589E+02  0.70456738344E+02  0.10000000000E+00 0. -1.
         -5    1    3    3    0  501 -0.78345311105E+02 -0.51187065006E+02  0.12565487635E+03  0.15667565652E+03  0.10000000000E+00 0. -1.
         21    1    1    2  504  502  0.41213602131E+02  0.31901897438E+02  0.43807993592E+03  0.44116926719E+03  0.00000000000E+00 0.  1.
<mgrwt>
<rscale>  1 0.13542681E+03</rscale>
<asrwt>0</asrwt>
<pdfrwt beam="1">  1       21 0.99132592E-01 0.13542681E+03</pdfrwt>
<pdfrwt beam="2">  1       21 0.36830357E-02 0.13542681E+03</pdfrwt>
<totfact> 0.38198639E+05</totfact>
</mgrwt>
</event>
<event>
 6    1  0.4187588E-002  0.1358429E+03  0.7546771E-02  0.1219035E+00
         21   -1    0    0  504  502  0.00000000000E+00  0.00000000000E+00  0.32479023641E+03  0.32479023641E+03  0.00000000000E+00 0. -1.
         21   -1    0    0  502  503 -0.00000000000E+00 -0.00000000000E+00 -0.82308667218E+02  0.82308667218E+02  0.00000000000E+00 0. -1.
         25    2    1    2    0    0  0.48899874374E+01  0.52911081652E+02 -0.21753799969E+02  0.13757371955E+03  0.12501922235E+03 0.  0.
          5    1    3    3  501    0 -0.41949092166E+02  0.16904261326E+01 -0.47636664440E+02  0.63496816243E+02  0.10000000000E+00 0.  1.
         -5    1    3    3    0  501  0.46839079603E+02  0.51220655519E+02  0.25882864471E+02  0.74076903304E+02  0.10000000000E+00 0.  1.
         21    1    1    2  504  503 -0.48899874374E+01 -0.52911081652E+02  0.26423536916E+03  0.26952518408E+03  0.00000000000E+00 0. -1.
<mgrwt>
<rscale>  1 0.13584293E+03</rscale>
<asrwt>0</asrwt>
<pdfrwt beam="1">  1       21 0.49967728E-01 0.13584293E+03</pdfrwt>
<pdfrwt beam="2">  1       21 0.12662872E-01 0.13584293E+03</pdfrwt>
<totfact> 0.20654282E+05</totfact>
</mgrwt>
</event>
<event>
 6    1  0.4187588E-002  0.1387883E+03  0.7546771E-02  0.1214969E+00
         21   -1    0    0  504  502  0.00000000000E+00  0.00000000000E+00  0.31727991156E+03  0.31727991156E+03  0.00000000000E+00 0. -1.
         21   -1    0    0  502  503 -0.00000000000E+00 -0.00000000000E+00 -0.95076164911E+02  0.95076164911E+02  0.00000000000E+00 0.  1.
         25    2    1    2    0    0 -0.16701348716E+02  0.57953551600E+02 -0.39093072061E+02  0.14418900791E+03  0.12499861010E+03 0.  0.
          5    1    3    3  501    0  0.40899500630E+02  0.77585295731E+01 -0.52098015342E+02  0.66687158700E+02  0.10000000000E+00 0. -1.
         -5    1    3    3    0  501 -0.57600849346E+02  0.50195022027E+02  0.13004943281E+02  0.77501849212E+02  0.10000000000E+00 0. -1.
         21    1    1    2  504  503  0.16701348716E+02 -0.57953551600E+02  0.26129681871E+03  0.26816706856E+03  0.00000000000E+00 0. -1.
<mgrwt>
<rscale>  1 0.13878833E+03</rscale>
<asrwt>0</asrwt>
<pdfrwt beam="1">  1       21 0.48812294E-01 0.13878833E+03</pdfrwt>
<pdfrwt beam="2">  1       21 0.14627102E-01 0.13878833E+03</pdfrwt>
<totfact> 0.16725946E+05</totfact>
</mgrwt>
</event>
<event>
 6    1  0.4187588E-002  0.1295577E+03  0.7546771E-02  0.1228114E+00
         21   -1    0    0  503  502  0.00000000000E+00  0.00000000000E+00  0.98195462151E+02  0.98195462151E+02  0.00000000000E+00 0.  1.
         21   -1    0    0  504  503 -0.00000000000E+00 -0.00000000000E+00 -0.17038373376E+03  0.17038373376E+03  0.00000000000E+00 0. -1.
         25    2    1    2    0    0  0.22158510316E+02  0.25892435219E+02 -0.14118772585E+03  0.19162243879E+03  0.12499506924E+03 0.  0.
          5    1    3    3  501    0 -0.34664349068E+02  0.27804494279E+02 -0.58422461603E+01  0.44820183384E+02  0.10000000000E+00 0. -1.
         -5    1    3    3    0  501  0.56822859384E+02 -0.19120590594E+01 -0.13534547969E+03  0.14680225540E+03  0.10000000000E+00 0. -1.
         21    1    1    2  504  502 -0.22158510316E+02 -0.25892435219E+02  0.68999454244E+02  0.76956757123E+02  0.00000000000E+00 0.  1.
<mgrwt>
<rscale>  1 0.12955765E+03</rscale>
<asrwt>0</asrwt>
<pdfrwt beam="1">  1       21 0.15106994E-01 0.12955765E+03</pdfrwt>
<pdfrwt beam="2">  1       21 0.26212882E-01 0.12955765E+03</pdfrwt>
<totfact> 0.53957401E+05</totfact>
</mgrwt>
</event>
<event>
 6    1  0.4187588E-002  0.1271233E+03  0.7546771E-02  0.1231788E+00
         21   -1    0    0  503  502  0.00000000000E+00  0.00000000000E+00  0.29766371748E+02  0.29766371748E+02  0.00000000000E+00 0. -1.
         21   -1    0    0  504  503 -0.00000000000E+00 -0.00000000000E+00 -0.36493426229E+03  0.36493426229E+03  0.00000000000E+00 0. -1.
         25    2    1    2    0    0  0.22908646164E+02  0.86831503802E-02 -0.34654265612E+03  0.36912346773E+03  0.12504205601E+03 0.  0.
          5    1    3    3  501    0 -0.40119158405E+02 -0.13278202013E+02 -0.49079933460E+02  0.64766560725E+02  0.10000000000E+00 0. -1.
         -5    1    3    3    0  501  0.63027804569E+02  0.13286885164E+02 -0.29746272266E+03  0.30435690700E+03  0.10000000000E+00 0. -1.
         21    1    1    2  504  502 -0.22908646164E+02 -0.86831503802E-02  0.11374765580E+02  0.25577166311E+02  0.00000000000E+00 0. -1.
<mgrwt>
<rscale>  1 0.12712325E+03</rscale>
<asrwt>0</asrwt>
<pdfrwt beam="1">  1       21 0.45794415E-02 0.12712325E+03</pdfrwt>
<pdfrwt beam="2">  1       21 0.56143736E-01 0.12712325E+03</pdfrwt>
<totfact> 0.93478447E+05</totfact>
</mgrwt>
</event>
<event>
 6    1  0.4187588E-002  0.1274235E+03  0.7546771E-02  0.1231330E+00
         21   -1    0    0  503  502  0.00000000000E+00  0.00000000000E+00  0.32171393702E+02  0.32171393702E+02  0.00000000000E+00 0. -1.
         21   -1    0    0  504  503 -0.00000000000E+00 -0.00000000000E+00 -0.18026716199E+03  0.18026716199E+03  0.00000000000E+00 0. -1.
         25    2    1    2    0    0  0.23256459865E+02 -0.85878952340E+01 -0.12116773854E+03  0.17583618341E+03  0.12498851013E+03 0.  0.
          5    1    3    3  501    0 -0.50965338716E+02 -0.13591760644E+02 -0.44510227038E+02  0.69017186401E+02  0.10000000000E+00 0.  1.
         -5    1    3    3    0  501  0.74221798580E+02  0.50038654101E+01 -0.76657511498E+02  0.10681899701E+03  0.10000000000E+00 0.  1.
         21    1    1    2  504  502 -0.23256459865E+02  0.85878952340E+01 -0.26928029748E+02  0.36602372274E+02  0.00000000000E+00 0. -1.
<mgrwt>
<rscale>  1 0.12742348E+03</rscale>
<asrwt>0</asrwt>
<pdfrwt beam="1">  1       21 0.49494452E-02 0.12742348E+03</pdfrwt>
<pdfrwt beam="2">  1       21 0.27733410E-01 0.12742348E+03</pdfrwt>
<totfact> 0.33591168E+06</totfact>
</mgrwt>
</event>
<event>
 6    1  0.4187588E-002  0.1276354E+03  0.7546771E-02  0.1231007E+00
         21   -1    0    0  503  502  0.00000000000E+00  0.00000000000E+00  0.75178904409E+02  0.75178904409E+02  0.00000000000E+00 0.  1.
         21   -1    0    0  504  503 -0.00000000000E+00 -0.00000000000E+00 -0.78768814925E+02  0.78768814925E+02  0.00000000000E+00 0.  1.
         25    2    1    2    0    0 -0.25557542705E+02  0.35271621453E+01 -0.74893648307E+01  0.12785491178E+03  0.12500063608E+03 0.  0.
          5    1    3    3  501    0  0.24569643256E+02 -0.40342109923E+02  0.25327671359E+02  0.53597146745E+02  0.10000000000E+00 0.  1.
         -5    1    3    3    0  501 -0.50127185960E+02  0.43869272068E+02 -0.32817036190E+02  0.74257765038E+02  0.10000000000E+00 0.  1.
         21    1    1    2  504  502  0.25557542705E+02 -0.35271621453E+01  0.38994543145E+01  0.26092807550E+02  0.00000000000E+00 0.  1.
<mgrwt>
<rscale>  1 0.12763537E+03</rscale>
<asrwt>0</asrwt>
<pdfrwt beam="1">  1       21 0.11565985E-01 0.12763537E+03</pdfrwt>
<pdfrwt beam="2">  1       21 0.12118279E-01 0.12763537E+03</pdfrwt>
<totfact> 0.35696263E+06</totfact>
</mgrwt>
</event>
<event>
 6    1  0.4187588E-002  0.1725902E+03  0.7546771E-02  0.1175173E+00
         21   -1    0    0  503  502  0.00000000000E+00  0.00000000000E+00  0.29689070108E+03  0.29689070108E+03  0.00000000000E+00 0.  1.
         21   -1    0    0  504  503 -0.00000000000E+00 -0.00000000000E+00 -0.88437451906E+02  0.88437451906E+02  0.00000000000E+00 0.  1.
         25    2    1    2    0    0  0.76583646631E+02 -0.91088607378E+02  0.36820552974E+02  0.17647420466E+03  0.12500080985E+03 0.  0.
          5    1    3    3  501    0  0.70836449392E+02 -0.21613793639E+00  0.46761139382E+02  0.84879110707E+02  0.10000000000E+00 0. -1.
         -5    1    3    3    0  501  0.57471972389E+01 -0.90872469441E+02 -0.99405864080E+01  0.91595093955E+02  0.10000000000E+00 0. -1.
         21    1    1    2  504  502 -0.76583646631E+02  0.91088607378E+02  0.17163269620E+03  0.20885394832E+03  0.00000000000E+00 0.  1.
<mgrwt>
<rscale>  1 0.17259024E+03</rscale>
<asrwt>0</asrwt>
<pdfrwt beam="1">  1       21 0.45675492E-01 0.17259024E+03</pdfrwt>
<pdfrwt beam="2">  1       21 0.13605762E-01 0.17259024E+03</pdfrwt>
<totfact> 0.21639218E+05</totfact>
</mgrwt>
</event>
<event>
 6    1  0.4187588E-002  0.1271198E+03  0.7546771E-02  0.1231793E+00
         21   -1    0    0  504  502  0.00000000000E+00  0.00000000000E+00  0.18357024349E+02  0.18357024349E+02  0.00000000000E+00 0. -1.
         21   -1    0    0  502  503 -0.00000000000E+00 -0.00000000000E+00 -0.31957147146E+03  0.31957147146E+03  0.00000000000E+00 0. -1.
         25    2    1    2    0    0 -0.22901102743E+02 -0.31004272970E+01 -0.27514104550E+03  0.30308749370E+03  0.12500144305E+03 0.  0.
          5    1    3    3  501    0 -0.14106014986E+00 -0.53056617092E+02 -0.21589041920E+03  0.22231443411E+03  0.10000000000E+00 0. -1.
         -5    1    3    3    0  501 -0.22760042593E+02  0.49956189795E+02 -0.59250626303E+02  0.80773059587E+02  0.10000000000E+00 0. -1.
         21    1    1    2  504  503  0.22901102743E+02  0.31004272970E+01 -0.26073401614E+02  0.34841002110E+02  0.00000000000E+00 0. -1.
<mgrwt>
<rscale>  1 0.12711976E+03</rscale>
<asrwt>0</asrwt>
<pdfrwt beam="1">  1       21 0.28241575E-02 0.12711976E+03</pdfrwt>
<pdfrwt beam="2">  1       21 0.49164843E-01 0.12711976E+03</pdfrwt>
<totfact> 0.27380739E+06</totfact>
</mgrwt>
</event>
<event>
 6    1  0.4187588E-002  0.2111302E+03  0.7546771E-02  0.1140674E+00
         21   -1    0    0  503  502  0.00000000000E+00  0.00000000000E+00  0.30944246440E+02  0.30944246440E+02  0.00000000000E+00 0. -1.
         21   -1    0    0  504  503 -0.00000000000E+00 -0.00000000000E+00 -0.17059613383E+04  0.17059613383E+04  0.00000000000E+00 0. -1.
         25    2    1    2    0    0  0.68520242792E+02  0.15574441055E+03 -0.13822784492E+04  0.13983095747E+04  0.12499844220E+03 0.  0.
          5    1    3    3  501    0  0.85979293319E+02  0.16637997291E+03 -0.11518564859E+04  0.11669824799E+04  0.10000000000E+00 0.  1.
         -5    1    3    3    0  501 -0.17459050527E+02 -0.10635562363E+02 -0.23042196329E+03  0.23132709482E+03  0.10000000000E+00 0.  1.
         21    1    1    2  504  502 -0.68520242792E+02 -0.15574441055E+03 -0.29273864262E+03  0.33859600998E+03  0.00000000000E+00 0. -1.
<mgrwt>
<rscale>  1 0.21113019E+03</rscale>
<asrwt>0</asrwt>
<pdfrwt beam="1">  1       21 0.47606524E-02 0.21113019E+03</pdfrwt>
<pdfrwt beam="2">  1       21 0.26245564E+00 0.21113019E+03</pdfrwt>
<totfact> 0.16163037E+04</totfact>
</mgrwt>
</event>
<event>
 6    1  0.4187588E-002  0.1328318E+03  0.7546771E-02  0.1223313E+00
         21   -1    0    0  503  502  0.00000000000E+00  0.00000000000E+00  0.68456910425E+02  0.68456910425E+02  0.00000000000E+00 0. -1.
         21   -1    0    0  504  503 -0.00000000000E+00 -0.00000000000E+00 -0.39204658860E+03  0.39204658860E+03  0.00000000000E+00 0.  1.
         25    2    1    2    0    0 -0.23875876163E+02 -0.38128481806E+02 -0.37164916649E+03  0.39467377166E+03  0.12498177666E+03 0.  0.
          5    1    3    3  501    0 -0.77154462578E+00 -0.32978275234E+02 -0.36942836934E+03  0.37089822323E+03  0.10000000000E+00 0.  1.
         -5    1    3    3    0  501 -0.23104331537E+02 -0.51502065729E+01 -0.22207971525E+01  0.23775548437E+02  0.10000000000E+00 0.  1.
         21    1    1    2  504  502  0.23875876163E+02  0.38128481806E+02  0.48059488316E+02  0.65829727363E+02  0.00000000000E+00 0. -1.
<mgrwt>
<rscale>  1 0.13283178E+03</rscale>
<asrwt>0</asrwt>
<pdfrwt beam="1">  1       21 0.10531832E-01 0.13283178E+03</pdfrwt>
<pdfrwt beam="2">  1       21 0.60314859E-01 0.13283178E+03</pdfrwt>
<totfact> 0.19303125E+05</totfact>
</mgrwt>
</event>
<event>
 6    1  0.4187588E-002  0.1268573E+03  0.7546771E-02  0.1232195E+00
         21   -1    0    0  503  502  0.00000000000E+00  0.00000000000E+00  0.14936684616E+02  0.14936684616E+02  0.00000000000E+00 0.  1.
         21   -1    0    0  504  503 -0.00000000000E+00 -0.00000000000E+00 -0.61432880149E+03  0.61432880149E+03  0.00000000000E+00 0.  1.
         25    2    1    2    0    0 -0.16326085688E+02 -0.14150454277E+02 -0.59345141438E+03  0.60685860376E+03  0.12500402913E+03 0.  0.
          5    1    3    3  501    0 -0.26353258874E+02  0.17581141631E+02 -0.34200314541E+02  0.46618261540E+02  0.10000000000E+00 0. -1.
         -5    1    3    3    0  501  0.10027173186E+02 -0.31731595908E+02 -0.55925109984E+03  0.56024034222E+03  0.10000000000E+00 0. -1.
         21    1    1    2  504  502  0.16326085688E+02  0.14150454277E+02 -0.59407024885E+01  0.22406882340E+02  0.00000000000E+00 0.  1.
<mgrwt>
<rscale>  1 0.12685734E+03</rscale>
<asrwt>0</asrwt>
<pdfrwt beam="1">  1       21 0.22979522E-02 0.12685734E+03</pdfrwt>
<pdfrwt beam="2">  1       21 0.94512095E-01 0.12685734E+03</pdfrwt>
<totfact> 0.92538979E+05</totfact>
</mgrwt>
</event>
<event>
 6    1  0.4187588E-002  0.1268369E+03  0.7546771E-02  0.1232226E+00
         21   -1    0    0  504  502  0.00000000000E+00  0.00000000000E+00  0.15681270709E+02  0.15681270709E+02  0.00000000000E+00 0.  1.
         21   -1    0    0  502  503 -0.00000000000E+00 -0.00000000000E+00 -0.51042437912E+03  0.51042437912E+03  0.00000000000E+00 0.  1.
         25    2    1    2    0    0 -0.21106045882E+02 -0.41920507614E+01 -0.48698493263E+03  0.50323147763E+03  0.12499822800E+03 0.  0.
          5    1    3    3  501    0  0.20880201051E+02  0.52206016337E+02 -0.19935062098E+03  0.20712829605E+03  0.10000000000E+00 0. -1.
         -5    1    3    3    0  501 -0.41986246933E+02 -0.56398067098E+02 -0.28763431165E+03  0.29610318158E+03  0.10000000000E+00 0. -1.
         21    1    1    2  504  503  0.21106045882E+02  0.41920507614E+01 -0.77581757763E+01  0.22874172197E+02  0.00000000000E+00 0.  1.
<mgrwt>
<rscale>  1 0.12683689E+03</rscale>
<asrwt>0</asrwt>
<pdfrwt beam="1">  1       21 0.24125033E-02 0.12683689E+03</pdfrwt>
<pdfrwt beam="2">  1       21 0.78526825E-01 0.12683689E+03</pdfrwt>
<totfact> 0.13012587E+06</totfact>
</mgrwt>
</event>
<event>
 6    1  0.4187588E-002  0.1317630E+03  0.7546771E-02  0.1224863E+00
         21   -1    0    0  503  502  0.00000000000E+00  0.00000000000E+00  0.23090121923E+04  0.23090121923E+04  0.00000000000E+00 0.  1.
         21   -1    0    0  504  503 -0.00000000000E+00 -0.00000000000E+00 -0.41651066647E+01  0.41651066647E+01  0.00000000000E+00 0.  1.
         25    2    1    2    0    0 -0.38095896554E+01  0.41484642268E+02  0.21004103796E+04  0.21045392025E+04  0.12500401456E+03 0.  0.
          5    1    3    3  501    0  0.47954366698E+01 -0.15919995965E+02  0.16861407050E+04  0.16862226809E+04  0.10000000000E+00 0.  1.
         -5    1    3    3    0  501 -0.86050263251E+01  0.57404638233E+02  0.41426967456E+03  0.41831652158E+03  0.10000000000E+00 0.  1.
         21    1    1    2  504  502  0.38095896554E+01 -0.41484642268E+02  0.20443670605E+03  0.20863809647E+03  0.00000000000E+00 0.  1.
<mgrwt>
<rscale>  1 0.13176302E+03</rscale>
<asrwt>0</asrwt>
<pdfrwt beam="1">  1       21 0.35523162E+00 0.13176302E+03</pdfrwt>
<pdfrwt beam="2">  1       21 0.64078748E-03 0.13176302E+03</pdfrwt>
<totfact> 0.13155811E+05</totfact>
</mgrwt>
</event>
<event>
 6    1  0.4187588E-002  0.1358736E+03  0.7546771E-02  0.1218992E+00
         21   -1    0    0  503  502  0.00000000000E+00  0.00000000000E+00  0.12098043596E+03  0.12098043596E+03  0.00000000000E+00 0. -1.
         21   -1    0    0  504  503 -0.00000000000E+00 -0.00000000000E+00 -0.57974297697E+03  0.57974297697E+03  0.00000000000E+00 0. -1.
         25    2    1    2    0    0 -0.31721434080E+02 -0.42668662365E+02 -0.56543711485E+03  0.58153310783E+03  0.12503903603E+03 0.  0.
          5    1    3    3  501    0  0.41290408734E+02 -0.78711581887E+01 -0.90842903868E+02  0.10009643434E+03  0.10000000000E+00 0. -1.
         -5    1    3    3    0  501 -0.73011842815E+02 -0.34797504176E+02 -0.47459421098E+03  0.48143667349E+03  0.10000000000E+00 0. -1.
         21    1    1    2  504  502  0.31721434080E+02  0.42668662365E+02  0.10667457383E+03  0.11919030510E+03  0.00000000000E+00 0. -1.
<mgrwt>
<rscale>  1 0.13587356E+03</rscale>
<asrwt>0</asrwt>
<pdfrwt beam="1">  1       21 0.18612375E-01 0.13587356E+03</pdfrwt>
<pdfrwt beam="2">  1       21 0.89191226E-01 0.13587356E+03</pdfrwt>
<totfact> 0.29286981E+04</totfact>
</mgrwt>
</event>
<event>
 6    1  0.4187588E-002  0.1572581E+03  0.7546771E-02  0.1191828E+00
         21   -1    0    0  503  502  0.00000000000E+00  0.00000000000E+00  0.20237823440E+03  0.20237823440E+03  0.00000000000E+00 0. -1.
         21   -1    0    0  504  503 -0.00000000000E+00 -0.00000000000E+00 -0.18043831035E+03  0.18043831035E+03  0.00000000000E+00 0. -1.
         25    2    1    2    0    0  0.91986832598E+02 -0.25386460940E+02 -0.12956927926E+03  0.20376044054E+03  0.12499627687E+03 0.  0.
          5    1    3    3  501    0  0.51056608688E+02  0.46260151536E+02 -0.86803669957E+02  0.11082267832E+03  0.10000000000E+00 0. -1.
         -5    1    3    3    0  501  0.40930223909E+02 -0.71646612476E+02 -0.42765609299E+02  0.92937762224E+02  0.10000000000E+00 0. -1.
         21    1    1    2  504  502 -0.91986832598E+02  0.25386460940E+02  0.15150920330E+03  0.17905610421E+03  0.00000000000E+00 0. -1.
<mgrwt>
<rscale>  1 0.15725813E+03</rscale>
<asrwt>0</asrwt>
<pdfrwt beam="1">  1       21 0.31135113E-01 0.15725813E+03</pdfrwt>
<pdfrwt beam="2">  1       21 0.27759740E-01 0.15725813E+03</pdfrwt>
<totfact> 0.12434329E+05</totfact>
</mgrwt>
</event>
<event>
 6    1  0.4187588E-002  0.1263062E+03  0.7546771E-02  0.1233042E+00
         21   -1    0    0  503  502  0.00000000000E+00  0.00000000000E+00  0.94180529450E+02  0.94180529450E+02  0.00000000000E+00 0.  1.
         21   -1    0    0  504  503 -0.00000000000E+00 -0.00000000000E+00 -0.55697393733E+02  0.55697393733E+02  0.00000000000E+00 0.  1.
         25    2    1    2    0    0 -0.31311188595E+00 -0.18110343968E+02  0.37424080897E+02  0.13173393810E+03  0.12500074407E+03 0.  0.
          5    1    3    3  501    0  0.38231135155E+02  0.12853158461E+02 -0.28458616588E+02  0.49363207308E+02  0.10000000000E+00 0.  1.
         -5    1    3    3    0  501 -0.38544247041E+02 -0.30963502430E+02  0.65882697485E+02  0.82370730788E+02  0.10000000000E+00 0.  1.
         21    1    1    2  504  502  0.31311188595E+00  0.18110343968E+02  0.10590548192E+01  0.18143985087E+02  0.00000000000E+00 0.  1.
<mgrwt>
<rscale>  1 0.12630625E+03</rscale>
<asrwt>0</asrwt>
<pdfrwt beam="1">  1       21 0.14489312E-01 0.12630625E+03</pdfrwt>
<pdfrwt beam="2">  1       21 0.85688298E-02 0.12630625E+03</pdfrwt>
<totfact> 0.43818011E+06</totfact>
</mgrwt>
</event>
<event>
 6    1  0.4187588E-002  0.1262915E+03  0.7546771E-02  0.1233065E+00
         21   -1    0    0  504  502  0.00000000000E+00  0.00000000000E+00  0.10222733071E+03  0.10222733071E+03  0.00000000000E+00 0.  1.
         21   -1    0    0  502  503 -0.00000000000E+00 -0.00000000000E+00 -0.51078719756E+02  0.51078719756E+02  0.00000000000E+00 0.  1.
         25    2    1    2    0    0 -0.13001879136E+01 -0.17968181627E+02  0.47475756313E+02  0.13492029781E+03  0.12499997314E+03 0.  0.
          5    1    3    3  501    0  0.52913554302E+02 -0.40780591704E+02  0.18312895714E+02  0.69269567906E+02  0.10000000000E+00 0. -1.
         -5    1    3    3    0  501 -0.54213742215E+02  0.22812410077E+02  0.29162860599E+02  0.65650729903E+02  0.10000000000E+00 0. -1.
         21    1    1    2  504  503  0.13001879136E+01  0.17968181627E+02  0.36728546435E+01  0.18385752658E+02  0.00000000000E+00 0.  1.
<mgrwt>
<rscale>  1 0.12629149E+03</rscale>
<asrwt>0</asrwt>
<pdfrwt beam="1">  1       21 0.15727282E-01 0.12629149E+03</pdfrwt>
<pdfrwt beam="2">  1       21 0.78582646E-02 0.12629149E+03</pdfrwt>
<totfact> 0.43887909E+06</totfact>
</mgrwt>
</event>
<event>
 6    1  0.4187588E-002  0.1357536E+03  0.7546771E-02  0.1219160E+00
         21   -1    0    0  503  502  0.00000000000E+00  0.00000000000E+00  0.12604966292E+03  0.12604966292E+03  0.00000000000E+00 0. -1.
         21   -1    0    0  504  503 -0.00000000000E+00 -0.00000000000E+00 -0.75519186418E+02  0.75519186418E+02  0.00000000000E+00 0. -1.
         25    2    1    2    0    0 -0.50771617123E+02  0.14599463712E+02  0.59080350609E+02  0.14805247995E+03  0.12505257912E+03 0.  0.
          5    1    3    3  501    0  0.38013110423E+02  0.12482584213E+02  0.41257441296E+02  0.57471714217E+02  0.10000000000E+00 0.  1.
         -5    1    3    3    0  501 -0.88784727546E+02  0.21168794989E+01  0.17822909313E+02  0.90580765732E+02  0.10000000000E+00 0.  1.
         21    1    1    2  504  502  0.50771617123E+02 -0.14599463712E+02 -0.85498741028E+01  0.53516369394E+02  0.00000000000E+00 0. -1.
<mgrwt>
<rscale>  1 0.13575363E+03</rscale>
<asrwt>0</asrwt>
<pdfrwt beam="1">  1       21 0.19392256E-01 0.13575363E+03</pdfrwt>
<pdfrwt beam="2">  1       21 0.11618336E-01 0.13575363E+03</pdfrwt>
<totfact> 0.15166971E+06</totfact>
</mgrwt>
</event>
<event>
 6    1  0.4187588E-002  0.1444330E+03  0.7546771E-02  0.1207486E+00
         21   -1    0    0  503  502  0.00000000000E+00  0.00000000000E+00  0.10197292327E+03  0.10197292327E+03  0.00000000000E+00 0.  1.
         21   -1    0    0  504  503 -0.00000000000E+00 -0.00000000000E+00 -0.27847015087E+03  0.27847015087E+03  0.00000000000E+00 0.  1.
         25    2    1    2    0    0 -0.58598779461E+02  0.42459079054E+02 -0.24266026138E+03  0.28239136641E+03  0.12499716407E+03 0.  0.
          5    1    3    3  501    0 -0.79865197216E+02  0.52883109893E+02 -0.24018234245E+03  0.25857811327E+03  0.10000000000E+00 0. -1.
         -5    1    3    3    0  501  0.21266417755E+02 -0.10424030839E+02 -0.24779189296E+01  0.23813253144E+02  0.10000000000E+00 0. -1.
         21    1    1    2  504  502  0.58598779461E+02 -0.42459079054E+02  0.66163033779E+02  0.98051707722E+02  0.00000000000E+00 0.  1.
<mgrwt>
<rscale>  1 0.14443296E+03</rscale>
<asrwt>0</asrwt>
<pdfrwt beam="1">  1       21 0.15688142E-01 0.14443296E+03</pdfrwt>
<pdfrwt beam="2">  1       21 0.42841561E-01 0.14443296E+03</pdfrwt>
<totfact> 0.19204617E+05</totfact>
</mgrwt>
</event>
<event>
 6    1  0.4187588E-002  0.1280793E+03  0.7546771E-02  0.1230334E+00
         21   -1    0    0  503  502  0.00000000000E+00  0.00000000000E+00  0.96986842142E+03  0.96986842142E+03  0.00000000000E+00 0. -1.
         21   -1    0    0  504  503 -0.00000000000E+00 -0.00000000000E+00 -0.89256443710E+01  0.89256443710E+01  0.00000000000E+00 0. -1.
         25    2    1    2    0    0 -0.78389196406E+01 -0.26752006330E+02  0.47234785439E+03  0.48940453081E+03  0.12500872259E+03 0.  0.
          5    1    3    3  501    0 -0.56377235679E+02 -0.13393354803E+02  0.11758875078E+03  0.13109118569E+03  0.10000000000E+00 0. -1.
         -5    1    3    3    0  501  0.48538316038E+02 -0.13358651528E+02  0.35475910361E+03  0.35831334512E+03  0.10000000000E+00 0. -1.
         21    1    1    2  504  502  0.78389196406E+01  0.26752006330E+02  0.48859492266E+03  0.48938953498E+03  0.00000000000E+00 0. -1.
<mgrwt>
<rscale>  1 0.12807927E+03</rscale>
<asrwt>0</asrwt>
<pdfrwt beam="1">  1       21 0.14921044E+00 0.12807927E+03</pdfrwt>
<pdfrwt beam="2">  1       21 0.13731768E-02 0.12807927E+03</pdfrwt>
<totfact> 0.69513642E+05</totfact>
</mgrwt>
</event>
<event>
 6    1  0.4187588E-002  0.1339433E+03  0.7546771E-02  0.1221719E+00
         21   -1    0    0  503  502  0.00000000000E+00  0.00000000000E+00  0.18685221239E+03  0.18685221239E+03  0.00000000000E+00 0. -1.
         21   -1    0    0  504  503 -0.00000000000E+00 -0.00000000000E+00 -0.95330476835E+02  0.95330476835E+02  0.00000000000E+00 0. -1.
         25    2    1    2    0    0  0.48112258479E+02  0.12959461623E+01 -0.41901177148E+02  0.14034425111E+03  0.12499732510E+03 0.  0.
          5    1    3    3  501    0  0.36382868136E+02 -0.56261792930E+02  0.19683427278E+01  0.67029745715E+02  0.10000000000E+00 0. -1.
         -5    1    3    3    0  501  0.11729390343E+02  0.57557739092E+02 -0.43869519876E+02  0.73314505396E+02  0.10000000000E+00 0. -1.
         21    1    1    2  504  502 -0.48112258479E+02 -0.12959461623E+01  0.13342291270E+03  0.14183843811E+03  0.00000000000E+00 0. -1.
<mgrwt>
<rscale>  1 0.13394327E+03</rscale>
<asrwt>0</asrwt>
<pdfrwt beam="1">  1       21 0.28746494E-01 0.13394327E+03</pdfrwt>
<pdfrwt beam="2">  1       21 0.14666227E-01 0.13394327E+03</pdfrwt>
<totfact> 0.47703211E+05</totfact>
</mgrwt>
</event>
<event>
 6    1  0.4187588E-002  0.1856483E+03  0.7546771E-02  0.1162446E+00
         21   -1    0    0  504  502  0.00000000000E+00  0.00000000000E+00  0.18985946186E+03  0.18985946186E+03  0.00000000000E+00 0.  1.
         21   -1    0    0  502  503 -0.00000000000E+00 -0.00000000000E+00 -0.13978533172E+03  0.13978533172E+03  0.00000000000E+00 0.  1.
         25    2    1    2    0    0  0.96388838500E+02  0.97716554938E+02  0.69693261178E+01  0.18577903175E+03  0.12500377528E+03 0.  0.
          5    1    3    3  501    0  0.94369896204E+02  0.12395737161E+03  0.18802907379E+02  0.15692248600E+03  0.10000000000E+00 0.  1.
         -5    1    3    3    0  501  0.20189422959E+01 -0.26240816668E+02 -0.11833581261E+02  0.28856545755E+02  0.10000000000E+00 0.  1.
         21    1    1    2  504  503 -0.96388838500E+02 -0.97716554938E+02  0.43104804024E+02  0.14386576183E+03  0.00000000000E+00 0.  1.
<mgrwt>
<rscale>  1 0.18564826E+03</rscale>
<asrwt>0</asrwt>
<pdfrwt beam="1">  1       21 0.29209148E-01 0.18564826E+03</pdfrwt>
<pdfrwt beam="2">  1       21 0.21505436E-01 0.18564826E+03</pdfrwt>
<totfact> 0.22657258E+05</totfact>
</mgrwt>
</event>
<event>
 6    1  0.4187588E-002  0.1360929E+03  0.7546771E-02  0.1218685E+00
         21   -1    0    0  503  502  0.00000000000E+00  0.00000000000E+00  0.26284607831E+03  0.26284607831E+03  0.00000000000E+00 0. -1.
         21   -1    0    0  504  503 -0.00000000000E+00 -0.00000000000E+00 -0.40928755716E+02  0.40928755716E+02  0.00000000000E+00 0. -1.
         25    2    1    2    0    0  0.26731859953E+02 -0.46708194546E+02  0.95148803024E+02  0.16605589804E+03  0.12500007513E+03 0.  0.
          5    1    3    3  501    0 -0.44780542320E+02 -0.46530467226E+02  0.44748395268E+02  0.78567233818E+02  0.10000000000E+00 0. -1.
         -5    1    3    3    0  501  0.71512402273E+02 -0.17772732019E+00  0.50400407756E+02  0.87488664224E+02  0.10000000000E+00 0. -1.
         21    1    1    2  504  502 -0.26731859953E+02  0.46708194546E+02  0.12676851957E+03  0.13771893598E+03  0.00000000000E+00 0. -1.
<mgrwt>
<rscale>  1 0.13609286E+03</rscale>
<asrwt>0</asrwt>
<pdfrwt beam="1">  1       21 0.40437857E-01 0.13609286E+03</pdfrwt>
<pdfrwt beam="2">  1       21 0.62967318E-02 0.13609286E+03</pdfrwt>
<totfact> 0.10711135E+06</totfact>
</mgrwt>
</event>
<event>
 6    1  0.4187588E-002  0.1312715E+03  0.7546771E-02  0.1225581E+00
         21   -1    0    0  503  502  0.00000000000E+00  0.00000000000E+00  0.15099835688E+02  0.15099835688E+02  0.00000000000E+00 0. -1.
         21   -1    0    0  504  503 -0.00000000000E+00 -0.00000000000E+00 -0.49869344394E+03  0.49869344394E+03  0.00000000000E+00 0. -1.
         25    2    1    2    0    0 -0.39945452307E+02  0.36359691940E+01 -0.40168491619E+03  0.42259079465E+03  0.12499339339E+03 0.  0.
          5    1    3    3  501    0  0.38136259262E+02 -0.22496746562E+02 -0.91299246724E+02  0.10146940588E+03  0.10000000000E+00 0.  1.
         -5    1    3    3    0  501 -0.78081711569E+02  0.26132715756E+02 -0.31038566947E+03  0.32112138877E+03  0.10000000000E+00 0.  1.
         21    1    1    2  504  502  0.39945452307E+02 -0.36359691940E+01 -0.81908692061E+02  0.91202484983E+02  0.00000000000E+00 0.  1.
<mgrwt>
<rscale>  1 0.13127150E+03</rscale>
<asrwt>0</asrwt>
<pdfrwt beam="1">  1       21 0.23230520E-02 0.13127150E+03</pdfrwt>
<pdfrwt beam="2">  1       21 0.76722056E-01 0.13127150E+03</pdfrwt>
<totfact> 0.14574502E+06</totfact>
</mgrwt>
</event>
<event>
 6    1  0.4187588E-002  0.1277444E+03  0.7546771E-02  0.1230841E+00
         21   -1    0    0  503  502  0.00000000000E+00  0.00000000000E+00  0.55786266549E+01  0.55786266549E+01  0.00000000000E+00 0.  1.
         21   -1    0    0  504  503 -0.00000000000E+00 -0.00000000000E+00 -0.10864537745E+04  0.10864537745E+04  0.00000000000E+00 0.  1.
         25    2    1    2    0    0 -0.13815526727E+01  0.26287791824E+02 -0.94865091639E+03  0.95721324795E+03  0.12500273677E+03 0.  0.
          5    1    3    3  501    0  0.24171275097E+02  0.66493386750E+01 -0.88949503778E+03  0.88984824351E+03  0.10000000000E+00 0.  1.
         -5    1    3    3    0  501 -0.25552827769E+02  0.19638453149E+02 -0.59155878609E+02  0.67365004439E+02  0.10000000000E+00 0.  1.
         21    1    1    2  504  502  0.13815526727E+01 -0.26287791824E+02 -0.13222423149E+03  0.13481915324E+03  0.00000000000E+00 0.  1.
<mgrwt>
<rscale>  1 0.12774444E+03</rscale>
<asrwt>0</asrwt>
<pdfrwt beam="1">  1       21 0.85824975E-03 0.12774444E+03</pdfrwt>
<pdfrwt beam="2">  1       21 0.16714683E+00 0.12774444E+03</pdfrwt>
<totfact> 0.10829165E+06</totfact>
</mgrwt>
</event>
<event>
 6    1  0.4187588E-002  0.1267671E+03  0.7546771E-02  0.1232333E+00
         21   -1    0    0  504  502  0.00000000000E+00  0.00000000000E+00  0.12334861540E+02  0.12334861540E+02  0.00000000000E+00 0. -1.
         21   -1    0    0  502  503 -0.00000000000E+00 -0.00000000000E+00 -0.56817366786E+03  0.56817366786E+03  0.00000000000E+00 0. -1.
         25    2    1    2    0    0  0.19240249613E+02 -0.86406465046E+01 -0.53845625439E+03  0.55317720874E+03  0.12500015362E+03 0.  0.
          5    1    3    3  501    0  0.37897246441E+02  0.50720572371E+02 -0.23312016387E+03  0.24156530909E+03  0.10000000000E+00 0. -1.
         -5    1    3    3    0  501 -0.18656996828E+02 -0.59361218875E+02 -0.30533609052E+03  0.31161189966E+03  0.10000000000E+00 0. -1.
         21    1    1    2  504  503 -0.19240249613E+02  0.86406465046E+01 -0.17382551932E+02  0.27331320657E+02  0.00000000000E+00 0. -1.
<mgrwt>
<rscale>  1 0.12676706E+03</rscale>
<asrwt>0</asrwt>
<pdfrwt beam="1">  1       21 0.18976714E-02 0.12676706E+03</pdfrwt>
<pdfrwt beam="2">  1       21 0.87411315E-01 0.12676706E+03</pdfrwt>
<totfact> 0.15076180E+06</totfact>
</mgrwt>
</event>
<event>
 6    1  0.4187588E-002  0.1318837E+03  0.7546771E-02  0.1224687E+00
         21   -1    0    0  503  502  0.00000000000E+00  0.00000000000E+00  0.71783826354E+03  0.71783826354E+03  0.00000000000E+00 0.  1.
         21   -1    0    0  504  503 -0.00000000000E+00 -0.00000000000E+00 -0.39862850296E+02  0.39862850296E+02  0.00000000000E+00 0.  1.
         25    2    1    2    0    0  0.27272030722E+02  0.32068485052E+02  0.71985040057E+02  0.15025030612E+03  0.12498462748E+03 0.  0.
          5    1    3    3  501    0  0.44863208041E+02  0.65436726210E+02  0.13238598385E+02  0.80435956263E+02  0.10000000000E+00 0.  1.
         -5    1    3    3    0  501 -0.17591177319E+02 -0.33368241157E+02  0.58746441673E+02  0.69814349862E+02  0.10000000000E+00 0.  1.
         21    1    1    2  504  502 -0.27272030722E+02 -0.32068485052E+02  0.60599037319E+03  0.60745080771E+03  0.00000000000E+00 0.  1.
<mgrwt>
<rscale>  1 0.13188369E+03</rscale>
<asrwt>0</asrwt>
<pdfrwt beam="1">  1       21 0.11043665E+00 0.13188369E+03</pdfrwt>
<pdfrwt beam="2">  1       21 0.61327468E-02 0.13188369E+03</pdfrwt>
<totfact> 0.12589654E+05</totfact>
</mgrwt>
</event>
<event>
 6    1  0.4187588E-002  0.1259345E+03  0.7546771E-02  0.1233616E+00
         21   -1    0    0  504  502  0.00000000000E+00  0.00000000000E+00  0.11021238828E+03  0.11021238828E+03  0.00000000000E+00 0.  1.
         21   -1    0    0  502  503 -0.00000000000E+00 -0.00000000000E+00 -0.45610123154E+02  0.45610123154E+02  0.00000000000E+00 0.  1.
         25    2    1    2    0    0 -0.74987730151E+01  0.13337736882E+02  0.61745350856E+02  0.14025688325E+03  0.12500151249E+03 0.  0.
          5    1    3    3  501    0  0.35485824441E+02  0.41146115825E+02 -0.67400139472E+01  0.54751112972E+02  0.10000000000E+00 0. -1.
         -5    1    3    3    0  501 -0.42984597456E+02 -0.27808378943E+02  0.68485364803E+02  0.85505770274E+02  0.10000000000E+00 0. -1.
         21    1    1    2  504  503  0.74987730151E+01 -0.13337736882E+02  0.28569142733E+01  0.15565628192E+02  0.00000000000E+00 0.  1.
<mgrwt>
<rscale>  1 0.12593453E+03</rscale>
<asrwt>0</asrwt>
<pdfrwt beam="1">  1       21 0.16955752E-01 0.12593453E+03</pdfrwt>
<pdfrwt beam="2">  1       21 0.70169421E-02 0.12593453E+03</pdfrwt>
<totfact> 0.46493672E+06</totfact>
</mgrwt>
</event>
<event>
 6    1  0.4187588E-002  0.1260916E+03  0.7546771E-02  0.1233373E+00
         21   -1    0    0  504  502  0.00000000000E+00  0.00000000000E+00  0.72594019589E+02  0.72594019589E+02  0.00000000000E+00 0.  1.
         21   -1    0    0  502  503 -0.00000000000E+00 -0.00000000000E+00 -0.11036278460E+03  0.11036278460E+03  0.00000000000E+00 0.  1.
         25    2    1    2    0    0  0.78851443097E+01 -0.14557762279E+02 -0.71807816113E+02  0.14510497540E+03  0.12499994995E+03 0.  0.
          5    1    3    3  501    0  0.18911421864E+02  0.11589623316E+02  0.31188275492E+02  0.38271134993E+02  0.10000000000E+00 0. -1.
         -5    1    3    3    0  501 -0.11026277554E+02 -0.26147385595E+02 -0.10299609160E+03  0.10683384041E+03  0.10000000000E+00 0. -1.
         21    1    1    2  504  503 -0.78851443097E+01  0.14557762279E+02  0.34039051098E+02  0.37851828794E+02  0.00000000000E+00 0.  1.
<mgrwt>
<rscale>  1 0.12609160E+03</rscale>
<asrwt>0</asrwt>
<pdfrwt beam="1">  1       21 0.11168311E-01 0.12609160E+03</pdfrwt>
<pdfrwt beam="2">  1       21 0.16978890E-01 0.12609160E+03</pdfrwt>
<totfact> 0.20711438E+06</totfact>
</mgrwt>
</event>
<event>
 6    1  0.4187588E-002  0.1299344E+03  0.7546771E-02  0.1227553E+00
         21   -1    0    0  504  502  0.00000000000E+00  0.00000000000E+00  0.16447245669E+03  0.16447245669E+03  0.00000000000E+00 0.  1.
         21   -1    0    0  502  503 -0.00000000000E+00 -0.00000000000E+00 -0.45679085230E+02  0.45679085230E+02  0.00000000000E+00 0. -1.
         25    2    1    2    0    0  0.68452761997E+01 -0.34828965151E+02  0.63937970576E+02  0.14481373031E+03  0.12499215089E+03 0.  0.
          5    1    3    3  501    0 -0.25036424545E+02 -0.74756934010E+02  0.39127867983E+02  0.88013759092E+02  0.10000000000E+00 0.  1.
         -5    1    3    3    0  501  0.31881700745E+02  0.39927968859E+02  0.24810102593E+02  0.56799971217E+02  0.10000000000E+00 0.  1.
         21    1    1    2  504  503 -0.68452761997E+01  0.34828965151E+02  0.54855400881E+02  0.65337811607E+02  0.00000000000E+00 0.  1.
<mgrwt>
<rscale>  1 0.12993442E+03</rscale>
<asrwt>0</asrwt>
<pdfrwt beam="1">  1       21 0.25303455E-01 0.12993442E+03</pdfrwt>
<pdfrwt beam="2">  1       21 0.70275517E-02 0.12993442E+03</pdfrwt>
<totfact> 0.22095294E+06</totfact>
</mgrwt>
</event>
<event>
 6    1  0.4187588E-002  0.1261097E+03  0.7546771E-02  0.1233345E+00
         21   -1    0    0  504  502  0.00000000000E+00  0.00000000000E+00  0.49561024069E+03  0.49561024069E+03  0.00000000000E+00 0.  1.
         21   -1    0    0  502  503 -0.00000000000E+00 -0.00000000000E+00 -0.10293687234E+02  0.10293687234E+02  0.00000000000E+00 0.  1.
         25    2    1    2    0    0 -0.16694652163E+02  0.66001146094E+00  0.43202181608E+03  0.45005165797E+03  0.12499799300E+03 0.  0.
          5    1    3    3  501    0 -0.37394265475E+02 -0.31949245352E+02  0.67657542936E+02  0.83645911347E+02  0.10000000000E+00 0.  1.
         -5    1    3    3    0  501  0.20699613313E+02  0.32609256813E+02  0.36436427314E+03  0.36640574663E+03  0.10000000000E+00 0.  1.
         21    1    1    2  504  503  0.16694652163E+02 -0.66001146094E+00  0.53294737377E+02  0.55852269946E+02  0.00000000000E+00 0. -1.
<mgrwt>
<rscale>  1 0.12610966E+03</rscale>
<asrwt>0</asrwt>
<pdfrwt beam="1">  1       21 0.76247711E-01 0.12610966E+03</pdfrwt>
<pdfrwt beam="2">  1       21 0.15836446E-02 0.12610966E+03</pdfrwt>
<totfact> 0.27372685E+06</totfact>
</mgrwt>
</event>
<event>
 6    1  0.4187588E-002  0.1669267E+03  0.7546771E-02  0.1181091E+00
         21   -1    0    0  503  502  0.00000000000E+00  0.00000000000E+00  0.90833066602E+02  0.90833066602E+02  0.00000000000E+00 0.  1.
         21   -1    0    0  504  503 -0.00000000000E+00 -0.00000000000E+00 -0.21237052734E+03  0.21237052734E+03  0.00000000000E+00 0. -1.
         25    2    1    2    0    0  0.51856220391E+02 -0.97744975886E+02 -0.78750248775E+02  0.18457015257E+03  0.12498556570E+03 0.  0.
          5    1    3    3  501    0  0.36596114781E+02 -0.12324315433E+03 -0.37856248126E+02  0.13401961136E+03  0.10000000000E+00 0. -1.
         -5    1    3    3    0  501  0.15260105610E+02  0.25498178449E+02 -0.40894000650E+02  0.50550541210E+02  0.10000000000E+00 0. -1.
         21    1    1    2  504  502 -0.51856220391E+02  0.97744975886E+02 -0.42787211963E+02  0.11863344137E+03  0.00000000000E+00 0.  1.
<mgrwt>
<rscale>  1 0.16692675E+03</rscale>
<asrwt>0</asrwt>
<pdfrwt beam="1">  1       21 0.13974318E-01 0.16692675E+03</pdfrwt>
<pdfrwt beam="2">  1       21 0.32672389E-01 0.16692675E+03</pdfrwt>
<totfact> 0.40424354E+05</totfact>
</mgrwt>
</event>
<event>
 6    1  0.4187588E-002  0.1286267E+03  0.7546771E-02  0.1229508E+00
         21   -1    0    0  504  502  0.00000000000E+00  0.00000000000E+00  0.30970459740E+02  0.30970459740E+02  0.00000000000E+00 0. -1.
         21   -1    0    0  502  503 -0.00000000000E+00 -0.00000000000E+00 -0.20443256644E+03  0.20443256644E+03  0.00000000000E+00 0. -1.
         25    2    1    2    0    0 -0.26515357695E+02 -0.14712663479E+02 -0.14475746394E+03  0.19364798844E+03  0.12500117360E+03 0.  0.
          5    1    3    3  501    0  0.22998043934E+02 -0.58148875400E+02 -0.64729412323E+02  0.90000603080E+02  0.10000000000E+00 0. -1.
         -5    1    3    3    0  501 -0.49513401629E+02  0.43436211921E+02 -0.80028051617E+02  0.10364738536E+03  0.10000000000E+00 0. -1.
         21    1    1    2  504  503  0.26515357695E+02  0.14712663479E+02 -0.28704642755E+02  0.41755037732E+02  0.00000000000E+00 0. -1.
<mgrwt>
<rscale>  1 0.12862667E+03</rscale>
<asrwt>0</asrwt>
<pdfrwt beam="1">  1       21 0.47646862E-02 0.12862667E+03</pdfrwt>
<pdfrwt beam="2">  1       21 0.31451163E-01 0.12862667E+03</pdfrwt>
<totfact> 0.28112897E+06</totfact>
</mgrwt>
</event>
<event>
 6    1  0.4187588E-002  0.1679741E+03  0.7546771E-02  0.1179977E+00
         21   -1    0    0  503  502  0.00000000000E+00  0.00000000000E+00  0.89929301560E+02  0.89929301560E+02  0.00000000000E+00 0.  1.
         21   -1    0    0  504  503 -0.00000000000E+00 -0.00000000000E+00 -0.33054909492E+03  0.33054909492E+03  0.00000000000E+00 0.  1.
         25    2    1    2    0    0 -0.46780162904E+02 -0.10200599131E+03 -0.25704391422E+03  0.30706165322E+03  0.12498671585E+03 0.  0.
          5    1    3    3  501    0 -0.24107397724E+02 -0.16982161960E+02 -0.20007235884E+03  0.20223382314E+03  0.10000000000E+00 0.  1.
         -5    1    3    3    0  501 -0.22672765180E+02 -0.85023829348E+02 -0.56971555379E+02  0.10482783008E+03  0.10000000000E+00 0.  1.
         21    1    1    2  504  502  0.46780162904E+02  0.10200599131E+03  0.16424120862E+02  0.11341674325E+03  0.00000000000E+00 0.  1.
<mgrwt>
<rscale>  1 0.16797406E+03</rscale>
<asrwt>0</asrwt>
<pdfrwt beam="1">  1       21 0.13835277E-01 0.16797406E+03</pdfrwt>
<pdfrwt beam="2">  1       21 0.50853706E-01 0.16797406E+03</pdfrwt>
<totfact> 0.16840504E+05</totfact>
</mgrwt>
</event>
<event>
 6    1  0.4187588E-002  0.1271898E+03  0.7546771E-02  0.1231686E+00
         21   -1    0    0  504  502  0.00000000000E+00  0.00000000000E+00  0.22138161360E+03  0.22138161360E+03  0.00000000000E+00 0. -1.
         21   -1    0    0  502  503 -0.00000000000E+00 -0.00000000000E+00 -0.25706005192E+02  0.25706005192E+02  0.00000000000E+00 0. -1.
         25    2    1    2    0    0  0.12277692510E+02 -0.20237874065E+02  0.16371252645E+03  0.20731386001E+03  0.12496772364E+03 0.  0.
          5    1    3    3  501    0 -0.39250247767E+02 -0.28977505360E+02  0.17155242439E+02  0.51716439455E+02  0.10000000000E+00 0.  1.
         -5    1    3    3    0  501  0.51527940278E+02  0.87396312949E+01  0.14655728401E+03  0.15559742055E+03  0.10000000000E+00 0.  1.
         21    1    1    2  504  503 -0.12277692510E+02  0.20237874065E+02  0.31963081953E+02  0.39773758786E+02  0.00000000000E+00 0. -1.
<mgrwt>
<rscale>  1 0.12718980E+03</rscale>
<asrwt>0</asrwt>
<pdfrwt beam="1">  1       21 0.34058708E-01 0.12718980E+03</pdfrwt>
<pdfrwt beam="2">  1       21 0.39547702E-02 0.12718980E+03</pdfrwt>
<totfact> 0.32829024E+06</totfact>
</mgrwt>
</event>
<event>
 6    1  0.4187588E-002  0.1264742E+03  0.7546771E-02  0.1232783E+00
         21   -1    0    0  503  502  0.00000000000E+00  0.00000000000E+00  0.38697524332E+02  0.38697524332E+02  0.00000000000E+00 0.  1.
         21   -1    0    0  504  503 -0.00000000000E+00 -0.00000000000E+00 -0.13875783002E+03  0.13875783002E+03  0.00000000000E+00 0.  1.
         25    2    1    2    0    0 -0.18356323109E+01 -0.19208274721E+02 -0.92677053369E+02  0.15679525323E+03  0.12499355123E+03 0.  0.
          5    1    3    3  501    0  0.11449424604E+02  0.26604154812E+02 -0.10384244044E+03  0.10780599619E+03  0.10000000000E+00 0. -1.
         -5    1    3    3    0  501 -0.13285056915E+02 -0.45812429534E+02  0.11165387071E+02  0.48989257041E+02  0.10000000000E+00 0. -1.
         21    1    1    2  504  502  0.18356323109E+01  0.19208274721E+02 -0.73832523200E+01  0.20660101127E+02  0.00000000000E+00 0.  1.
<mgrwt>
<rscale>  1 0.12647417E+03</rscale>
<asrwt>0</asrwt>
<pdfrwt beam="1">  1       21 0.59534653E-02 0.12647417E+03</pdfrwt>
<pdfrwt beam="2">  1       21 0.21347358E-01 0.12647417E+03</pdfrwt>
<totfact> 0.40271416E+06</totfact>
</mgrwt>
</event>
<event>
 6    1  0.4187588E-002  0.1281338E+03  0.7546771E-02  0.1230251E+00
         21   -1    0    0  504  502  0.00000000000E+00  0.00000000000E+00  0.17901840444E+04  0.17901840444E+04  0.00000000000E+00 0. -1.
         21   -1    0    0  502  503 -0.00000000000E+00 -0.00000000000E+00 -0.30796686259E+02  0.30796686259E+02  0.00000000000E+00 0. -1.
         25    2    1    2    0    0  0.66176070247E+01  0.27391967460E+02  0.10312349191E+03  0.16447715167E+03  0.12499666490E+03 0.  0.
          5    1    3    3  501    0 -0.49005323761E+01  0.53510802463E+02  0.11988307178E+03  0.13137496754E+03  0.10000000000E+00 0. -1.
         -5    1    3    3    0  501  0.11518139401E+02 -0.26118835003E+02 -0.16759579866E+02  0.33102184135E+02  0.10000000000E+00 0. -1.
         21    1    1    2  504  503 -0.66176070247E+01 -0.27391967460E+02  0.16562638662E+04  0.16565035789E+04  0.00000000000E+00 0. -1.
<mgrwt>
<rscale>  1 0.12813383E+03</rscale>
<asrwt>0</asrwt>
<pdfrwt beam="1">  1       21 0.27541285E+00 0.12813383E+03</pdfrwt>
<pdfrwt beam="2">  1       21 0.47379531E-02 0.12813383E+03</pdfrwt>
<totfact> 0.14987923E+04</totfact>
</mgrwt>
</event>
<event>
 6    1  0.4187588E-002  0.1311088E+03  0.7546771E-02  0.1225820E+00
         21   -1    0    0  503  502  0.00000000000E+00  0.00000000000E+00  0.12962781826E+04  0.12962781826E+04  0.00000000000E+00 0.  1.
         21   -1    0    0  504  503 -0.00000000000E+00 -0.00000000000E+00 -0.26509294119E+02  0.26509294119E+02  0.00000000000E+00 0.  1.
         25    2    1    2    0    0 -0.26275405254E+02 -0.29570838173E+02  0.13808592366E+03  0.19041334938E+03  0.12499875967E+03 0.  0.
          5    1    3    3  501    0  0.47134552116E+02 -0.66412229537E+01  0.83460052968E+02  0.96079978596E+02  0.10000000000E+00 0.  1.
         -5    1    3    3    0  501 -0.73409957370E+02 -0.22929615219E+02  0.54625870688E+02  0.94333370784E+02  0.10000000000E+00 0.  1.
         21    1    1    2  504  502  0.26275405254E+02  0.29570838173E+02  0.11316829648E+04  0.11323741273E+04  0.00000000000E+00 0.  1.
<mgrwt>
<rscale>  1 0.13110881E+03</rscale>
<asrwt>0</asrwt>
<pdfrwt beam="1">  1       21 0.19942736E+00 0.13110881E+03</pdfrwt>
<pdfrwt beam="2">  1       21 0.40783540E-02 0.13110881E+03</pdfrwt>
<totfact> 0.53633255E+04</totfact>
</mgrwt>
</event>
<event>
 6    1  0.4187588E-002  0.1262021E+03  0.7546771E-02  0.1233202E+00
         21   -1    0    0  504  502  0.00000000000E+00  0.00000000000E+00  0.18846208480E+03  0.18846208480E+03  0.00000000000E+00 0. -1.
         21   -1    0    0  502  503 -0.00000000000E+00 -0.00000000000E+00 -0.27605256350E+02  0.27605256350E+02  0.00000000000E+00 0. -1.
         25    2    1    2    0    0 -0.46110869743E+00 -0.17361753071E+02  0.13390424080E+03  0.18400357543E+03  0.12500130790E+03 0.  0.
          5    1    3    3  501    0 -0.90960253668E+01 -0.61218336591E+02  0.25855559876E+02  0.67074155894E+02  0.10000000000E+00 0. -1.
         -5    1    3    3    0  501  0.86349166693E+01  0.43856583520E+02  0.10804868093E+03  0.11692941954E+03  0.10000000000E+00 0. -1.
         21    1    1    2  504  503  0.46110869743E+00  0.17361753071E+02  0.26952587645E+02  0.32063765712E+02  0.00000000000E+00 0. -1.
<mgrwt>
<rscale>  1 0.12620210E+03</rscale>
<asrwt>0</asrwt>
<pdfrwt beam="1">  1       21 0.28994166E-01 0.12620210E+03</pdfrwt>
<pdfrwt beam="2">  1       21 0.42469626E-02 0.12620210E+03</pdfrwt>
<totfact> 0.39828230E+06</totfact>
</mgrwt>
</event>
<event>
 6    1  0.4187588E-002  0.2315940E+03  0.7546771E-02  0.1125523E+00
         21   -1    0    0  504  502  0.00000000000E+00  0.00000000000E+00  0.15439462418E+03  0.15439462418E+03  0.00000000000E+00 0. -1.
         21   -1    0    0  502  503 -0.00000000000E+00 -0.00000000000E+00 -0.60783556198E+03  0.60783556198E+03  0.00000000000E+00 0. -1.
         25    2    1    2    0    0  0.45762339597E+02  0.18951761262E+03 -0.50924734935E+03  0.55943602256E+03  0.12499873319E+03 0.  0.
          5    1    3    3  501    0 -0.88686812671E+01  0.13190661667E+03 -0.41837230306E+03  0.43876349324E+03  0.10000000000E+00 0. -1.
         -5    1    3    3    0  501  0.54631020864E+02  0.57610995952E+02 -0.90875046290E+02  0.12067252932E+03  0.10000000000E+00 0. -1.
         21    1    1    2  504  503 -0.45762339597E+02 -0.18951761262E+03  0.55806411548E+02  0.20279416360E+03  0.00000000000E+00 0. -1.
<mgrwt>
<rscale>  1 0.23159404E+03</rscale>
<asrwt>0</asrwt>
<pdfrwt beam="1">  1       21 0.23753019E-01 0.23159404E+03</pdfrwt>
<pdfrwt beam="2">  1       21 0.93513163E-01 0.23159404E+03</pdfrwt>
<totfact> 0.15670388E+04</totfact>
</mgrwt>
</event>
<event>
 6    1  0.4187588E-002  0.1329461E+03  0.7546771E-02  0.1223149E+00
         21   -1    0    0  504  502  0.00000000000E+00  0.00000000000E+00  0.18461958054E+03  0.18461958054E+03  0.00000000000E+00 0.  1.
         21   -1    0    0  502  503 -0.00000000000E+00 -0.00000000000E+00 -0.43747430032E+02  0.43747430032E+02  0.00000000000E+00 0.  1.
         25    2    1    2    0    0  0.43741528128E+02  0.11747369379E+02  0.91636351334E+02  0.16146793815E+03  0.12499340861E+03 0.  0.
          5    1    3    3  501    0  0.21811722060E+02 -0.56630406606E+02  0.35369931004E+02  0.70240986545E+02  0.10000000000E+00 0.  1.
         -5    1    3    3    0  501  0.21929806068E+02  0.68377775986E+02  0.56266420330E+02  0.91226951608E+02  0.10000000000E+00 0.  1.
         21    1    1    2  504  503 -0.43741528128E+02 -0.11747369379E+02  0.49235799175E+02  0.66899072420E+02  0.00000000000E+00 0.  1.
<mgrwt>
<rscale>  1 0.13294613E+03</rscale>
<asrwt>0</asrwt>
<pdfrwt beam="1">  1       21 0.28403012E-01 0.13294613E+03</pdfrwt>
<pdfrwt beam="2">  1       21 0.67303740E-02 0.13294613E+03</pdfrwt>
<totfact> 0.19100567E+06</totfact>
</mgrwt>
</event>
<event>
 6    1  0.4187588E-002  0.1264368E+03  0.7546771E-02  0.1232841E+00
         21   -1    0    0  504  502  0.00000000000E+00  0.00000000000E+00  0.26921963983E+03  0.26921963983E+03  0.00000000000E+00 0. -1.
         21   -1    0    0  502  503 -0.00000000000E+00 -0.00000000000E+00 -0.14890559894E+03  0.14890559894E+03  0.00000000000E+00 0.  1.
         25    2    1    2    0    0  0.10503660756E+02 -0.15899790934E+02 -0.12162367363E+03  0.17543822233E+03  0.12499248628E+03 0.  0.
          5    1    3    3  501    0  0.63732754433E+02 -0.24664049814E+02 -0.45356784647E+02  0.82020895230E+02  0.10000000000E+00 0. -1.
         -5    1    3    3    0  501 -0.53229093676E+02  0.87642588799E+01 -0.76266888981E+02  0.93417327098E+02  0.10000000000E+00 0. -1.
         21    1    1    2  504  503 -0.10503660756E+02  0.15899790934E+02  0.24193771452E+03  0.24268701644E+03  0.00000000000E+00 0. -1.
<mgrwt>
<rscale>  1 0.12643675E+03</rscale>
<asrwt>0</asrwt>
<pdfrwt beam="1">  1       21 0.41418406E-01 0.12643675E+03</pdfrwt>
<pdfrwt beam="2">  1       21 0.22908554E-01 0.12643675E+03</pdfrwt>
<totfact> 0.10295333E+05</totfact>
</mgrwt>
</event>
<event>
 6    1  0.4187588E-002  0.1295401E+03  0.7546771E-02  0.1228140E+00
         21   -1    0    0  504  502  0.00000000000E+00  0.00000000000E+00  0.11180968932E+04  0.11180968932E+04  0.00000000000E+00 0. -1.
         21   -1    0    0  502  503 -0.00000000000E+00 -0.00000000000E+00 -0.93218140957E+01  0.93218140957E+01  0.00000000000E+00 0. -1.
         25    2    1    2    0    0 -0.10790541721E+02 -0.32244481137E+02  0.46387700575E+03  0.48162488000E+03  0.12499802486E+03 0.  0.
          5    1    3    3  501    0  0.38637209745E+02  0.12708947494E+02  0.32474523573E+03  0.32728249182E+03  0.10000000000E+00 0. -1.
         -5    1    3    3    0  501 -0.49427751465E+02 -0.44953428630E+02  0.13913177002E+03  0.15434238818E+03  0.10000000000E+00 0. -1.
         21    1    1    2  504  503  0.10790541721E+02  0.32244481137E+02  0.64489807333E+03  0.64579382726E+03  0.00000000000E+00 0. -1.
<mgrwt>
<rscale>  1 0.12954014E+03</rscale>
<asrwt>0</asrwt>
<pdfrwt beam="1">  1       21 0.17201480E+00 0.12954014E+03</pdfrwt>
<pdfrwt beam="2">  1       21 0.14341261E-02 0.12954014E+03</pdfrwt>
<totfact> 0.44485110E+05</totfact>
</mgrwt>
</event>
<event>
 6    1  0.4187588E-002  0.1404544E+03  0.7546771E-02  0.1212719E+00
         21   -1    0    0  503  502  0.00000000000E+00  0.00000000000E+00  0.59299339250E+03  0.59299339250E+03  0.00000000000E+00 0. -1.
         21   -1    0    0  504  503 -0.00000000000E+00 -0.00000000000E+00 -0.17631473915E+02  0.17631473915E+02  0.00000000000E+00 0. -1.
         25    2    1    2    0    0 -0.57215639839E+02 -0.28731189037E+02  0.39953558557E+03  0.42350455740E+03  0.12501326063E+03 0.  0.
          5    1    3    3  501    0 -0.40567328823E+01 -0.97396969752E+01 -0.72621338725E+01  0.12808878453E+02  0.10000000000E+00 0.  1.
         -5    1    3    3    0  501 -0.53158906957E+02 -0.18991492062E+02  0.40679771944E+03  0.41069567894E+03  0.10000000000E+00 0.  1.
         21    1    1    2  504  502  0.57215639839E+02  0.28731189037E+02  0.17582633302E+03  0.18712030902E+03  0.00000000000E+00 0. -1.
<mgrwt>
<rscale>  1 0.14045436E+03</rscale>
<asrwt>0</asrwt>
<pdfrwt beam="1">  1       21 0.91229738E-01 0.14045436E+03</pdfrwt>
<pdfrwt beam="2">  1       21 0.27125349E-02 0.14045436E+03</pdfrwt>
<totfact> 0.76572755E+05</totfact>
</mgrwt>
</event>
<event>
 6    1  0.4187588E-002  0.1571643E+03  0.7546771E-02  0.1191936E+00
         21   -1    0    0  504  502  0.00000000000E+00  0.00000000000E+00  0.12613268597E+03  0.12613268597E+03  0.00000000000E+00 0. -1.
         21   -1    0    0  502  503 -0.00000000000E+00 -0.00000000000E+00 -0.22798240171E+03  0.22798240171E+03  0.00000000000E+00 0. -1.
         25    2    1    2    0    0  0.23940389792E+02 -0.92215307964E+02 -0.17410016891E+03  0.23454530357E+03  0.12499530123E+03 0.  0.
          5    1    3    3  501    0  0.57101327377E+02 -0.19917779960E+02 -0.13051814096E+03  0.14384809581E+03  0.10000000000E+00 0.  1.
         -5    1    3    3    0  501 -0.33160937585E+02 -0.72297528004E+02 -0.43582027946E+02  0.90697207768E+02  0.10000000000E+00 0.  1.
         21    1    1    2  504  503 -0.23940389792E+02  0.92215307964E+02  0.72250453167E+02  0.11956978410E+03  0.00000000000E+00 0. -1.
<mgrwt>
<rscale>  1 0.15716434E+03</rscale>
<asrwt>0</asrwt>
<pdfrwt beam="1">  1       21 0.19405029E-01 0.15716434E+03</pdfrwt>
<pdfrwt beam="2">  1       21 0.35074215E-01 0.15716434E+03</pdfrwt>
<totfact> 0.19339040E+05</totfact>
</mgrwt>
</event>
<event>
 6    1  0.4187588E-002  0.1359226E+03  0.7546771E-02  0.1218923E+00
         21   -1    0    0  503  502  0.00000000000E+00  0.00000000000E+00  0.17635150762E+03  0.17635150762E+03  0.00000000000E+00 0.  1.
         21   -1    0    0  504  503 -0.00000000000E+00 -0.00000000000E+00 -0.60224647134E+03  0.60224647134E+03  0.00000000000E+00 0. -1.
         25    2    1    2    0    0 -0.53171183210E+02  0.46307481081E+01 -0.59029990337E+03  0.60574658980E+03  0.12500534622E+03 0.  0.
          5    1    3    3  501    0 -0.42352191362E+02  0.52701560402E+02 -0.17621339502E+03  0.18873879613E+03  0.10000000000E+00 0. -1.
         -5    1    3    3    0  501 -0.10818991848E+02 -0.48070812294E+02 -0.41408650835E+03  0.41700779367E+03  0.10000000000E+00 0. -1.
         21    1    1    2  504  502  0.53171183210E+02 -0.46307481081E+01  0.16440493965E+03  0.17285138916E+03  0.00000000000E+00 0.  1.
<mgrwt>
<rscale>  1 0.13592261E+03</rscale>
<asrwt>0</asrwt>
<pdfrwt beam="1">  1       21 0.27131001E-01 0.13592261E+03</pdfrwt>
<pdfrwt beam="2">  1       21 0.92653303E-01 0.13592261E+03</pdfrwt>
<totfact> 0.13249307E+04</totfact>
</mgrwt>
</event>
<event>
 6    1  0.4187588E-002  0.1259588E+03  0.7546771E-02  0.1233578E+00
         21   -1    0    0  503  502  0.00000000000E+00  0.00000000000E+00  0.41124129945E+03  0.41124129945E+03  0.00000000000E+00 0.  1.
         21   -1    0    0  504  503 -0.00000000000E+00 -0.00000000000E+00 -0.19419817552E+02  0.19419817552E+02  0.00000000000E+00 0.  1.
         25    2    1    2    0    0  0.97510695573E+01  0.12030454209E+02  0.18826034068E+03  0.22651177608E+03  0.12500325453E+03 0.  0.
          5    1    3    3  501    0 -0.52320923970E+02 -0.11718952654E+02  0.11900521166E+03  0.13052610214E+03  0.10000000000E+00 0.  1.
         -5    1    3    3    0  501  0.62071993527E+02  0.23749406862E+02  0.69255129020E+02  0.95985673943E+02  0.10000000000E+00 0.  1.
         21    1    1    2  504  502 -0.97510695573E+01 -0.12030454209E+02  0.20356114121E+03  0.20414934092E+03  0.00000000000E+00 0.  1.
<mgrwt>
<rscale>  1 0.12595884E+03</rscale>
<asrwt>0</asrwt>
<pdfrwt beam="1">  1       21 0.63267886E-01 0.12595884E+03</pdfrwt>
<pdfrwt beam="2">  1       21 0.29876645E-02 0.12595884E+03</pdfrwt>
<totfact> 0.14709005E+06</totfact>
</mgrwt>
</event>
<event>
 6    1  0.4187588E-002  0.1266488E+03  0.7546771E-02  0.1232515E+00
         21   -1    0    0  504  502  0.00000000000E+00  0.00000000000E+00  0.53131405072E+02  0.53131405072E+02  0.00000000000E+00 0.  1.
         21   -1    0    0  502  503 -0.00000000000E+00 -0.00000000000E+00 -0.10378588673E+03  0.10378588673E+03  0.00000000000E+00 0.  1.
         25    2    1    2    0    0 -0.72813633912E-01 -0.20389396953E+02 -0.50982337882E+02  0.13652512910E+03  0.12499671711E+03 0.  0.
          5    1    3    3  501    0 -0.18450844889E+02 -0.65114723624E+02 -0.20169035484E+01  0.67708484031E+02  0.10000000000E+00 0.  1.
         -5    1    3    3    0  501  0.18378031255E+02  0.44725326672E+02 -0.48965434334E+02  0.68816645066E+02  0.10000000000E+00 0.  1.
         21    1    1    2  504  503  0.72813633912E-01  0.20389396953E+02  0.32785622841E+00  0.20392162701E+02  0.00000000000E+00 0.  1.
<mgrwt>
<rscale>  1 0.12664877E+03</rscale>
<asrwt>0</asrwt>
<pdfrwt beam="1">  1       21 0.81740624E-02 0.12664877E+03</pdfrwt>
<pdfrwt beam="2">  1       21 0.15967059E-01 0.12664877E+03</pdfrwt>
<totfact> 0.39904469E+06</totfact>
</mgrwt>
</event>
<event>
 6    1  0.4187588E-002  0.1260090E+03  0.7546771E-02  0.1233501E+00
         21   -1    0    0  504  502  0.00000000000E+00  0.00000000000E+00  0.14465426443E+03  0.14465426443E+03  0.00000000000E+00 0.  1.
         21   -1    0    0  502  503 -0.00000000000E+00 -0.00000000000E+00 -0.37944589779E+02  0.37944589779E+02  0.00000000000E+00 0.  1.
         25    2    1    2    0    0  0.35175419493E+01 -0.15484846677E+02  0.73727638720E+02  0.14599327715E+03  0.12500447465E+03 0.  0.
          5    1    3    3  501    0  0.91399953330E+01  0.54527089186E+02  0.38851836100E+02  0.67573797719E+02  0.10000000000E+00 0. -1.
         -5    1    3    3    0  501 -0.56224533836E+01 -0.70011935863E+02  0.34875802621E+02  0.78419479428E+02  0.10000000000E+00 0. -1.
         21    1    1    2  504  503 -0.35175419493E+01  0.15484846677E+02  0.32982035936E+02  0.36605577067E+02  0.00000000000E+00 0.  1.
<mgrwt>
<rscale>  1 0.12600902E+03</rscale>
<asrwt>0</asrwt>
<pdfrwt beam="1">  1       21 0.22254502E-01 0.12600902E+03</pdfrwt>
<pdfrwt beam="2">  1       21 0.58376292E-02 0.12600902E+03</pdfrwt>
<totfact> 0.38521094E+06</totfact>
</mgrwt>
</event>
<event>
 6    1  0.4187588E-002  0.1262277E+03  0.7546771E-02  0.1233163E+00
         21   -1    0    0  503  502  0.00000000000E+00  0.00000000000E+00  0.73947597460E+01  0.73947597460E+01  0.00000000000E+00 0.  1.
         21   -1    0    0  504  503 -0.00000000000E+00 -0.00000000000E+00 -0.77284220347E+03  0.77284220347E+03  0.00000000000E+00 0.  1.
         25    2    1    2    0    0  0.63708783191E+01 -0.16379362337E+02 -0.72810301071E+03  0.73896374819E+03  0.12499822134E+03 0.  0.
          5    1    3    3  501    0 -0.48899854274E+02 -0.19681597350E+02 -0.16666722624E+03  0.17480427719E+03  0.10000000000E+00 0. -1.
         -5    1    3    3    0  501  0.55270732593E+02  0.33022350125E+01 -0.56143578447E+03  0.56415947100E+03  0.10000000000E+00 0. -1.
         21    1    1    2  504  502 -0.63708783191E+01  0.16379362337E+02 -0.37344433019E+02  0.41273215026E+02  0.00000000000E+00 0.  1.
<mgrwt>
<rscale>  1 0.12622768E+03</rscale>
<asrwt>0</asrwt>
<pdfrwt beam="1">  1       21 0.11376553E-02 0.12622768E+03</pdfrwt>
<pdfrwt beam="2">  1       21 0.11889881E+00 0.12622768E+03</pdfrwt>
<totfact> 0.16556233E+06</totfact>
</mgrwt>
</event>
<event>
 6    1  0.4187588E-002  0.1441717E+03  0.7546771E-02  0.1207823E+00
         21   -1    0    0  503  502  0.00000000000E+00  0.00000000000E+00  0.60127054411E+02  0.60127054411E+02  0.00000000000E+00 0.  1.
         21   -1    0    0  504  503 -0.00000000000E+00 -0.00000000000E+00 -0.37517543707E+03  0.37517543707E+03  0.00000000000E+00 0.  1.
         25    2    1    2    0    0  0.32699483377E+01  0.71763495153E+02 -0.33159734184E+03  0.36158302426E+03  0.12499917808E+03 0.  0.
          5    1    3    3  501    0 -0.40254063338E+02  0.36496460631E+02 -0.47984462239E+02  0.72490688162E+02  0.10000000000E+00 0.  1.
         -5    1    3    3    0  501  0.43524011676E+02  0.35267034522E+02 -0.28361287960E+03  0.28909233610E+03  0.10000000000E+00 0.  1.
         21    1    1    2  504  502 -0.32699483377E+01 -0.71763495153E+02  0.16548959173E+02  0.73719467228E+02  0.00000000000E+00 0.  1.
<mgrwt>
<rscale>  1 0.14417173E+03</rscale>
<asrwt>0</asrwt>
<pdfrwt beam="1">  1       21 0.92503159E-02 0.14417173E+03</pdfrwt>
<pdfrwt beam="2">  1       21 0.57719299E-01 0.14417173E+03</pdfrwt>
<totfact> 0.26522082E+05</totfact>
</mgrwt>
</event>
<event>
 6    1  0.4187588E-002  0.1368954E+03  0.7546771E-02  0.1217568E+00
         21   -1    0    0  503  502  0.00000000000E+00  0.00000000000E+00  0.73124211764E+02  0.73124211764E+02  0.00000000000E+00 0. -1.
         21   -1    0    0  504  503 -0.00000000000E+00 -0.00000000000E+00 -0.46610438550E+03  0.46610438550E+03  0.00000000000E+00 0. -1.
         25    2    1    2    0    0 -0.40997036030E+02 -0.37885552485E+02 -0.44337277720E+03  0.46402562835E+03  0.12499716856E+03 0.  0.
          5    1    3    3  501    0 -0.77437808703E+02 -0.51470735747E+02 -0.36326557708E+03  0.37497698642E+03  0.10000000000E+00 0. -1.
         -5    1    3    3    0  501  0.36440772674E+02  0.13585183262E+02 -0.80107200127E+02  0.89048641930E+02  0.10000000000E+00 0. -1.
         21    1    1    2  504  502  0.40997036030E+02  0.37885552485E+02  0.50392603464E+02  0.75202968919E+02  0.00000000000E+00 0. -1.
<mgrwt>
<rscale>  1 0.13689545E+03</rscale>
<asrwt>0</asrwt>
<pdfrwt beam="1">  1       21 0.11249879E-01 0.13689545E+03</pdfrwt>
<pdfrwt beam="2">  1       21 0.71708364E-01 0.13689545E+03</pdfrwt>
<totfact> 0.11810810E+05</totfact>
</mgrwt>
</event>
<event>
 6    1  0.4187588E-002  0.1354538E+03  0.7546771E-02  0.1219581E+00
         21   -1    0    0  503  502  0.00000000000E+00  0.00000000000E+00  0.16351078745E+03  0.16351078745E+03  0.00000000000E+00 0. -1.
         21   -1    0    0  504  503 -0.00000000000E+00 -0.00000000000E+00 -0.31759779410E+03  0.31759779410E+03  0.00000000000E+00 0. -1.
         25    2    1    2    0    0 -0.15627624703E+02  0.49785610208E+02 -0.29837133721E+03  0.32767847472E+03  0.12499959315E+03 0.  0.
          5    1    3    3  501    0  0.17052431854E+02 -0.28658933124E+01  0.50336967502E+01  0.18009632967E+02  0.10000000000E+00 0.  1.
         -5    1    3    3    0  501 -0.32680056557E+02  0.52651503521E+02 -0.30340503396E+03  0.30966884175E+03  0.10000000000E+00 0.  1.
         21    1    1    2  504  502  0.15627624703E+02 -0.49785610208E+02  0.14428433056E+03  0.15343010683E+03  0.00000000000E+00 0. -1.
<mgrwt>
<rscale>  1 0.13545379E+03</rscale>
<asrwt>0</asrwt>
<pdfrwt beam="1">  1       21 0.25155506E-01 0.13545379E+03</pdfrwt>
<pdfrwt beam="2">  1       21 0.48861198E-01 0.13545379E+03</pdfrwt>
<totfact> 0.61443647E+04</totfact>
</mgrwt>
</event>
<event>
 6    1  0.4187588E-002  0.1266494E+03  0.7546771E-02  0.1232514E+00
         21   -1    0    0  503  502  0.00000000000E+00  0.00000000000E+00  0.79898912488E+02  0.79898912488E+02  0.00000000000E+00 0.  1.
         21   -1    0    0  504  503 -0.00000000000E+00 -0.00000000000E+00 -0.11022126059E+03  0.11022126059E+03  0.00000000000E+00 0.  1.
         25    2    1    2    0    0 -0.11930188159E+02 -0.16501376034E+02 -0.70592735941E+02  0.14499447156E+03  0.12500175044E+03 0.  0.
          5    1    3    3  501    0 -0.49134240450E+01 -0.73231312124E+01 -0.10671022653E+03  0.10707405116E+03  0.10000000000E+00 0.  1.
         -5    1    3    3    0  501 -0.70167641138E+01 -0.91782448218E+01  0.36117490587E+02  0.37920420395E+02  0.10000000000E+00 0.  1.
         21    1    1    2  504  502  0.11930188159E+02  0.16501376034E+02  0.40270387842E+02  0.45125701518E+02  0.00000000000E+00 0.  1.
<mgrwt>
<rscale>  1 0.12664937E+03</rscale>
<asrwt>0</asrwt>
<pdfrwt beam="1">  1       21 0.12292140E-01 0.12664937E+03</pdfrwt>
<pdfrwt beam="2">  1       21 0.16957117E-01 0.12664937E+03</pdfrwt>
<totfact> 0.17525752E+06</totfact>
</mgrwt>
</event>
<event>
 6    1  0.4187588E-002  0.1260136E+03  0.7546771E-02  0.1233494E+00
         21   -1    0    0  503  502  0.00000000000E+00  0.00000000000E+00  0.47624937415E+02  0.47624937415E+02  0.00000000000E+00 0.  1.
         21   -1    0    0  504  503 -0.00000000000E+00 -0.00000000000E+00 -0.42436254533E+03  0.42436254533E+03  0.00000000000E+00 0.  1.
         25    2    1    2    0    0  0.11783854268E+02  0.10772593859E+02 -0.41330398712E+03  0.43208750672E+03  0.12499807877E+03 0.  0.
          5    1    3    3  501    0  0.45620397738E+02  0.10617453810E+02 -0.55227073292E+02  0.72415403330E+02  0.10000000000E+00 0. -1.
         -5    1    3    3    0  501 -0.33836543470E+02  0.15514004943E+00 -0.35807691382E+03  0.35967210339E+03  0.10000000000E+00 0. -1.
         21    1    1    2  504  502 -0.11783854268E+02 -0.10772593859E+02  0.36566379195E+02  0.39899976031E+02  0.00000000000E+00 0.  1.
<mgrwt>
<rscale>  1 0.12601360E+03</rscale>
<asrwt>0</asrwt>
<pdfrwt beam="1">  1       21 0.73269134E-02 0.12601360E+03</pdfrwt>
<pdfrwt beam="2">  1       21 0.65286546E-01 0.12601360E+03</pdfrwt>
<totfact> 0.30625433E+05</totfact>
</mgrwt>
</event>
<event>
 6    1  0.4187588E-002  0.1262460E+03  0.7546771E-02  0.1233135E+00
         21   -1    0    0  503  502  0.00000000000E+00  0.00000000000E+00  0.81701048794E+01  0.81701048794E+01  0.00000000000E+00 0. -1.
         21   -1    0    0  504  503 -0.00000000000E+00 -0.00000000000E+00 -0.16218419910E+04  0.16218419910E+04  0.00000000000E+00 0. -1.
         25    2    1    2    0    0 -0.10036498213E+02  0.14699524508E+02 -0.16054495088E+04  0.16104055968E+04  0.12498501389E+03 0.  0.
          5    1    3    3  501    0  0.26344961187E+02  0.54338857316E+02 -0.49770728476E+03  0.50135747695E+03  0.10000000000E+00 0.  1.
         -5    1    3    3    0  501 -0.36381459401E+02 -0.39639332808E+02 -0.11077422240E+04  0.11090481199E+04  0.10000000000E+00 0.  1.
         21    1    1    2  504  502  0.10036498213E+02 -0.14699524508E+02 -0.82223773745E+01  0.19606499097E+02  0.00000000000E+00 0. -1.
<mgrwt>
<rscale>  1 0.12624603E+03</rscale>
<asrwt>0</asrwt>
<pdfrwt beam="1">  1       21 0.12569387E-02 0.12624603E+03</pdfrwt>
<pdfrwt beam="2">  1       21 0.24951425E+00 0.12624603E+03</pdfrwt>
<totfact> 0.18254510E+05</totfact>
</mgrwt>
</event>
<event>
 6    1  0.4187588E-002  0.1293243E+03  0.7546771E-02  0.1228462E+00
         21   -1    0    0  503  502  0.00000000000E+00  0.00000000000E+00  0.16218845314E+02  0.16218845314E+02  0.00000000000E+00 0.  1.
         21   -1    0    0  504  503 -0.00000000000E+00 -0.00000000000E+00 -0.44515095816E+03  0.44515095816E+03  0.00000000000E+00 0.  1.
         25    2    1    2    0    0  0.28400473906E+02  0.17124087889E+02 -0.38620511673E+03  0.40728267468E+03  0.12499985441E+03 0.  0.
          5    1    3    3  501    0 -0.25180029831E+02  0.25000552832E+02 -0.31902367797E+03  0.32099093235E+03  0.10000000000E+00 0.  1.
         -5    1    3    3    0  501  0.53580503737E+02 -0.78764649428E+01 -0.67181438754E+02  0.86291742327E+02  0.10000000000E+00 0.  1.
         21    1    1    2  504  502 -0.28400473906E+02 -0.17124087889E+02 -0.42726996124E+02  0.54087128800E+02  0.00000000000E+00 0.  1.
<mgrwt>
<rscale>  1 0.12932434E+03</rscale>
<asrwt>0</asrwt>
<pdfrwt beam="1">  1       21 0.24952066E-02 0.12932434E+03</pdfrwt>
<pdfrwt beam="2">  1       21 0.68484774E-01 0.12932434E+03</pdfrwt>
<totfact> 0.16645294E+06</totfact>
</mgrwt>
</event>
<event>
 6    1  0.4187588E-002  0.1332547E+03  0.7546771E-02  0.1222705E+00
         21   -1    0    0  504  502  0.00000000000E+00  0.00000000000E+00  0.67913006307E+02  0.67913006307E+02  0.00000000000E+00 0. -1.
         21   -1    0    0  502  503 -0.00000000000E+00 -0.00000000000E+00 -0.27375984664E+03  0.27375984664E+03  0.00000000000E+00 0.  1.
         25    2    1    2    0    0 -0.24106517858E+02  0.39380352503E+02 -0.24646174696E+03  0.28017889384E+03  0.12499953388E+03 0.  0.
          5    1    3    3  501    0 -0.59000416424E+02  0.44677157924E+02 -0.75919886801E+02  0.10602328419E+03  0.10000000000E+00 0.  1.
         -5    1    3    3    0  501  0.34893898566E+02 -0.52968054213E+01 -0.17054186016E+03  0.17415560965E+03  0.10000000000E+00 0.  1.
         21    1    1    2  504  503  0.24106517858E+02 -0.39380352503E+02  0.40614906629E+02  0.61493959109E+02  0.00000000000E+00 0. -1.
<mgrwt>
<rscale>  1 0.13325472E+03</rscale>
<asrwt>0</asrwt>
<pdfrwt beam="1">  1       21 0.10448155E-01 0.13325472E+03</pdfrwt>
<pdfrwt beam="2">  1       21 0.42116900E-01 0.13325472E+03</pdfrwt>
<totfact> 0.41144091E+05</totfact>
</mgrwt>
</event>
<event>
 6    1  0.4187588E-002  0.1269514E+03  0.7546771E-02  0.1232051E+00
         21   -1    0    0  504  502  0.00000000000E+00  0.00000000000E+00  0.39533716274E+02  0.39533716274E+02  0.00000000000E+00 0. -1.
         21   -1    0    0  502  503 -0.00000000000E+00 -0.00000000000E+00 -0.14172579623E+03  0.14172579623E+03  0.00000000000E+00 0. -1.
         25    2    1    2    0    0 -0.17044607188E+02  0.14135968929E+02 -0.92560760913E+02  0.15711191307E+03  0.12500525795E+03 0.  0.
          5    1    3    3  501    0 -0.33759064173E+00  0.59824854384E+02 -0.90416141747E+02  0.10841686150E+03  0.10000000000E+00 0.  1.
         -5    1    3    3    0  501 -0.16707016546E+02 -0.45688885454E+02 -0.21446191657E+01  0.48695051569E+02  0.10000000000E+00 0.  1.
         21    1    1    2  504  503  0.17044607188E+02 -0.14135968929E+02 -0.96313190379E+01  0.24147599429E+02  0.00000000000E+00 0.  1.
<mgrwt>
<rscale>  1 0.12695140E+03</rscale>
<asrwt>0</asrwt>
<pdfrwt beam="1">  1       21 0.60821103E-02 0.12695140E+03</pdfrwt>
<pdfrwt beam="2">  1       21 0.21803968E-01 0.12695140E+03</pdfrwt>
<totfact> 0.37344396E+06</totfact>
</mgrwt>
</event>
<event>
 6    1  0.4187588E-002  0.1260269E+03  0.7546771E-02  0.1233473E+00
         21   -1    0    0  503  502  0.00000000000E+00  0.00000000000E+00  0.55008606041E+02  0.55008606041E+02  0.00000000000E+00 0. -1.
         21   -1    0    0  504  503 -0.00000000000E+00 -0.00000000000E+00 -0.14644015248E+03  0.14644015248E+03  0.00000000000E+00 0. -1.
         25    2    1    2    0    0  0.15315529631E+02  0.47394151154E+01 -0.11654433694E+03  0.17165480359E+03  0.12500304644E+03 0.  0.
          5    1    3    3  501    0  0.14629656029E+02  0.58085597242E+01  0.25304142759E+02  0.29800601376E+02  0.10000000000E+00 0. -1.
         -5    1    3    3    0  501  0.68587360202E+00 -0.10691446088E+01 -0.14184847970E+03  0.14185420222E+03  0.10000000000E+00 0. -1.
         21    1    1    2  504  502 -0.15315529631E+02 -0.47394151154E+01  0.25112790503E+02  0.29793954930E+02  0.00000000000E+00 0. -1.
<mgrwt>
<rscale>  1 0.12602694E+03</rscale>
<asrwt>0</asrwt>
<pdfrwt beam="1">  1       21 0.84628625E-02 0.12602694E+03</pdfrwt>
<pdfrwt beam="2">  1       21 0.22529254E-01 0.12602694E+03</pdfrwt>
<totfact> 0.19949179E+06</totfact>
</mgrwt>
</event>
<event>
 6    1  0.4187588E-002  0.1261948E+03  0.7546771E-02  0.1233214E+00
         21   -1    0    0  504  502  0.00000000000E+00  0.00000000000E+00  0.96787746902E+03  0.96787746902E+03  0.00000000000E+00 0.  1.
         21   -1    0    0  502  503 -0.00000000000E+00 -0.00000000000E+00 -0.34044199048E+02  0.34044199048E+02  0.00000000000E+00 0.  1.
         25    2    1    2    0    0 -0.10303086536E+02  0.13930345400E+02  0.83292325580E+02  0.15120426129E+03  0.12499963606E+03 0.  0.
          5    1    3    3  501    0 -0.37637775218E+02 -0.11740801470E+02  0.10195845603E+03  0.10931598831E+03  0.10000000000E+00 0.  1.
         -5    1    3    3    0  501  0.27334688682E+02  0.25671146870E+02 -0.18666130455E+02  0.41888272979E+02  0.10000000000E+00 0.  1.
         21    1    1    2  504  503  0.10303086536E+02 -0.13930345400E+02  0.85054094439E+03  0.85071740678E+03  0.00000000000E+00 0.  1.
<mgrwt>
<rscale>  1 0.12619476E+03</rscale>
<asrwt>0</asrwt>
<pdfrwt beam="1">  1       21 0.14890421E+00 0.12619476E+03</pdfrwt>
<pdfrwt beam="2">  1       21 0.52375698E-02 0.12619476E+03</pdfrwt>
<totfact> 0.78513652E+04</totfact>
</mgrwt>
</event>
<event>
 6    1  0.4187588E-002  0.1409304E+03  0.7546771E-02  0.1212082E+00
         21   -1    0    0  503  502  0.00000000000E+00  0.00000000000E+00  0.30729249288E+02  0.30729249288E+02  0.00000000000E+00 0.  1.
         21   -1    0    0  504  503 -0.00000000000E+00 -0.00000000000E+00 -0.37765275582E+03  0.37765275582E+03  0.00000000000E+00 0.  1.
         25    2    1    2    0    0 -0.34271378925E+02 -0.55321947261E+02 -0.17588690134E+03  0.22538319205E+03  0.12500534363E+03 0.  0.
          5    1    3    3  501    0  0.17416893318E+02 -0.17571309303E+02  0.11560973080E+02  0.27308701580E+02  0.10000000000E+00 0. -1.
         -5    1    3    3    0  501 -0.51688272243E+02 -0.37750637958E+02 -0.18744787441E+03  0.19807449047E+03  0.10000000000E+00 0. -1.
         21    1    1    2  504  502  0.34271378925E+02  0.55321947261E+02 -0.17103660520E+03  0.18299881306E+03  0.00000000000E+00 0.  1.
<mgrwt>
<rscale>  1 0.14093041E+03</rscale>
<asrwt>0</asrwt>
<pdfrwt beam="1">  1       21 0.47275767E-02 0.14093041E+03</pdfrwt>
<pdfrwt beam="2">  1       21 0.58100425E-01 0.14093041E+03</pdfrwt>
<totfact> 0.82452219E+05</totfact>
</mgrwt>
</event>
<event>
 6    1  0.4187588E-002  0.1262166E+03  0.7546771E-02  0.1233180E+00
         21   -1    0    0  503  502  0.00000000000E+00  0.00000000000E+00  0.17446952494E+03  0.17446952494E+03  0.00000000000E+00 0.  1.
         21   -1    0    0  504  503 -0.00000000000E+00 -0.00000000000E+00 -0.53352059676E+02  0.53352059676E+02  0.00000000000E+00 0.  1.
         25    2    1    2    0    0  0.16525249543E+02  0.54088034786E+01  0.23148851329E+02  0.12832189445E+03  0.12501320030E+03 0.  0.
          5    1    3    3  501    0 -0.10595568906E+02  0.35778945015E+02  0.61793006691E+02  0.72185764959E+02  0.10000000000E+00 0.  1.
         -5    1    3    3    0  501  0.27120818449E+02 -0.30370141536E+02 -0.38644155361E+02  0.56136129488E+02  0.10000000000E+00 0.  1.
         21    1    1    2  504  502 -0.16525249543E+02 -0.54088034786E+01  0.97968613935E+02  0.99499690169E+02  0.00000000000E+00 0.  1.
<mgrwt>
<rscale>  1 0.12621664E+03</rscale>
<asrwt>0</asrwt>
<pdfrwt beam="1">  1       21 0.26841465E-01 0.12621664E+03</pdfrwt>
<pdfrwt beam="2">  1       21 0.82080092E-02 0.12621664E+03</pdfrwt>
<totfact> 0.15117059E+06</totfact>
</mgrwt>
</event>
<event>
 6    1  0.4187588E-002  0.1259779E+03  0.7546771E-02  0.1233549E+00
         21   -1    0    0  504  502  0.00000000000E+00  0.00000000000E+00  0.25866261369E+02  0.25866261369E+02  0.00000000000E+00 0.  1.
         21   -1    0    0  502  503 -0.00000000000E+00 -0.00000000000E+00 -0.23331391082E+03  0.23331391082E+03  0.00000000000E+00 0.  1.
         25    2    1    2    0    0 -0.13096140383E+02  0.86589197683E+01 -0.20832724160E+03  0.24345568597E+03  0.12499578255E+03 0.  0.
          5    1    3    3  501    0  0.44534216997E+02  0.40035813321E+02 -0.88892838720E+02  0.10718259937E+03  0.10000000000E+00 0.  1.
         -5    1    3    3    0  501 -0.57630357380E+02 -0.31376893553E+02 -0.11943440288E+03  0.13627308660E+03  0.10000000000E+00 0.  1.
         21    1    1    2  504  503  0.13096140383E+02 -0.86589197683E+01  0.87959214822E+00  0.15724486218E+02  0.00000000000E+00 0.  1.
<mgrwt>
<rscale>  1 0.12597790E+03</rscale>
<asrwt>0</asrwt>
<pdfrwt beam="1">  1       21 0.39794249E-02 0.12597790E+03</pdfrwt>
<pdfrwt beam="2">  1       21 0.35894447E-01 0.12597790E+03</pdfrwt>
<totfact> 0.29299932E+06</totfact>
</mgrwt>
</event>
<event>
 6    1  0.4187588E-002  0.1295356E+03  0.7546771E-02  0.1228146E+00
         21   -1    0    0  504  502  0.00000000000E+00  0.00000000000E+00  0.48669588946E+01  0.48669588946E+01  0.00000000000E+00 0.  1.
         21   -1    0    0  502  503 -0.00000000000E+00 -0.00000000000E+00 -0.13743306397E+04  0.13743306397E+04  0.00000000000E+00 0.  1.
         25    2    1    2    0    0 -0.20737766291E+02 -0.26940985377E+02 -0.10727413026E+04  0.10805338388E+04  0.12499441188E+03 0.  0.
          5    1    3    3  501    0  0.43597594431E+02  0.55291549521E+01 -0.66671148009E+03  0.66815831169E+03  0.10000000000E+00 0.  1.
         -5    1    3    3    0  501 -0.64335360722E+02 -0.32470140329E+02 -0.40602982247E+03  0.41237552715E+03  0.10000000000E+00 0.  1.
         21    1    1    2  504  503  0.20737766291E+02  0.26940985377E+02 -0.29672237828E+03  0.29866375979E+03  0.00000000000E+00 0. -1.
<mgrwt>
<rscale>  1 0.12953561E+03</rscale>
<asrwt>0</asrwt>
<pdfrwt beam="1">  1       21 0.74876233E-03 0.12953561E+03</pdfrwt>
<pdfrwt beam="2">  1       21 0.21143565E+00 0.12953561E+03</pdfrwt>
<totfact> 0.69061507E+05</totfact>
</mgrwt>
</event>
<event>
 6    1  0.4187588E-002  0.1263110E+03  0.7546771E-02  0.1233034E+00
         21   -1    0    0  503  502  0.00000000000E+00  0.00000000000E+00  0.19282632618E+03  0.19282632618E+03  0.00000000000E+00 0. -1.
         21   -1    0    0  504  503 -0.00000000000E+00 -0.00000000000E+00 -0.58306749879E+02  0.58306749879E+02  0.00000000000E+00 0.  1.
         25    2    1    2    0    0  0.11726618607E+02  0.12964733840E+02  0.11450907010E+02  0.12682903241E+03  0.12509549265E+03 0.  0.
          5    1    3    3  501    0  0.46116705399E+02  0.22495428215E+01  0.54021145648E+02  0.71064091755E+02  0.10000000000E+00 0. -1.
         -5    1    3    3    0  501 -0.34390086791E+02  0.10715191018E+02 -0.42570238638E+02  0.55764940651E+02  0.10000000000E+00 0. -1.
         21    1    1    2  504  502 -0.11726618607E+02 -0.12964733840E+02  0.12306866929E+03  0.12430404365E+03  0.00000000000E+00 0. -1.
<mgrwt>
<rscale>  1 0.12631105E+03</rscale>
<asrwt>0</asrwt>
<pdfrwt beam="1">  1       21 0.29665588E-01 0.12631105E+03</pdfrwt>
<pdfrwt beam="2">  1       21 0.89702693E-02 0.12631105E+03</pdfrwt>
<totfact> 0.10704146E+06</totfact>
</mgrwt>
</event>
<event>
 6    1  0.4187588E-002  0.1261255E+03  0.7546771E-02  0.1233321E+00
         21   -1    0    0  504  502  0.00000000000E+00  0.00000000000E+00  0.66543493128E+02  0.66543493128E+02  0.00000000000E+00 0. -1.
         21   -1    0    0  502  503 -0.00000000000E+00 -0.00000000000E+00 -0.76908780592E+02  0.76908780592E+02  0.00000000000E+00 0. -1.
         25    2    1    2    0    0  0.72148582389E+01 -0.15181914751E+02 -0.11205266740E+02  0.12662223272E+03  0.12500034840E+03 0.  0.
          5    1    3    3  501    0  0.59236321100E+02 -0.34138974127E+02 -0.18364832105E+02  0.70793278990E+02  0.10000000000E+00 0.  1.
         -5    1    3    3    0  501 -0.52021462861E+02  0.18957059376E+02  0.71595653643E+01  0.55828953730E+02  0.10000000000E+00 0.  1.
         21    1    1    2  504  503 -0.72148582389E+01  0.15181914751E+02  0.83997927659E+00  0.16830041001E+02  0.00000000000E+00 0. -1.
<mgrwt>
<rscale>  1 0.12612546E+03</rscale>
<asrwt>0</asrwt>
<pdfrwt beam="1">  1       21 0.10237461E-01 0.12612546E+03</pdfrwt>
<pdfrwt beam="2">  1       21 0.11832120E-01 0.12612546E+03</pdfrwt>
<totfact> 0.46125809E+06</totfact>
</mgrwt>
</event>
<event>
 6    1  0.4187588E-002  0.1262200E+03  0.7546771E-02  0.1233175E+00
         21   -1    0    0  504  502  0.00000000000E+00  0.00000000000E+00  0.81655914856E+03  0.81655914856E+03  0.00000000000E+00 0.  1.
         21   -1    0    0  502  503 -0.00000000000E+00 -0.00000000000E+00 -0.69478996990E+01  0.69478996990E+01  0.00000000000E+00 0.  1.
         25    2    1    2    0    0 -0.17374407528E+02  0.19223657705E+01  0.59802562168E+03  0.61120056424E+03  0.12500368000E+03 0.  0.
          5    1    3    3  501    0  0.27751040332E+02  0.44449705188E+02  0.40708935801E+03  0.41044811114E+03  0.10000000000E+00 0. -1.
         -5    1    3    3    0  501 -0.45125447860E+02 -0.42527339418E+02  0.19093626367E+03  0.20075245310E+03  0.10000000000E+00 0. -1.
         21    1    1    2  504  503  0.17374407528E+02 -0.19223657705E+01  0.21158562718E+03  0.21230648402E+03  0.00000000000E+00 0.  1.
<mgrwt>
<rscale>  1 0.12621999E+03</rscale>
<asrwt>0</asrwt>
<pdfrwt beam="1">  1       21 0.12562441E+00 0.12621999E+03</pdfrwt>
<pdfrwt beam="2">  1       21 0.10689083E-02 0.12621999E+03</pdfrwt>
<totfact> 0.15962527E+06</totfact>
</mgrwt>
</event>
<event>
 6    1  0.4187588E-002  0.1285603E+03  0.7546771E-02  0.1229608E+00
         21   -1    0    0  503  502  0.00000000000E+00  0.00000000000E+00  0.18536183993E+02  0.18536183993E+02  0.00000000000E+00 0.  1.
         21   -1    0    0  504  503 -0.00000000000E+00 -0.00000000000E+00 -0.34923885778E+03  0.34923885778E+03  0.00000000000E+00 0.  1.
         25    2    1    2    0    0 -0.28542001623E+02  0.93734682865E+01 -0.28970107979E+03  0.31694553779E+03  0.12500100213E+03 0.  0.
          5    1    3    3  501    0 -0.17673788971E+01  0.22903282969E+01 -0.28923119567E+03  0.28924568066E+03  0.10000000000E+00 0. -1.
         -5    1    3    3    0  501 -0.26774622726E+02  0.70831399896E+01 -0.46988411925E+00  0.27699857135E+02  0.10000000000E+00 0. -1.
         21    1    1    2  504  502  0.28542001623E+02 -0.93734682865E+01 -0.41001594003E+02  0.50829503983E+02  0.00000000000E+00 0.  1.
<mgrwt>
<rscale>  1 0.12856033E+03</rscale>
<asrwt>0</asrwt>
<pdfrwt beam="1">  1       21 0.28517207E-02 0.12856033E+03</pdfrwt>
<pdfrwt beam="2">  1       21 0.53729053E-01 0.12856033E+03</pdfrwt>
<totfact> 0.22430554E+06</totfact>
</mgrwt>
</event>
<event>
 6    1  0.4187588E-002  0.1262217E+03  0.7546771E-02  0.1233172E+00
         21   -1    0    0  503  502  0.00000000000E+00  0.00000000000E+00  0.29429659931E+03  0.29429659931E+03  0.00000000000E+00 0. -1.
         21   -1    0    0  504  503 -0.00000000000E+00 -0.00000000000E+00 -0.17882236131E+02  0.17882236131E+02  0.00000000000E+00 0. -1.
         25    2    1    2    0    0  0.35589169327E+01 -0.17145726727E+02  0.22669542354E+03  0.25946626774E+03  0.12500114882E+03 0.  0.
          5    1    3    3  501    0 -0.87495534264E+01 -0.70536383554E+02  0.13755371283E+03  0.15483207033E+03  0.10000000000E+00 0.  1.
         -5    1    3    3    0  501  0.12308470359E+02  0.53390656828E+02  0.89141710718E+02  0.10463419742E+03  0.10000000000E+00 0.  1.
         21    1    1    2  504  502 -0.35589169327E+01  0.17145726727E+02  0.49718939639E+02  0.52712567700E+02  0.00000000000E+00 0. -1.
<mgrwt>
<rscale>  1 0.12622175E+03</rscale>
<asrwt>0</asrwt>
<pdfrwt beam="1">  1       21 0.45276396E-01 0.12622175E+03</pdfrwt>
<pdfrwt beam="2">  1       21 0.27511135E-02 0.12622175E+03</pdfrwt>
<totfact> 0.33814117E+06</totfact>
</mgrwt>
</event>
<event>
 6    1  0.4187588E-002  0.1278822E+03  0.7546771E-02  0.1230632E+00
         21   -1    0    0  504  502  0.00000000000E+00  0.00000000000E+00  0.40951473870E+03  0.40951473870E+03  0.00000000000E+00 0. -1.
         21   -1    0    0  502  503 -0.00000000000E+00 -0.00000000000E+00 -0.22432695791E+02  0.22432695791E+02  0.00000000000E+00 0. -1.
         25    2    1    2    0    0 -0.45771784444E+01 -0.26598266918E+02  0.16762190619E+03  0.21083395690E+03  0.12500174231E+03 0.  0.
          5    1    3    3  501    0 -0.16843303528E+02  0.26959064534E+02 -0.26675090488E+01  0.31900057035E+02  0.10000000000E+00 0.  1.
         -5    1    3    3    0  501  0.12266125084E+02 -0.53557331452E+02  0.17028941524E+03  0.17893389986E+03  0.10000000000E+00 0.  1.
         21    1    1    2  504  503  0.45771784444E+01  0.26598266918E+02  0.21946013672E+03  0.22111347759E+03  0.00000000000E+00 0. -1.
<mgrwt>
<rscale>  1 0.12788219E+03</rscale>
<asrwt>0</asrwt>
<pdfrwt beam="1">  1       21 0.63002262E-01 0.12788219E+03</pdfrwt>
<pdfrwt beam="2">  1       21 0.34511843E-02 0.12788219E+03</pdfrwt>
<totfact> 0.11710561E+06</totfact>
</mgrwt>
</event>
<event>
 6    1  0.4187588E-002  0.1397779E+03  0.7546771E-02  0.1213628E+00
         21   -1    0    0  503  502  0.00000000000E+00  0.00000000000E+00  0.20974809196E+03  0.20974809196E+03  0.00000000000E+00 0. -1.
         21   -1    0    0  504  503 -0.00000000000E+00 -0.00000000000E+00 -0.53104440924E+02  0.53104440924E+02  0.00000000000E+00 0. -1.
         25    2    1    2    0    0 -0.27769409679E+02  0.56028074817E+02  0.70906812217E+02  0.15673424600E+03  0.12501024985E+03 0.  0.
          5    1    3    3  501    0 -0.20380495190E+02  0.39554822595E+02 -0.30362081977E+02  0.53868493544E+02  0.10000000000E+00 0. -1.
         -5    1    3    3    0  501 -0.73889144886E+01  0.16473252222E+02  0.10126889419E+03  0.10286575245E+03  0.10000000000E+00 0. -1.
         21    1    1    2  504  502  0.27769409679E+02 -0.56028074817E+02  0.85736838819E+02  0.10611828689E+03  0.00000000000E+00 0. -1.
<mgrwt>
<rscale>  1 0.13977785E+03</rscale>
<asrwt>0</asrwt>
<pdfrwt beam="1">  1       21 0.32268937E-01 0.13977785E+03</pdfrwt>
<pdfrwt beam="2">  1       21 0.81699141E-02 0.13977785E+03</pdfrwt>
<totfact> 0.10702476E+06</totfact>
</mgrwt>
</event>
<event>
 6    1  0.4187588E-002  0.1259146E+03  0.7546771E-02  0.1233647E+00
         21   -1    0    0  503  502  0.00000000000E+00  0.00000000000E+00  0.26863914243E+02  0.26863914243E+02  0.00000000000E+00 0. -1.
         21   -1    0    0  504  503 -0.00000000000E+00 -0.00000000000E+00 -0.25200407669E+03  0.25200407669E+03  0.00000000000E+00 0. -1.
         25    2    1    2    0    0  0.40390079907E+01  0.14858496038E+02 -0.23042915420E+03  0.26258726848E+03  0.12496955618E+03 0.  0.
          5    1    3    3  501    0  0.17946374020E+02 -0.49661011341E+02 -0.60569151146E+02  0.80354965363E+02  0.10000000000E+00 0.  1.
         -5    1    3    3    0  501 -0.13907366030E+02  0.64519507380E+02 -0.16986000305E+03  0.18223230311E+03  0.10000000000E+00 0.  1.
         21    1    1    2  504  502 -0.40390079907E+01 -0.14858496038E+02  0.52889917461E+01  0.16280722458E+02  0.00000000000E+00 0. -1.
<mgrwt>
<rscale>  1 0.12591457E+03</rscale>
<asrwt>0</asrwt>
<pdfrwt beam="1">  1       21 0.41329101E-02 0.12591457E+03</pdfrwt>
<pdfrwt beam="2">  1       21 0.38769856E-01 0.12591457E+03</pdfrwt>
<totfact> 0.23622968E+06</totfact>
</mgrwt>
</event>
<event>
 6    1  0.4187588E-002  0.1272442E+03  0.7546771E-02  0.1231603E+00
         21   -1    0    0  504  502  0.00000000000E+00  0.00000000000E+00  0.13596755735E+04  0.13596755735E+04  0.00000000000E+00 0. -1.
         21   -1    0    0  502  503 -0.00000000000E+00 -0.00000000000E+00 -0.43226045652E+01  0.43226045652E+01  0.00000000000E+00 0. -1.
         25    2    1    2    0    0 -0.22338232414E+02 -0.82718768062E+01  0.10418615376E+04  0.10496030475E+04  0.12499469315E+03 0.  0.
          5    1    3    3  501    0  0.87424575284E+01  0.23761440017E+02  0.44157896432E+02  0.50901536447E+02  0.10000000000E+00 0.  1.
         -5    1    3    3    0  501 -0.31080689942E+02 -0.32033316823E+02  0.99770364115E+03  0.99870151108E+03  0.10000000000E+00 0.  1.
         21    1    1    2  504  503  0.22338232414E+02  0.82718768062E+01  0.31349143134E+03  0.31439513052E+03  0.00000000000E+00 0. -1.
<mgrwt>
<rscale>  1 0.12724423E+03</rscale>
<asrwt>0</asrwt>
<pdfrwt beam="1">  1       21 0.20918052E+00 0.12724423E+03</pdfrwt>
<pdfrwt beam="2">  1       21 0.66501717E-03 0.12724423E+03</pdfrwt>
<totfact> 0.85854681E+05</totfact>
</mgrwt>
</event>
<event>
 6    1  0.4187588E-002  0.1270279E+03  0.7546771E-02  0.1231934E+00
         21   -1    0    0  503  502  0.00000000000E+00  0.00000000000E+00  0.55540202825E+03  0.55540202825E+03  0.00000000000E+00 0.  1.
         21   -1    0    0  504  503 -0.00000000000E+00 -0.00000000000E+00 -0.16416940974E+02  0.16416940974E+02  0.00000000000E+00 0.  1.
         25    2    1    2    0    0  0.11902111915E+02 -0.19221586767E+02  0.23620186623E+03  0.26819286921E+03  0.12499985526E+03 0.  0.
          5    1    3    3  501    0 -0.19705863386E+02 -0.35060123751E+02  0.13087132115E+02  0.42294401003E+02  0.10000000000E+00 0. -1.
         -5    1    3    3    0  501  0.31607975301E+02  0.15838536984E+02  0.22311473412E+03  0.22589846820E+03  0.10000000000E+00 0. -1.
         21    1    1    2  504  502 -0.11902111915E+02  0.19221586767E+02  0.30278322105E+03  0.30362610002E+03  0.00000000000E+00 0.  1.
<mgrwt>
<rscale>  1 0.12702792E+03</rscale>
<asrwt>0</asrwt>
<pdfrwt beam="1">  1       21 0.85446451E-01 0.12702792E+03</pdfrwt>
<pdfrwt beam="2">  1       21 0.25256837E-02 0.12702792E+03</pdfrwt>
<totfact> 0.99934137E+05</totfact>
</mgrwt>
</event>
<event>
 6    1  0.4187588E-002  0.1260851E+03  0.7546771E-02  0.1233383E+00
         21   -1    0    0  504  502  0.00000000000E+00  0.00000000000E+00  0.13929410880E+02  0.13929410880E+02  0.00000000000E+00 0.  1.
         21   -1    0    0  502  503 -0.00000000000E+00 -0.00000000000E+00 -0.10131935656E+04  0.10131935656E+04  0.00000000000E+00 0.  1.
         25    2    1    2    0    0  0.40678785893E+01  0.15996948483E+02 -0.10024195940E+04  0.10103180131E+04  0.12499998124E+03 0.  0.
          5    1    3    3  501    0 -0.71000745462E+01  0.29345089155E+02 -0.55027602358E+02  0.62766171919E+02  0.10000000000E+00 0. -1.
         -5    1    3    3    0  501  0.11167953135E+02 -0.13348140673E+02 -0.94739199159E+03  0.94755184121E+03  0.10000000000E+00 0. -1.
         21    1    1    2  504  503 -0.40678785893E+01 -0.15996948483E+02  0.31554392225E+01  0.16804963364E+02  0.00000000000E+00 0.  1.
<mgrwt>
<rscale>  1 0.12608507E+03</rscale>
<asrwt>0</asrwt>
<pdfrwt beam="1">  1       21 0.21429856E-02 0.12608507E+03</pdfrwt>
<pdfrwt beam="2">  1       21 0.15587598E+00 0.12608507E+03</pdfrwt>
<totfact> 0.30401418E+05</totfact>
</mgrwt>
</event>
<event>
 6    1  0.4187588E-002  0.1280808E+03  0.7546771E-02  0.1230332E+00
         21   -1    0    0  503  502  0.00000000000E+00  0.00000000000E+00  0.45752368577E+02  0.45752368577E+02  0.00000000000E+00 0. -1.
         21   -1    0    0  504  503 -0.00000000000E+00 -0.00000000000E+00 -0.13298159982E+03  0.13298159982E+03  0.00000000000E+00 0. -1.
         25    2    1    2    0    0 -0.26670647444E+02 -0.82647846894E+01 -0.71498804750E+02  0.14668593540E+03  0.12500021785E+03 0.  0.
          5    1    3    3  501    0 -0.27146818577E+02  0.46157439785E+02  0.39069375868E+01  0.53691090208E+02  0.10000000000E+00 0. -1.
         -5    1    3    3    0  501  0.47617113309E+00 -0.54422224475E+02 -0.75405742337E+02  0.92994845196E+02  0.10000000000E+00 0. -1.
         21    1    1    2  504  502  0.26670647444E+02  0.82647846894E+01 -0.15730426494E+02  0.32048032993E+02  0.00000000000E+00 0. -1.
<mgrwt>
<rscale>  1 0.12808077E+03</rscale>
<asrwt>0</asrwt>
<pdfrwt beam="1">  1       21 0.70388259E-02 0.12808077E+03</pdfrwt>
<pdfrwt beam="2">  1       21 0.20458708E-01 0.12808077E+03</pdfrwt>
<totfact> 0.32785634E+06</totfact>
</mgrwt>
</event>
<event>
 6    1  0.4187588E-002  0.1272200E+03  0.7546771E-02  0.1231640E+00
         21   -1    0    0  504  502  0.00000000000E+00  0.00000000000E+00  0.62778301229E+02  0.62778301229E+02  0.00000000000E+00 0. -1.
         21   -1    0    0  502  503 -0.00000000000E+00 -0.00000000000E+00 -0.90717500503E+02  0.90717500503E+02  0.00000000000E+00 0. -1.
         25    2    1    2    0    0  0.15612313279E+02 -0.17699968552E+02 -0.21422045057E+02  0.12901097966E+03  0.12501158205E+03 0.  0.
          5    1    3    3  501    0  0.39403349895E+02 -0.13792335115E+02 -0.66136513176E+02  0.78210618626E+02  0.10000000000E+00 0.  1.
         -5    1    3    3    0  501 -0.23791036617E+02 -0.39076334373E+01  0.44714468118E+02  0.50800361037E+02  0.10000000000E+00 0.  1.
         21    1    1    2  504  503 -0.15612313279E+02  0.17699968552E+02 -0.65171542164E+01  0.24484822069E+02  0.00000000000E+00 0. -1.
<mgrwt>
<rscale>  1 0.12722000E+03</rscale>
<asrwt>0</asrwt>
<pdfrwt beam="1">  1       21 0.96582003E-02 0.12722000E+03</pdfrwt>
<pdfrwt beam="2">  1       21 0.13956538E-01 0.12722000E+03</pdfrwt>
<totfact> 0.38078773E+06</totfact>
</mgrwt>
</event>
<event>
 6    1  0.4187588E-002  0.1259321E+03  0.7546771E-02  0.1233620E+00
         21   -1    0    0  504  502  0.00000000000E+00  0.00000000000E+00  0.19945817644E+02  0.19945817644E+02  0.00000000000E+00 0. -1.
         21   -1    0    0  502  503 -0.00000000000E+00 -0.00000000000E+00 -0.26561711934E+03  0.26561711934E+03  0.00000000000E+00 0. -1.
         25    2    1    2    0    0  0.15033786858E+02 -0.28797361732E+01 -0.23588161449E+03  0.26739302770E+03  0.12499835032E+03 0.  0.
          5    1    3    3  501    0  0.50727991135E+02  0.14537093298E+02 -0.21716956325E+03  0.22348889317E+03  0.10000000000E+00 0. -1.
         -5    1    3    3    0  501 -0.35694204276E+02 -0.17416829471E+02 -0.18712051235E+02  0.43904134534E+02  0.10000000000E+00 0. -1.
         21    1    1    2  504  503 -0.15033786858E+02  0.28797361732E+01 -0.97896872117E+01  0.18169909285E+02  0.00000000000E+00 0. -1.
<mgrwt>
<rscale>  1 0.12593211E+03</rscale>
<asrwt>0</asrwt>
<pdfrwt beam="1">  1       21 0.30685874E-02 0.12593211E+03</pdfrwt>
<pdfrwt beam="2">  1       21 0.40864172E-01 0.12593211E+03</pdfrwt>
<totfact> 0.34776609E+06</totfact>
</mgrwt>
</event>
<event>
 6    1  0.4187588E-002  0.1282562E+03  0.7546771E-02  0.1230066E+00
         21   -1    0    0  503  502  0.00000000000E+00  0.00000000000E+00  0.28981156570E+02  0.28981156570E+02  0.00000000000E+00 0.  1.
         21   -1    0    0  504  503 -0.00000000000E+00 -0.00000000000E+00 -0.21915030332E+03  0.21915030332E+03  0.00000000000E+00 0.  1.
         25    2    1    2    0    0  0.88426855879E+01 -0.27339115501E+02 -0.17031328191E+03  0.21320474098E+03  0.12499610897E+03 0.  0.
          5    1    3    3  501    0 -0.34378890738E+02  0.30600186483E+02 -0.10936301581E+03  0.11865310264E+03  0.10000000000E+00 0.  1.
         -5    1    3    3    0  501  0.43221576326E+02 -0.57939301984E+02 -0.60950266101E+02  0.94551638337E+02  0.10000000000E+00 0.  1.
         21    1    1    2  504  502 -0.88426855879E+01  0.27339115501E+02 -0.19855864840E+02  0.34926718903E+02  0.00000000000E+00 0.  1.
<mgrwt>
<rscale>  1 0.12825618E+03</rscale>
<asrwt>0</asrwt>
<pdfrwt beam="1">  1       21 0.44586396E-02 0.12825618E+03</pdfrwt>
<pdfrwt beam="2">  1       21 0.33715431E-01 0.12825618E+03</pdfrwt>
<totfact> 0.27434639E+06</totfact>
</mgrwt>
</event>
<event>
 6    1  0.4187588E-002  0.1263699E+03  0.7546771E-02  0.1232944E+00
         21   -1    0    0  503  502  0.00000000000E+00  0.00000000000E+00  0.16584324698E+02  0.16584324698E+02  0.00000000000E+00 0.  1.
         21   -1    0    0  504  503 -0.00000000000E+00 -0.00000000000E+00 -0.36512685921E+03  0.36512685921E+03  0.00000000000E+00 0.  1.
         25    2    1    2    0    0 -0.23177587338E+01  0.18438349603E+02 -0.33680387013E+03  0.35973071569E+03  0.12499598447E+03 0.  0.
          5    1    3    3  501    0 -0.11678775696E+02  0.25007960205E+02 -0.53931643037E+01  0.28122732737E+02  0.10000000000E+00 0. -1.
         -5    1    3    3    0  501  0.93610169627E+01 -0.65696106020E+01 -0.33141070582E+03  0.33160798295E+03  0.10000000000E+00 0. -1.
         21    1    1    2  504  502  0.23177587338E+01 -0.18438349603E+02 -0.11738664385E+02  0.21980468220E+02  0.00000000000E+00 0.  1.
<mgrwt>
<rscale>  1 0.12636986E+03</rscale>
<asrwt>0</asrwt>
<pdfrwt beam="1">  1       21 0.25514350E-02 0.12636986E+03</pdfrwt>
<pdfrwt beam="2">  1       21 0.56173353E-01 0.12636986E+03</pdfrwt>
<totfact> 0.24495445E+06</totfact>
</mgrwt>
</event>
<event>
 6    1  0.4187588E-002  0.1268850E+03  0.7546771E-02  0.1232152E+00
         21   -1    0    0  504  502  0.00000000000E+00  0.00000000000E+00  0.11018068444E+03  0.11018068444E+03  0.00000000000E+00 0. -1.
         21   -1    0    0  502  503 -0.00000000000E+00 -0.00000000000E+00 -0.16017915099E+03  0.16017915099E+03  0.00000000000E+00 0. -1.
         25    2    1    2    0    0  0.26695353576E-01  0.21489810178E+02 -0.13347515012E+03  0.18416140531E+03  0.12505196860E+03 0.  0.
          5    1    3    3  501    0 -0.23296065444E+02  0.68701069473E+02 -0.62292445888E+02  0.95618525541E+02  0.10000000000E+00 0. -1.
         -5    1    3    3    0  501  0.23322760798E+02 -0.47211259296E+02 -0.71182704234E+02  0.88542879768E+02  0.10000000000E+00 0. -1.
         21    1    1    2  504  503 -0.26695353576E-01 -0.21489810178E+02  0.83476683576E+02  0.86198430118E+02  0.00000000000E+00 0. -1.
<mgrwt>
<rscale>  1 0.12688502E+03</rscale>
<asrwt>0</asrwt>
<pdfrwt beam="1">  1       21 0.16950874E-01 0.12688502E+03</pdfrwt>
<pdfrwt beam="2">  1       21 0.24642946E-01 0.12688502E+03</pdfrwt>
<totfact> 0.49233183E+05</totfact>
</mgrwt>
</event>
<event>
 6    1  0.4187588E-002  0.1268570E+03  0.7546771E-02  0.1232195E+00
         21   -1    0    0  503  502  0.00000000000E+00  0.00000000000E+00  0.10241622634E+04  0.10241622634E+04  0.00000000000E+00 0. -1.
         21   -1    0    0  504  503 -0.00000000000E+00 -0.00000000000E+00 -0.33303039666E+02  0.33303039666E+02  0.00000000000E+00 0. -1.
         25    2    1    2    0    0 -0.21652738706E+02  0.85040501952E+00  0.88105488450E+02  0.15445153194E+03  0.12499253714E+03 0.  0.
          5    1    3    3  501    0  0.40746597325E+02  0.44175115860E+01  0.81975465096E+02  0.91650349044E+02  0.10000000000E+00 0.  1.
         -5    1    3    3    0  501 -0.62399336031E+02 -0.35671065665E+01  0.61300233537E+01  0.62801182892E+02  0.10000000000E+00 0.  1.
         21    1    1    2  504  502  0.21652738706E+02 -0.85040501952E+00  0.90275373530E+03  0.90301377114E+03  0.00000000000E+00 0. -1.
<mgrwt>
<rscale>  1 0.12685700E+03</rscale>
<asrwt>0</asrwt>
<pdfrwt beam="1">  1       21 0.15756340E+00 0.12685700E+03</pdfrwt>
<pdfrwt beam="2">  1       21 0.51235453E-02 0.12685700E+03</pdfrwt>
<totfact> 0.70288129E+04</totfact>
</mgrwt>
</event>
<event>
 6    1  0.4187588E-002  0.1512846E+03  0.7546771E-02  0.1198903E+00
         21   -1    0    0  504  502  0.00000000000E+00  0.00000000000E+00  0.12264984007E+03  0.12264984007E+03  0.00000000000E+00 0. -1.
         21   -1    0    0  502  503 -0.00000000000E+00 -0.00000000000E+00 -0.23284663436E+03  0.23284663436E+03  0.00000000000E+00 0. -1.
         25    2    1    2    0    0  0.35894485331E+02 -0.77294168933E+02 -0.18716575545E+03  0.24066170788E+03  0.12499693995E+03 0.  0.
          5    1    3    3  501    0 -0.44551745042E+01  0.27208832048E+02 -0.83863579251E+02  0.88279550554E+02  0.10000000000E+00 0.  1.
         -5    1    3    3    0  501  0.40349659836E+02 -0.10450300098E+03 -0.10330217620E+03  0.15238215732E+03  0.10000000000E+00 0.  1.
         21    1    1    2  504  503 -0.35894485331E+02  0.77294168933E+02  0.76968961152E+02  0.11483476655E+03  0.00000000000E+00 0. -1.
<mgrwt>
<rscale>  1 0.15128462E+03</rscale>
<asrwt>0</asrwt>
<pdfrwt beam="1">  1       21 0.18869206E-01 0.15128462E+03</pdfrwt>
<pdfrwt beam="2">  1       21 0.35822559E-01 0.15128462E+03</pdfrwt>
<totfact> 0.19562211E+05</totfact>
</mgrwt>
</event>
<event>
 6    1  0.4187588E-002  0.1267066E+03  0.7546771E-02  0.1232426E+00
         21   -1    0    0  504  502  0.00000000000E+00  0.00000000000E+00  0.82778083283E+02  0.82778083283E+02  0.00000000000E+00 0.  1.
         21   -1    0    0  502  503 -0.00000000000E+00 -0.00000000000E+00 -0.73095835973E+02  0.73095835973E+02  0.00000000000E+00 0.  1.
         25    2    1    2    0    0  0.47597682764E+00  0.20718793978E+02 -0.10249360855E+02  0.12712041544E+03  0.12500022258E+03 0.  0.
          5    1    3    3  501    0  0.32338337454E+02  0.64481801425E+02 -0.63159736398E+00  0.72139307590E+02  0.10000000000E+00 0.  1.
         -5    1    3    3    0  501 -0.31862360626E+02 -0.43763007447E+02 -0.96177634914E+01  0.54981107847E+02  0.10000000000E+00 0.  1.
         21    1    1    2  504  503 -0.47597682764E+00 -0.20718793978E+02  0.19931608165E+02  0.28753503819E+02  0.00000000000E+00 0.  1.
<mgrwt>
<rscale>  1 0.12670655E+03</rscale>
<asrwt>0</asrwt>
<pdfrwt beam="1">  1       21 0.12735090E-01 0.12670655E+03</pdfrwt>
<pdfrwt beam="2">  1       21 0.11245513E-01 0.12670655E+03</pdfrwt>
<totfact> 0.34335234E+06</totfact>
</mgrwt>
</event>
<event>
 6    1  0.4187588E-002  0.1264126E+03  0.7546771E-02  0.1232878E+00
         21   -1    0    0  503  502  0.00000000000E+00  0.00000000000E+00  0.33000364252E+02  0.33000364252E+02  0.00000000000E+00 0. -1.
         21   -1    0    0  504  503 -0.00000000000E+00 -0.00000000000E+00 -0.16593557527E+03  0.16593557527E+03  0.00000000000E+00 0. -1.
         25    2    1    2    0    0  0.14156321085E+02 -0.12397605907E+02 -0.12703495513E+03  0.17921500956E+03  0.12500415100E+03 0.  0.
          5    1    3    3  501    0 -0.28236319107E+02 -0.12924866100E+02  0.12429327566E+02  0.33449066716E+02  0.10000000000E+00 0.  1.
         -5    1    3    3    0  501  0.42392640192E+02  0.52726019258E+00 -0.13946428269E+03  0.14576594284E+03  0.10000000000E+00 0.  1.
         21    1    1    2  504  502 -0.14156321085E+02  0.12397605907E+02 -0.59002558867E+01  0.19720929959E+02  0.00000000000E+00 0.  1.
<mgrwt>
<rscale>  1 0.12641258E+03</rscale>
<asrwt>0</asrwt>
<pdfrwt beam="1">  1       21 0.50769792E-02 0.12641258E+03</pdfrwt>
<pdfrwt beam="2">  1       21 0.25528550E-01 0.12641258E+03</pdfrwt>
<totfact> 0.37665421E+06</totfact>
</mgrwt>
</event>
<event>
 6    1  0.4187588E-002  0.1262172E+03  0.7546771E-02  0.1233179E+00
         21   -1    0    0  504  502  0.00000000000E+00  0.00000000000E+00  0.89737812977E+02  0.89737812977E+02  0.00000000000E+00 0. -1.
         21   -1    0    0  502  503 -0.00000000000E+00 -0.00000000000E+00 -0.67166385112E+02  0.67166385112E+02  0.00000000000E+00 0. -1.
         25    2    1    2    0    0  0.79232342997E+00 -0.17463433329E+02 -0.26164609211E+01  0.12624430537E+03  0.12500071796E+03 0.  0.
          5    1    3    3  501    0 -0.36522306275E+02  0.35955135078E+02 -0.25419779318E+02  0.57208616262E+02  0.10000000000E+00 0.  1.
         -5    1    3    3    0  501  0.37314629705E+02 -0.53418568407E+02  0.22803318397E+02  0.69035689108E+02  0.10000000000E+00 0.  1.
         21    1    1    2  504  503 -0.79232342997E+00  0.17463433329E+02  0.25187888786E+02  0.30659892720E+02  0.00000000000E+00 0.  1.
<mgrwt>
<rscale>  1 0.12621719E+03</rscale>
<asrwt>0</asrwt>
<pdfrwt beam="1">  1       21 0.13805817E-01 0.12621719E+03</pdfrwt>
<pdfrwt beam="2">  1       21 0.10333290E-01 0.12621719E+03</pdfrwt>
<totfact> 0.34488285E+06</totfact>
</mgrwt>
</event>
<event>
 6    1  0.4187588E-002  0.1296270E+03  0.7546771E-02  0.1228010E+00
         21   -1    0    0  504  502  0.00000000000E+00  0.00000000000E+00  0.58263514901E+01  0.58263514901E+01  0.00000000000E+00 0. -1.
         21   -1    0    0  502  503 -0.00000000000E+00 -0.00000000000E+00 -0.11566816500E+04  0.11566816500E+04  0.00000000000E+00 0. -1.
         25    2    1    2    0    0 -0.19488043883E+02 -0.28265791740E+02 -0.93377101580E+03  0.94272555306E+03  0.12499767843E+03 0.  0.
          5    1    3    3  501    0  0.27519617695E+02 -0.57828802192E+02 -0.31355508340E+03  0.32002859254E+03  0.10000000000E+00 0.  1.
         -5    1    3    3    0  501 -0.47007661578E+02  0.29563010451E+02 -0.62021593240E+03  0.62269696052E+03  0.10000000000E+00 0.  1.
         21    1    1    2  504  503  0.19488043883E+02  0.28265791740E+02 -0.21708428272E+03  0.21978244844E+03  0.00000000000E+00 0. -1.
<mgrwt>
<rscale>  1 0.12962700E+03</rscale>
<asrwt>0</asrwt>
<pdfrwt beam="1">  1       21 0.89636166E-03 0.12962700E+03</pdfrwt>
<pdfrwt beam="2">  1       21 0.17795104E+00 0.12962700E+03</pdfrwt>
<totfact> 0.85278158E+05</totfact>
</mgrwt>
</event>
<event>
 6    1  0.4187588E-002  0.1532942E+03  0.7546771E-02  0.1196483E+00
         21   -1    0    0  504  502  0.00000000000E+00  0.00000000000E+00  0.13786436058E+02  0.13786436058E+02  0.00000000000E+00 0.  1.
         21   -1    0    0  502  503 -0.00000000000E+00 -0.00000000000E+00 -0.11168449985E+04  0.11168449985E+04  0.00000000000E+00 0.  1.
         25    2    1    2    0    0 -0.79583821642E+02 -0.39252453052E+02 -0.81211913629E+03  0.82646028302E+03  0.12499907258E+03 0.  0.
          5    1    3    3  501    0 -0.99984983995E+02 -0.63211797123E+01 -0.71360403284E+03  0.72060230365E+03  0.10000000000E+00 0.  1.
         -5    1    3    3    0  501  0.20401162353E+02 -0.32931273340E+02 -0.98515103444E+02  0.10585797937E+03  0.10000000000E+00 0.  1.
         21    1    1    2  504  503  0.79583821642E+02  0.39252453052E+02 -0.29093942616E+03  0.30417115154E+03  0.00000000000E+00 0.  1.
<mgrwt>
<rscale>  1 0.15329419E+03</rscale>
<asrwt>0</asrwt>
<pdfrwt beam="1">  1       21 0.21209896E-02 0.15329419E+03</pdfrwt>
<pdfrwt beam="2">  1       21 0.17182235E+00 0.15329419E+03</pdfrwt>
<totfact> 0.23566724E+05</totfact>
</mgrwt>
</event>
<event>
 6    1  0.4187588E-002  0.1450625E+03  0.7546771E-02  0.1206675E+00
         21   -1    0    0  504  502  0.00000000000E+00  0.00000000000E+00  0.11644643722E+04  0.11644643722E+04  0.00000000000E+00 0.  1.
         21   -1    0    0  502  503 -0.00000000000E+00 -0.00000000000E+00 -0.56283551222E+02  0.56283551222E+02  0.00000000000E+00 0. -1.
         25    2    1    2    0    0  0.73029821612E+02 -0.80709174319E+01  0.40593507759E+02  0.15063523501E+03  0.12507856172E+03 0.  0.
          5    1    3    3  501    0  0.91792828119E+02 -0.45185944648E+02  0.37367020580E+02  0.10892197719E+03  0.10000000000E+00 0.  1.
         -5    1    3    3    0  501 -0.18763006507E+02  0.37115027216E+02  0.32264871782E+01  0.41713257820E+02  0.10000000000E+00 0.  1.
         21    1    1    2  504  503 -0.73029821612E+02  0.80709174319E+01  0.10675873132E+04  0.10701126884E+04  0.00000000000E+00 0.  1.
<mgrwt>
<rscale>  1 0.14506254E+03</rscale>
<asrwt>0</asrwt>
<pdfrwt beam="1">  1       21 0.17914835E+00 0.14506254E+03</pdfrwt>
<pdfrwt beam="2">  1       21 0.86590087E-02 0.14506254E+03</pdfrwt>
<totfact> 0.20000369E+04</totfact>
</mgrwt>
</event>
<event>
 6    1  0.4187588E-002  0.1488526E+03  0.7546771E-02  0.1201890E+00
         21   -1    0    0  504  502  0.00000000000E+00  0.00000000000E+00  0.90210417072E+03  0.90210417072E+03  0.00000000000E+00 0.  1.
         21   -1    0    0  502  503 -0.00000000000E+00 -0.00000000000E+00 -0.14648415180E+02  0.14648415180E+02  0.00000000000E+00 0.  1.
         25    2    1    2    0    0  0.80010406723E+02  0.11399358464E+02  0.55503139166E+03  0.57464504688E+03  0.12500189443E+03 0.  0.
          5    1    3    3  501    0  0.13227211818E+02  0.30840234804E+02  0.29956030403E+02  0.44982807524E+02  0.10000000000E+00 0. -1.
         -5    1    3    3    0  501  0.66783194904E+02 -0.19440876340E+02  0.52507536126E+03  0.52966223935E+03  0.10000000000E+00 0. -1.
         21    1    1    2  504  503 -0.80010406723E+02 -0.11399358464E+02  0.33242436388E+03  0.34210753902E+03  0.00000000000E+00 0.  1.
<mgrwt>
<rscale>  1 0.14885256E+03</rscale>
<asrwt>0</asrwt>
<pdfrwt beam="1">  1       21 0.13878521E+00 0.14885256E+03</pdfrwt>
<pdfrwt beam="2">  1       21 0.22536030E-02 0.14885256E+03</pdfrwt>
<totfact> 0.37558260E+05</totfact>
</mgrwt>
</event>
<event>
 6    1  0.4187588E-002  0.1278761E+03  0.7546771E-02  0.1230642E+00
         21   -1    0    0  503  502  0.00000000000E+00  0.00000000000E+00  0.21390506229E+03  0.21390506229E+03  0.00000000000E+00 0.  1.
         21   -1    0    0  504  503 -0.00000000000E+00 -0.00000000000E+00 -0.33793991803E+02  0.33793991803E+02  0.00000000000E+00 0.  1.
         25    2    1    2    0    0 -0.25810026167E+02  0.78276042589E+01  0.97526867881E+02  0.16082224845E+03  0.12499950719E+03 0.  0.
          5    1    3    3  501    0 -0.22813541891E+02  0.37859595830E+02 -0.13139925483E+02  0.46113710886E+02  0.10000000000E+00 0. -1.
         -5    1    3    3    0  501 -0.29964842761E+01 -0.30031991571E+02  0.11066679336E+03  0.11470853756E+03  0.10000000000E+00 0. -1.
         21    1    1    2  504  502  0.25810026167E+02 -0.78276042589E+01  0.82584202606E+02  0.86876805646E+02  0.00000000000E+00 0.  1.
<mgrwt>
<rscale>  1 0.12787613E+03</rscale>
<asrwt>0</asrwt>
<pdfrwt beam="1">  1       21 0.32908470E-01 0.12787613E+03</pdfrwt>
<pdfrwt beam="2">  1       21 0.51990758E-02 0.12787613E+03</pdfrwt>
<totfact> 0.22231005E+06</totfact>
</mgrwt>
</event>
<event>
 6    1  0.4187588E-002  0.1272209E+03  0.7546771E-02  0.1231639E+00
         21   -1    0    0  503  502  0.00000000000E+00  0.00000000000E+00  0.57971950365E+02  0.57971950365E+02  0.00000000000E+00 0. -1.
         21   -1    0    0  504  503 -0.00000000000E+00 -0.00000000000E+00 -0.11333566657E+03  0.11333566657E+03  0.00000000000E+00 0. -1.
         25    2    1    2    0    0 -0.11243124373E+01 -0.23643574556E+02 -0.68234365487E+02  0.14436441168E+03  0.12499948812E+03 0.  0.
          5    1    3    3  501    0  0.22429509116E+02  0.16608753352E+02  0.26680367995E+02  0.38610692864E+02  0.10000000000E+00 0. -1.
         -5    1    3    3    0  501 -0.23553821553E+02 -0.40252327908E+02 -0.94914733481E+02  0.10575371882E+03  0.10000000000E+00 0. -1.
         21    1    1    2  504  502  0.11243124373E+01  0.23643574556E+02  0.12870649284E+02  0.26943205251E+02  0.00000000000E+00 0.  1.
<mgrwt>
<rscale>  1 0.12722089E+03</rscale>
<asrwt>0</asrwt>
<pdfrwt beam="1">  1       21 0.89187617E-02 0.12722089E+03</pdfrwt>
<pdfrwt beam="2">  1       21 0.17436256E-01 0.12722089E+03</pdfrwt>
<totfact> 0.29248027E+06</totfact>
</mgrwt>
</event>
<event>
 6    1  0.4187588E-002  0.1387546E+03  0.7546771E-02  0.1215015E+00
         21   -1    0    0  503  502  0.00000000000E+00  0.00000000000E+00  0.53773841017E+03  0.53773841017E+03  0.00000000000E+00 0. -1.
         21   -1    0    0  504  503 -0.00000000000E+00 -0.00000000000E+00 -0.18990113315E+02  0.18990113315E+02  0.00000000000E+00 0. -1.
         25    2    1    2    0    0  0.19939900250E+02  0.56825761734E+02  0.31364115764E+03  0.34296298516E+03  0.12500426635E+03 0.  0.
          5    1    3    3  501    0  0.30073691314E+02  0.24122612912E+02  0.13459238513E+02  0.40834892730E+02  0.10000000000E+00 0. -1.
         -5    1    3    3    0  501 -0.10133791063E+02  0.32703148822E+02  0.30018191912E+03  0.30212809243E+03  0.10000000000E+00 0. -1.
         21    1    1    2  504  502 -0.19939900250E+02 -0.56825761734E+02  0.20510713922E+03  0.21376553833E+03  0.00000000000E+00 0. -1.
<mgrwt>
<rscale>  1 0.13875458E+03</rscale>
<asrwt>0</asrwt>
<pdfrwt beam="1">  1       21 0.82728975E-01 0.13875458E+03</pdfrwt>
<pdfrwt beam="2">  1       21 0.29215563E-02 0.13875458E+03</pdfrwt>
<totfact> 0.84718355E+05</totfact>
</mgrwt>
</event>
<event>
 6    1  0.4187588E-002  0.1268565E+03  0.7546771E-02  0.1232196E+00
         21   -1    0    0  504  502  0.00000000000E+00  0.00000000000E+00  0.12630443186E+03  0.12630443186E+03  0.00000000000E+00 0.  1.
         21   -1    0    0  502  503 -0.00000000000E+00 -0.00000000000E+00 -0.11010250002E+03  0.11010250002E+03  0.00000000000E+00 0.  1.
         25    2    1    2    0    0 -0.20544586224E+02  0.65116354140E+01 -0.71826016794E+02  0.14577911518E+03  0.12501236865E+03 0.  0.
          5    1    3    3  501    0 -0.33590674664E+02  0.54137734233E+02 -0.72338781095E+02  0.96395730936E+02  0.10000000000E+00 0.  1.
         -5    1    3    3    0  501  0.13046088440E+02 -0.47626098819E+02  0.51276430146E+00  0.49383384245E+02  0.10000000000E+00 0.  1.
         21    1    1    2  504  503  0.20544586224E+02 -0.65116354140E+01  0.88027948634E+02  0.90627816699E+02  0.00000000000E+00 0.  1.
<mgrwt>
<rscale>  1 0.12685651E+03</rscale>
<asrwt>0</asrwt>
<pdfrwt beam="1">  1       21 0.19431451E-01 0.12685651E+03</pdfrwt>
<pdfrwt beam="2">  1       21 0.16938846E-01 0.12685651E+03</pdfrwt>
<totfact> 0.76768293E+05</totfact>
</mgrwt>
</event>
<event>
 6    1  0.4187588E-002  0.1321962E+03  0.7546771E-02  0.1224233E+00
         21   -1    0    0  503  502  0.00000000000E+00  0.00000000000E+00  0.79271923602E+02  0.79271923602E+02  0.00000000000E+00 0. -1.
         21   -1    0    0  504  503 -0.00000000000E+00 -0.00000000000E+00 -0.12732977902E+03  0.12732977902E+03  0.00000000000E+00 0. -1.
         25    2    1    2    0    0 -0.76888174694E+01 -0.42336142098E+02  0.11978895778E+02  0.13273778494E+03  0.12499743503E+03 0.  0.
          5    1    3    3  501    0  0.44708747108E+02 -0.69935541964E+01  0.42918558648E+02  0.62368217424E+02  0.10000000000E+00 0.  1.
         -5    1    3    3    0  501 -0.52397564577E+02 -0.35342587902E+02 -0.30939662870E+02  0.70369567512E+02  0.10000000000E+00 0.  1.
         21    1    1    2  504  502  0.76888174694E+01  0.42336142098E+02 -0.60036751193E+02  0.73863917685E+02  0.00000000000E+00 0. -1.
<mgrwt>
<rscale>  1 0.13219616E+03</rscale>
<asrwt>0</asrwt>
<pdfrwt beam="1">  1       21 0.12195681E-01 0.13219616E+03</pdfrwt>
<pdfrwt beam="2">  1       21 0.19589197E-01 0.13219616E+03</pdfrwt>
<totfact> 0.13655064E+06</totfact>
</mgrwt>
</event>
<event>
 6    1  0.4187588E-002  0.1275875E+03  0.7546771E-02  0.1231080E+00
         21   -1    0    0  503  502  0.00000000000E+00  0.00000000000E+00  0.16202273275E+04  0.16202273275E+04  0.00000000000E+00 0.  1.
         21   -1    0    0  504  503 -0.00000000000E+00 -0.00000000000E+00 -0.64251406503E+01  0.64251406503E+01  0.00000000000E+00 0.  1.
         25    2    1    2    0    0  0.44259066887E+01 -0.25205281488E+02  0.64423015486E+03  0.65674277128E+03  0.12499472122E+03 0.  0.
          5    1    3    3  501    0  0.15682476734E+02 -0.70704142988E+02  0.26832729508E+03  0.27792906145E+03  0.10000000000E+00 0.  1.
         -5    1    3    3    0  501 -0.11256570045E+02  0.45498861500E+02  0.37590285978E+03  0.37881370984E+03  0.10000000000E+00 0.  1.
         21    1    1    2  504  502 -0.44259066887E+01  0.25205281488E+02  0.96957203203E+03  0.96990969691E+03  0.00000000000E+00 0.  1.
<mgrwt>
<rscale>  1 0.12758752E+03</rscale>
<asrwt>0</asrwt>
<pdfrwt beam="1">  1       21 0.24926542E+00 0.12758752E+03</pdfrwt>
<pdfrwt beam="2">  1       21 0.98848447E-03 0.12758752E+03</pdfrwt>
<totfact> 0.26747383E+05</totfact>
</mgrwt>
</event>
<event>
 6    1  0.4187588E-002  0.1332020E+03  0.7546771E-02  0.1222780E+00
         21   -1    0    0  504  502  0.00000000000E+00  0.00000000000E+00  0.12412662420E+02  0.12412662420E+02  0.00000000000E+00 0. -1.
         21   -1    0    0  502  503 -0.00000000000E+00 -0.00000000000E+00 -0.65463723925E+03  0.65463723925E+03  0.00000000000E+00 0. -1.
         25    2    1    2    0    0  0.15721875703E+02  0.43243069751E+02 -0.44369754020E+03  0.46326048897E+03  0.12500253198E+03 0.  0.
          5    1    3    3  501    0 -0.20235678950E+02  0.49931807313E+02 -0.41001375241E+03  0.41353833589E+03  0.10000000000E+00 0. -1.
         -5    1    3    3    0  501  0.35957554653E+02 -0.66887375623E+01 -0.33683787788E+02  0.49722153076E+02  0.10000000000E+00 0. -1.
         21    1    1    2  504  503 -0.15721875703E+02 -0.43243069751E+02 -0.19852703663E+03  0.20378941270E+03  0.00000000000E+00 0.  1.
<mgrwt>
<rscale>  1 0.13320200E+03</rscale>
<asrwt>0</asrwt>
<pdfrwt beam="1">  1       21 0.19096404E-02 0.13320200E+03</pdfrwt>
<pdfrwt beam="2">  1       21 0.10071342E+00 0.13320200E+03</pdfrwt>
<totfact> 0.10764985E+06</totfact>
</mgrwt>
</event>
<event>
 6    1  0.4187588E-002  0.1270018E+03  0.7546771E-02  0.1231974E+00
         21   -1    0    0  504  502  0.00000000000E+00  0.00000000000E+00  0.21804064404E+03  0.21804064404E+03  0.00000000000E+00 0.  1.
         21   -1    0    0  502  503 -0.00000000000E+00 -0.00000000000E+00 -0.25830940147E+02  0.25830940147E+02  0.00000000000E+00 0.  1.
         25    2    1    2    0    0  0.21124226626E+02 -0.84743651847E+01  0.15685679173E+03  0.20182546410E+03  0.12494565632E+03 0.  0.
          5    1    3    3  501    0 -0.29451760634E+02 -0.17775600469E+02  0.14503636411E+03  0.14906017272E+03  0.10000000000E+00 0. -1.
         -5    1    3    3    0  501  0.50575987259E+02  0.93012352841E+01  0.11820427611E+02  0.52765291376E+02  0.10000000000E+00 0. -1.
         21    1    1    2  504  503 -0.21124226626E+02  0.84743651847E+01  0.35352912167E+02  0.42046120089E+02  0.00000000000E+00 0.  1.
<mgrwt>
<rscale>  1 0.12700183E+03</rscale>
<asrwt>0</asrwt>
<pdfrwt beam="1">  1       21 0.33544713E-01 0.12700183E+03</pdfrwt>
<pdfrwt beam="2">  1       21 0.39739909E-02 0.12700183E+03</pdfrwt>
<totfact> 0.33546778E+06</totfact>
</mgrwt>
</event>
<event>
 6    1  0.4187588E-002  0.1268588E+03  0.7546771E-02  0.1232193E+00
         21   -1    0    0  503  502  0.00000000000E+00  0.00000000000E+00  0.41790266315E+03  0.41790266315E+03  0.00000000000E+00 0.  1.
         21   -1    0    0  504  503 -0.00000000000E+00 -0.00000000000E+00 -0.52375814714E+03  0.52375814714E+03  0.00000000000E+00 0. -1.
         25    2    1    2    0    0 -0.63497936391E+01  0.20706944804E+02 -0.51578649209E+03  0.53115803460E+03  0.12499621935E+03 0.  0.
          5    1    3    3  501    0 -0.25935202351E+01  0.67407915273E+02 -0.18199931232E+03  0.19409871992E+03  0.10000000000E+00 0. -1.
         -5    1    3    3    0  501 -0.37562734040E+01 -0.46700970469E+02 -0.33378717977E+03  0.33705931468E+03  0.10000000000E+00 0. -1.
         21    1    1    2  504  502  0.63497936391E+01 -0.20706944804E+02  0.40993100811E+03  0.41050277569E+03  0.00000000000E+00 0.  1.
<mgrwt>
<rscale>  1 0.12685879E+03</rscale>
<asrwt>0</asrwt>
<pdfrwt beam="1">  1       21 0.64292718E-01 0.12685879E+03</pdfrwt>
<pdfrwt beam="2">  1       21 0.80578175E-01 0.12685879E+03</pdfrwt>
<totfact> 0.32198628E+03</totfact>
</mgrwt>
</event>
<event>
 6    1  0.4187588E-002  0.1472819E+03  0.7546771E-02  0.1203853E+00
         21   -1    0    0  503  502  0.00000000000E+00  0.00000000000E+00  0.69976704301E+03  0.69976704301E+03  0.00000000000E+00 0.  1.
         21   -1    0    0  504  503 -0.00000000000E+00 -0.00000000000E+00 -0.37167815704E+02  0.37167815704E+02  0.00000000000E+00 0.  1.
         25    2    1    2    0    0 -0.13675955492E+02 -0.76681238314E+02  0.12341674186E+03  0.19215527330E+03  0.12499965128E+03 0.  0.
          5    1    3    3  501    0 -0.65340879635E+01  0.16829396610E+02 -0.16004914671E+02  0.24126545327E+02  0.10000000000E+00 0. -1.
         -5    1    3    3    0  501 -0.71418675281E+01 -0.93510634924E+02  0.13942165653E+03  0.16802872798E+03  0.10000000000E+00 0. -1.
         21    1    1    2  504  502  0.13675955492E+02  0.76681238314E+02  0.53918248544E+03  0.54477958541E+03  0.00000000000E+00 0.  1.
<mgrwt>
<rscale>  1 0.14728190E+03</rscale>
<asrwt>0</asrwt>
<pdfrwt beam="1">  1       21 0.10765646E+00 0.14728190E+03</pdfrwt>
<pdfrwt beam="2">  1       21 0.57181260E-02 0.14728190E+03</pdfrwt>
<totfact> 0.14980209E+05</totfact>
</mgrwt>
</event>
<event>
 6    1  0.4187588E-002  0.1292706E+03  0.7546771E-02  0.1228542E+00
         21   -1    0    0  503  502  0.00000000000E+00  0.00000000000E+00  0.13909912981E+03  0.13909912981E+03  0.00000000000E+00 0. -1.
         21   -1    0    0  504  503 -0.00000000000E+00 -0.00000000000E+00 -0.34426135947E+03  0.34426135947E+03  0.00000000000E+00 0. -1.
         25    2    1    2    0    0 -0.23685544060E+02  0.22834541971E+02 -0.32991777511E+03  0.35433968699E+03  0.12501381577E+03 0.  0.
          5    1    3    3  501    0 -0.11675541954E+02 -0.29849527899E+02 -0.16034002969E+02  0.35838692037E+02  0.10000000000E+00 0.  1.
         -5    1    3    3    0  501 -0.12010002106E+02  0.52684069870E+02 -0.31388377214E+03  0.31850099495E+03  0.10000000000E+00 0.  1.
         21    1    1    2  504  502  0.23685544060E+02 -0.22834541971E+02  0.12475554545E+03  0.12902080230E+03  0.00000000000E+00 0. -1.
<mgrwt>
<rscale>  1 0.12927055E+03</rscale>
<asrwt>0</asrwt>
<pdfrwt beam="1">  1       21 0.21399866E-01 0.12927055E+03</pdfrwt>
<pdfrwt beam="2">  1       21 0.52963286E-01 0.12927055E+03</pdfrwt>
<totfact> 0.70650696E+04</totfact>
</mgrwt>
</event>
<event>
 6    1  0.4187588E-002  0.1289128E+03  0.7546771E-02  0.1229078E+00
         21   -1    0    0  503  502  0.00000000000E+00  0.00000000000E+00  0.45848734874E+02  0.45848734874E+02  0.00000000000E+00 0. -1.
         21   -1    0    0  504  503 -0.00000000000E+00 -0.00000000000E+00 -0.14346818512E+03  0.14346818512E+03  0.00000000000E+00 0. -1.
         25    2    1    2    0    0  0.60400034513E+01  0.30930450619E+02 -0.88979747683E+02  0.15663942197E+03  0.12500135439E+03 0.  0.
          5    1    3    3  501    0 -0.99535045559E+01 -0.20697068936E+02 -0.99035682576E+02  0.10166374643E+03  0.10000000000E+00 0. -1.
         -5    1    3    3    0  501  0.15993508007E+02  0.51627519555E+02  0.10055934893E+02  0.54975675533E+02  0.10000000000E+00 0. -1.
         21    1    1    2  504  502 -0.60400034513E+01 -0.30930450619E+02 -0.86397025671E+01  0.32677498032E+02  0.00000000000E+00 0.  1.
<mgrwt>
<rscale>  1 0.12891281E+03</rscale>
<asrwt>0</asrwt>
<pdfrwt beam="1">  1       21 0.70536514E-02 0.12891281E+03</pdfrwt>
<pdfrwt beam="2">  1       21 0.22072029E-01 0.12891281E+03</pdfrwt>
<totfact> 0.28375032E+06</totfact>
</mgrwt>
</event>
<event>
 6    1  0.4187588E-002  0.1388575E+03  0.7546771E-02  0.1214875E+00
         21   -1    0    0  503  502  0.00000000000E+00  0.00000000000E+00  0.35270721699E+03  0.35270721699E+03  0.00000000000E+00 0.  1.
         21   -1    0    0  504  503 -0.00000000000E+00 -0.00000000000E+00 -0.28708047051E+02  0.28708047051E+02  0.00000000000E+00 0.  1.
         25    2    1    2    0    0 -0.20611112682E+02  0.56858074540E+02  0.20031479760E+03  0.24373635292E+03  0.12499493186E+03 0.  0.
          5    1    3    3  501    0 -0.18759091355E+02  0.37362576535E+02  0.21514607225E+03  0.21917049993E+03  0.10000000000E+00 0. -1.
         -5    1    3    3    0  501 -0.18520213270E+01  0.19495498005E+02 -0.14831274650E+02  0.24565852992E+02  0.10000000000E+00 0. -1.
         21    1    1    2  504  502  0.20611112682E+02 -0.56858074540E+02  0.12368437233E+03  0.13767891111E+03  0.00000000000E+00 0.  1.
<mgrwt>
<rscale>  1 0.13885745E+03</rscale>
<asrwt>0</asrwt>
<pdfrwt beam="1">  1       21 0.54262646E-01 0.13885745E+03</pdfrwt>
<pdfrwt beam="2">  1       21 0.44166229E-02 0.13885745E+03</pdfrwt>
<totfact> 0.10670258E+06</totfact>
</mgrwt>
</event>
<event>
 6    1  0.4187588E-002  0.1355849E+03  0.7546771E-02  0.1219396E+00
         21   -1    0    0  503  502  0.00000000000E+00  0.00000000000E+00  0.47650195643E+03  0.47650195643E+03  0.00000000000E+00 0. -1.
         21   -1    0    0  504  503 -0.00000000000E+00 -0.00000000000E+00 -0.35844695699E+02  0.35844695699E+02  0.00000000000E+00 0. -1.
         25    2    1    2    0    0 -0.11878817138E+02 -0.51155953141E+02  0.10206865523E+03  0.16970940720E+03  0.12500093869E+03 0.  0.
          5    1    3    3  501    0  0.24784815544E+02 -0.32917188123E+02  0.11859599186E+03  0.12555017977E+03  0.10000000000E+00 0. -1.
         -5    1    3    3    0  501 -0.36663632682E+02 -0.18238765018E+02 -0.16527336630E+02  0.44159227426E+02  0.10000000000E+00 0. -1.
         21    1    1    2  504  502  0.11878817138E+02  0.51155953141E+02  0.33858860550E+03  0.34263724493E+03  0.00000000000E+00 0. -1.
<mgrwt>
<rscale>  1 0.13558493E+03</rscale>
<asrwt>0</asrwt>
<pdfrwt beam="1">  1       21 0.73307989E-01 0.13558493E+03</pdfrwt>
<pdfrwt beam="2">  1       21 0.55145689E-02 0.13558493E+03</pdfrwt>
<totfact> 0.38531930E+05</totfact>
</mgrwt>
</event>
<event>
 6    1  0.4187588E-002  0.1266547E+03  0.7546771E-02  0.1232506E+00
         21   -1    0    0  504  502  0.00000000000E+00  0.00000000000E+00  0.36687285031E+02  0.36687285031E+02  0.00000000000E+00 0.  1.
         21   -1    0    0  502  503 -0.00000000000E+00 -0.00000000000E+00 -0.16725602920E+03  0.16725602920E+03  0.00000000000E+00 0.  1.
         25    2    1    2    0    0  0.14356497905E+02  0.14477988588E+02 -0.13270206095E+03  0.18344277214E+03  0.12500276990E+03 0.  0.
          5    1    3    3  501    0 -0.10464912303E+02  0.36547380401E+02  0.80209749174E+01  0.38853203758E+02  0.10000000000E+00 0. -1.
         -5    1    3    3    0  501  0.24821410208E+02 -0.22069391812E+02 -0.14072303587E+03  0.14458956838E+03  0.10000000000E+00 0. -1.
         21    1    1    2  504  503 -0.14356497905E+02 -0.14477988588E+02  0.21333167830E+01  0.20500542094E+02  0.00000000000E+00 0.  1.
<mgrwt>
<rscale>  1 0.12665470E+03</rscale>
<asrwt>0</asrwt>
<pdfrwt beam="1">  1       21 0.56441977E-02 0.12665470E+03</pdfrwt>
<pdfrwt beam="2">  1       21 0.25731697E-01 0.12665470E+03</pdfrwt>
<totfact> 0.31043784E+06</totfact>
</mgrwt>
</event>
<event>
 6    1  0.4187588E-002  0.1526060E+03  0.7546771E-02  0.1197307E+00
         21   -1    0    0  504  502  0.00000000000E+00  0.00000000000E+00  0.98777766215E+03  0.98777766215E+03  0.00000000000E+00 0. -1.
         21   -1    0    0  502  503 -0.00000000000E+00 -0.00000000000E+00 -0.28501770339E+02  0.28501770339E+02  0.00000000000E+00 0. -1.
         25    2    1    2    0    0  0.84810750571E+02  0.21703985446E+02  0.19799369264E+03  0.24998020035E+03  0.12499868738E+03 0.  0.
          5    1    3    3  501    0  0.20190047134E+02 -0.64563055908E+01 -0.14775146001E+02  0.25838669171E+02  0.10000000000E+00 0.  1.
         -5    1    3    3    0  501  0.64620703437E+02  0.28160291037E+02  0.21276883864E+03  0.22414153118E+03  0.10000000000E+00 0.  1.
         21    1    1    2  504  503 -0.84810750571E+02 -0.21703985446E+02  0.76128219917E+03  0.76629923214E+03  0.00000000000E+00 0. -1.
<mgrwt>
<rscale>  1 0.15260602E+03</rscale>
<asrwt>0</asrwt>
<pdfrwt beam="1">  1       21 0.15196577E+00 0.15260602E+03</pdfrwt>
<pdfrwt beam="2">  1       21 0.43848885E-02 0.15260602E+03</pdfrwt>
<totfact> 0.98937188E+04</totfact>
</mgrwt>
</event>
<event>
 6    1  0.4187588E-002  0.1269223E+03  0.7546771E-02  0.1232095E+00
         21   -1    0    0  504  502  0.00000000000E+00  0.00000000000E+00  0.76392809127E+03  0.76392809127E+03  0.00000000000E+00 0.  1.
         21   -1    0    0  502  503 -0.00000000000E+00 -0.00000000000E+00 -0.13714311801E+03  0.13714311801E+03  0.00000000000E+00 0. -1.
         25    2    1    2    0    0 -0.21443266746E+02 -0.51054113995E+01 -0.10757648355E+03  0.16637900968E+03  0.12499358438E+03 0.  0.
          5    1    3    3  501    0  0.23670073706E+02 -0.54861535465E+02 -0.51638738276E+02  0.78972335368E+02  0.10000000000E+00 0.  1.
         -5    1    3    3    0  501 -0.45113340452E+02  0.49756124065E+02 -0.55937745270E+02  0.87406674314E+02  0.10000000000E+00 0.  1.
         21    1    1    2  504  503  0.21443266746E+02  0.51054113995E+01  0.73436145680E+03  0.73469219960E+03  0.00000000000E+00 0.  1.
<mgrwt>
<rscale>  1 0.12692232E+03</rscale>
<asrwt>0</asrwt>
<pdfrwt beam="1">  1       21 0.11752740E+00 0.12692232E+03</pdfrwt>
<pdfrwt beam="2">  1       21 0.21098942E-01 0.12692232E+03</pdfrwt>
<totfact> 0.12219555E+04</totfact>
</mgrwt>
</event>
<event>
 6    1  0.4187588E-002  0.1448392E+03  0.7546771E-02  0.1206962E+00
         21   -1    0    0  504  502  0.00000000000E+00  0.00000000000E+00  0.49718695050E+02  0.49718695050E+02  0.00000000000E+00 0.  1.
         21   -1    0    0  502  503 -0.00000000000E+00 -0.00000000000E+00 -0.30065069126E+03  0.30065069126E+03  0.00000000000E+00 0.  1.
         25    2    1    2    0    0 -0.49692739457E+02  0.53697936715E+02 -0.23411786028E+03  0.27529907307E+03  0.12500228147E+03 0.  0.
          5    1    3    3  501    0 -0.91605935034E+02  0.36723864641E+02 -0.14555445181E+03  0.17585902880E+03  0.10000000000E+00 0. -1.
         -5    1    3    3    0  501  0.41913195577E+02  0.16974072075E+02 -0.88563408469E+02  0.99440044278E+02  0.10000000000E+00 0. -1.
         21    1    1    2  504  503  0.49692739457E+02 -0.53697936715E+02 -0.16814135930E+02  0.75070313235E+02  0.00000000000E+00 0.  1.
<mgrwt>
<rscale>  1 0.14483925E+03</rscale>
<asrwt>0</asrwt>
<pdfrwt beam="1">  1       21 0.76490301E-02 0.14483925E+03</pdfrwt>
<pdfrwt beam="2">  1       21 0.46253952E-01 0.14483925E+03</pdfrwt>
<totfact> 0.58450622E+05</totfact>
</mgrwt>
</event>
<event>
 6    1  0.4187588E-002  0.1553594E+03  0.7546771E-02  0.1194038E+00
         21   -1    0    0  503  502  0.00000000000E+00  0.00000000000E+00  0.11685685465E+03  0.11685685465E+03  0.00000000000E+00 0.  1.
         21   -1    0    0  504  503 -0.00000000000E+00 -0.00000000000E+00 -0.26870833868E+03  0.26870833868E+03  0.00000000000E+00 0.  1.
         25    2    1    2    0    0 -0.58218403168E+02  0.71567939369E+02 -0.22108951648E+03  0.27021677526E+03  0.12500071567E+03 0.  0.
          5    1    3    3  501    0  0.38382116269E+02  0.23214473491E+02 -0.44362214415E+02  0.63088150207E+02  0.10000000000E+00 0.  1.
         -5    1    3    3    0  501 -0.96600519437E+02  0.48353465878E+02 -0.17672730207E+03  0.20712862505E+03  0.10000000000E+00 0.  1.
         21    1    1    2  504  502  0.58218403168E+02 -0.71567939369E+02  0.69238032457E+02  0.11534841807E+03  0.00000000000E+00 0.  1.
<mgrwt>
<rscale>  1 0.15535936E+03</rscale>
<asrwt>0</asrwt>
<pdfrwt beam="1">  1       21 0.17977978E-01 0.15535936E+03</pdfrwt>
<pdfrwt beam="2">  1       21 0.41339744E-01 0.15535936E+03</pdfrwt>
<totfact> 0.16047039E+05</totfact>
</mgrwt>
</event>
<event>
 6    1  0.4187588E-002  0.1599710E+03  0.7546771E-02  0.1188729E+00
         21   -1    0    0  503  502  0.00000000000E+00  0.00000000000E+00  0.24208527595E+03  0.24208527595E+03  0.00000000000E+00 0. -1.
         21   -1    0    0  504  503 -0.00000000000E+00 -0.00000000000E+00 -0.11413565879E+03  0.11413565879E+03  0.00000000000E+00 0. -1.
         25    2    1    2    0    0 -0.98098252826E+02  0.18517453616E+02 -0.36276374519E+02  0.16403264259E+03  0.12499827675E+03 0.  0.
          5    1    3    3  501    0 -0.10224590193E+02  0.21601489000E+02  0.40682082710E+02  0.47182713203E+02  0.10000000000E+00 0.  1.
         -5    1    3    3    0  501 -0.87873662632E+02 -0.30840353842E+01 -0.76958457229E+02  0.11684992939E+03  0.10000000000E+00 0.  1.
         21    1    1    2  504  502  0.98098252826E+02 -0.18517453616E+02  0.16422599168E+03  0.19218829215E+03  0.00000000000E+00 0. -1.
<mgrwt>
<rscale>  1 0.15997104E+03</rscale>
<asrwt>0</asrwt>
<pdfrwt beam="1">  1       21 0.37243888E-01 0.15997104E+03</pdfrwt>
<pdfrwt beam="2">  1       21 0.17559332E-01 0.15997104E+03</pdfrwt>
<totfact> 0.20631685E+05</totfact>
</mgrwt>
</event>
<event>
 6    1  0.4187588E-002  0.1265239E+03  0.7546771E-02  0.1232707E+00
         21   -1    0    0  504  502  0.00000000000E+00  0.00000000000E+00  0.22055552582E+03  0.22055552582E+03  0.00000000000E+00 0.  1.
         21   -1    0    0  502  503 -0.00000000000E+00 -0.00000000000E+00 -0.10477996377E+03  0.10477996377E+03  0.00000000000E+00 0. -1.
         25    2    1    2    0    0 -0.15688542588E+02  0.11776442385E+02 -0.65863314049E+02  0.14264039859E+03  0.12499396869E+03 0.  0.
          5    1    3    3  501    0  0.30052479629E+02  0.42807287866E+02 -0.69805637657E+02  0.87226443669E+02  0.10000000000E+00 0. -1.
         -5    1    3    3    0  501 -0.45741022217E+02 -0.31030845481E+02  0.39423236084E+01  0.55413954923E+02  0.10000000000E+00 0. -1.
         21    1    1    2  504  503  0.15688542588E+02 -0.11776442385E+02  0.18163887610E+03  0.18269509100E+03  0.00000000000E+00 0.  1.
<mgrwt>
<rscale>  1 0.12652394E+03</rscale>
<asrwt>0</asrwt>
<pdfrwt beam="1">  1       21 0.33931619E-01 0.12652394E+03</pdfrwt>
<pdfrwt beam="2">  1       21 0.16119994E-01 0.12652394E+03</pdfrwt>
<totfact> 0.29187267E+05</totfact>
</mgrwt>
</event>
<event>
 6    1  0.4187588E-002  0.1277722E+03  0.7546771E-02  0.1230799E+00
         21   -1    0    0  504  502  0.00000000000E+00  0.00000000000E+00  0.21065414984E+03  0.21065414984E+03  0.00000000000E+00 0. -1.
         21   -1    0    0  502  503 -0.00000000000E+00 -0.00000000000E+00 -0.53677474782E+02  0.53677474782E+02  0.00000000000E+00 0. -1.
         25    2    1    2    0    0  0.23473559968E+02  0.12246309101E+02  0.25597250119E+02  0.13031097919E+03  0.12499900792E+03 0.  0.
          5    1    3    3  501    0  0.21525308485E+02  0.61352641785E+02  0.43251790998E+02  0.78091055723E+02  0.10000000000E+00 0.  1.
         -5    1    3    3    0  501  0.19482514834E+01 -0.49106332684E+02 -0.17654540879E+02  0.52219923469E+02  0.10000000000E+00 0.  1.
         21    1    1    2  504  503 -0.23473559968E+02 -0.12246309101E+02  0.13137942494E+03  0.13402064543E+03  0.00000000000E+00 0. -1.
<mgrwt>
<rscale>  1 0.12777219E+03</rscale>
<asrwt>0</asrwt>
<pdfrwt beam="1">  1       21 0.32408330E-01 0.12777219E+03</pdfrwt>
<pdfrwt beam="2">  1       21 0.82580732E-02 0.12777219E+03</pdfrwt>
<totfact> 0.10410525E+06</totfact>
</mgrwt>
</event>
<event>
 6    1  0.4187588E-002  0.1281598E+03  0.7546771E-02  0.1230212E+00
         21   -1    0    0  503  502  0.00000000000E+00  0.00000000000E+00  0.96910390468E+03  0.96910390468E+03  0.00000000000E+00 0. -1.
         21   -1    0    0  504  503 -0.00000000000E+00 -0.00000000000E+00 -0.72543760450E+01  0.72543760450E+01  0.00000000000E+00 0. -1.
         25    2    1    2    0    0 -0.19017684029E+02 -0.20918296269E+02  0.60687735640E+03  0.62026209922E+03  0.12500279432E+03 0.  0.
          5    1    3    3  501    0  0.12386022014E+02 -0.28808425901E+02  0.57128430038E+03  0.57214430068E+03  0.10000000000E+00 0. -1.
         -5    1    3    3    0  501 -0.31403706042E+02  0.78901296326E+01  0.35593056025E+02  0.48117798537E+02  0.10000000000E+00 0. -1.
         21    1    1    2  504  502  0.19017684029E+02  0.20918296269E+02  0.35497217223E+03  0.35609618150E+03  0.00000000000E+00 0. -1.
<mgrwt>
<rscale>  1 0.12815985E+03</rscale>
<asrwt>0</asrwt>
<pdfrwt beam="1">  1       21 0.14909281E+00 0.12815985E+03</pdfrwt>
<pdfrwt beam="2">  1       21 0.11160586E-02 0.12815985E+03</pdfrwt>
<totfact> 0.96778236E+05</totfact>
</mgrwt>
</event>
<event>
 6    1  0.4187588E-002  0.1291523E+03  0.7546771E-02  0.1228719E+00
         21   -1    0    0  504  502  0.00000000000E+00  0.00000000000E+00  0.78756369741E+02  0.78756369741E+02  0.00000000000E+00 0. -1.
         21   -1    0    0  502  503 -0.00000000000E+00 -0.00000000000E+00 -0.21943492188E+03  0.21943492188E+03  0.00000000000E+00 0. -1.
         25    2    1    2    0    0 -0.87700489362E+01  0.31302729612E+02 -0.19558702100E+03  0.23438130343E+03  0.12499415175E+03 0.  0.
          5    1    3    3  501    0  0.26425556974E+01  0.75391834971E+02 -0.15890755760E+03  0.17590489971E+03  0.10000000000E+00 0. -1.
         -5    1    3    3    0  501 -0.11412604634E+02 -0.44089105359E+02 -0.36679463407E+02  0.58476403717E+02  0.10000000000E+00 0. -1.
         21    1    1    2  504  503  0.87700489362E+01 -0.31302729612E+02  0.54908468867E+02  0.63809988190E+02  0.00000000000E+00 0. -1.
<mgrwt>
<rscale>  1 0.12915228E+03</rscale>
<asrwt>0</asrwt>
<pdfrwt beam="1">  1       21 0.12116365E-01 0.12915228E+03</pdfrwt>
<pdfrwt beam="2">  1       21 0.33759218E-01 0.12915228E+03</pdfrwt>
<totfact> 0.49160260E+05</totfact>
</mgrwt>
</event>
<event>
 6    1  0.4187588E-002  0.1313264E+03  0.7546771E-02  0.1225501E+00
         21   -1    0    0  503  502  0.00000000000E+00  0.00000000000E+00  0.48201044197E+03  0.48201044197E+03  0.00000000000E+00 0. -1.
         21   -1    0    0  504  503 -0.00000000000E+00 -0.00000000000E+00 -0.34548769449E+02  0.34548769449E+02  0.00000000000E+00 0. -1.
         25    2    1    2    0    0  0.29473941732E+02  0.27541556746E+02  0.95710871755E+02  0.16250289326E+03  0.12497747300E+03 0.  0.
          5    1    3    3  501    0  0.34506421994E+02  0.41215817301E+02  0.12151246913E+03  0.13287109132E+03  0.10000000000E+00 0. -1.
         -5    1    3    3    0  501 -0.50324802620E+01 -0.13674260555E+02 -0.25801597373E+02  0.29631801941E+02  0.10000000000E+00 0. -1.
         21    1    1    2  504  502 -0.29473941732E+02 -0.27541556746E+02  0.35175080077E+03  0.35405631816E+03  0.00000000000E+00 0. -1.
<mgrwt>
<rscale>  1 0.13132638E+03</rscale>
<asrwt>0</asrwt>
<pdfrwt beam="1">  1       21 0.74155448E-01 0.13132638E+03</pdfrwt>
<pdfrwt beam="2">  1       21 0.53151956E-02 0.13132638E+03</pdfrwt>
<totfact> 0.40005096E+05</totfact>
</mgrwt>
</event>
<event>
 6    1  0.4187588E-002  0.1982046E+03  0.7546771E-02  0.1151263E+00
         21   -1    0    0  503  502  0.00000000000E+00  0.00000000000E+00  0.21777495800E+03  0.21777495800E+03  0.00000000000E+00 0.  1.
         21   -1    0    0  504  503 -0.00000000000E+00 -0.00000000000E+00 -0.13753751687E+04  0.13753751687E+04  0.00000000000E+00 0. -1.
         25    2    1    2    0    0  0.15016712035E+03  0.33308913885E+02 -0.13399841225E+04  0.13545635825E+04  0.12500161080E+03 0.  0.
          5    1    3    3  501    0  0.28263109062E+02 -0.42502031992E+02 -0.47673911594E+03  0.47946368030E+03  0.10000000000E+00 0.  1.
         -5    1    3    3    0  501  0.12190401129E+03  0.75810945877E+02 -0.86324500657E+03  0.87509990221E+03  0.10000000000E+00 0.  1.
         21    1    1    2  504  502 -0.15016712035E+03 -0.33308913885E+02  0.18238391181E+03  0.23858654419E+03  0.00000000000E+00 0.  1.
<mgrwt>
<rscale>  1 0.19820457E+03</rscale>
<asrwt>0</asrwt>
<pdfrwt beam="1">  1       21 0.33503839E-01 0.19820457E+03</pdfrwt>
<pdfrwt beam="2">  1       21 0.21159619E+00 0.19820457E+03</pdfrwt>
<totfact> 0.96685136E+02</totfact>
</mgrwt>
</event>
<event>
 6    1  0.4187588E-002  0.1278425E+03  0.7546771E-02  0.1230693E+00
         21   -1    0    0  504  502  0.00000000000E+00  0.00000000000E+00  0.59785899508E+02  0.59785899508E+02  0.00000000000E+00 0.  1.
         21   -1    0    0  502  503 -0.00000000000E+00 -0.00000000000E+00 -0.10521207246E+03  0.10521207246E+03  0.00000000000E+00 0.  1.
         25    2    1    2    0    0  0.23390552797E+02 -0.12616032577E+02 -0.51349983299E+02  0.13776979232E+03  0.12504964075E+03 0.  0.
          5    1    3    3  501    0 -0.33400622032E+02  0.34754470376E+02 -0.40631698037E+02  0.63042998411E+02  0.10000000000E+00 0.  1.
         -5    1    3    3    0  501  0.56791174829E+02 -0.47370502953E+02 -0.10718285262E+02  0.74726793906E+02  0.10000000000E+00 0.  1.
         21    1    1    2  504  503 -0.23390552797E+02  0.12616032577E+02  0.59238103455E+01  0.27228179652E+02  0.00000000000E+00 0.  1.
<mgrwt>
<rscale>  1 0.12784246E+03</rscale>
<asrwt>0</asrwt>
<pdfrwt beam="1">  1       21 0.91978308E-02 0.12784246E+03</pdfrwt>
<pdfrwt beam="2">  1       21 0.16186473E-01 0.12784246E+03</pdfrwt>
<totfact> 0.31745820E+06</totfact>
</mgrwt>
</event>
<event>
 6    1  0.4187588E-002  0.1313016E+03  0.7546771E-02  0.1225537E+00
         21   -1    0    0  504  502  0.00000000000E+00  0.00000000000E+00  0.25509269838E+02  0.25509269838E+02  0.00000000000E+00 0. -1.
         21   -1    0    0  502  503 -0.00000000000E+00 -0.00000000000E+00 -0.35718072383E+03  0.35718072383E+03  0.00000000000E+00 0. -1.
         25    2    1    2    0    0 -0.29838566691E+02 -0.26975230634E+02 -0.31074805134E+03  0.33734915216E+03  0.12498838316E+03 0.  0.
          5    1    3    3  501    0 -0.19019047761E+02 -0.75327649672E+02 -0.14698525738E+03  0.16625478901E+03  0.10000000000E+00 0. -1.
         -5    1    3    3    0  501 -0.10819518929E+02  0.48352419038E+02 -0.16376279396E+03  0.17109436315E+03  0.10000000000E+00 0. -1.
         21    1    1    2  504  503  0.29838566691E+02  0.26975230634E+02 -0.20923402659E+02  0.45340841509E+02  0.00000000000E+00 0. -1.
<mgrwt>
<rscale>  1 0.13130156E+03</rscale>
<asrwt>0</asrwt>
<pdfrwt beam="1">  1       21 0.39245034E-02 0.13130156E+03</pdfrwt>
<pdfrwt beam="2">  1       21 0.54950876E-01 0.13130156E+03</pdfrwt>
<totfact> 0.12648567E+06</totfact>
</mgrwt>
</event>
<event>
 6    1  0.4187588E-002  0.1280719E+03  0.7546771E-02  0.1230345E+00
         21   -1    0    0  504  502  0.00000000000E+00  0.00000000000E+00  0.48909868884E+03  0.48909868884E+03  0.00000000000E+00 0.  1.
         21   -1    0    0  502  503 -0.00000000000E+00 -0.00000000000E+00 -0.48467593391E+02  0.48467593391E+02  0.00000000000E+00 0.  1.
         25    2    1    2    0    0  0.27610447897E+02 -0.40931928799E+01  0.37470818020E+02  0.13344092995E+03  0.12499331391E+03 0.  0.
          5    1    3    3  501    0  0.97838964485E+01  0.21624041843E+02 -0.41882811065E+02  0.48140457809E+02  0.10000000000E+00 0. -1.
         -5    1    3    3    0  501  0.17826551449E+02 -0.25717234723E+02  0.79353629085E+02  0.85300472140E+02  0.10000000000E+00 0. -1.
         21    1    1    2  504  503 -0.27610447897E+02  0.40931928799E+01  0.40316027743E+03  0.40412535229E+03  0.00000000000E+00 0.  1.
<mgrwt>
<rscale>  1 0.12807193E+03</rscale>
<asrwt>0</asrwt>
<pdfrwt beam="1">  1       21 0.75245949E-01 0.12807193E+03</pdfrwt>
<pdfrwt beam="2">  1       21 0.74565532E-02 0.12807193E+03</pdfrwt>
<totfact> 0.21796606E+05</totfact>
</mgrwt>
</event>
<event>
 6    1  0.4187588E-002  0.1260914E+03  0.7546771E-02  0.1233373E+00
         21   -1    0    0  504  502  0.00000000000E+00  0.00000000000E+00  0.94120278501E+01  0.94120278501E+01  0.00000000000E+00 0.  1.
         21   -1    0    0  502  503 -0.00000000000E+00 -0.00000000000E+00 -0.54538674951E+03  0.54538674951E+03  0.00000000000E+00 0.  1.
         25    2    1    2    0    0  0.13441419147E+02  0.96149322720E+01 -0.48926311347E+03  0.50524988221E+03  0.12500372233E+03 0.  0.
          5    1    3    3  501    0  0.22308260977E+02 -0.51178936174E+02 -0.32726747266E+03  0.33199540761E+03  0.10000000000E+00 0.  1.
         -5    1    3    3    0  501 -0.88668418293E+01  0.60793868446E+02 -0.16199564081E+03  0.17325447459E+03  0.10000000000E+00 0.  1.
         21    1    1    2  504  503 -0.13441419147E+02 -0.96149322720E+01 -0.46711608190E+02  0.49548895154E+02  0.00000000000E+00 0.  1.
<mgrwt>
<rscale>  1 0.12609143E+03</rscale>
<asrwt>0</asrwt>
<pdfrwt beam="1">  1       21 0.14480040E-02 0.12609143E+03</pdfrwt>
<pdfrwt beam="2">  1       21 0.83905673E-01 0.12609143E+03</pdfrwt>
<totfact> 0.25504108E+06</totfact>
</mgrwt>
</event>
<event>
 6    1  0.4187588E-002  0.1260040E+03  0.7546771E-02  0.1233509E+00
         21   -1    0    0  504  502  0.00000000000E+00  0.00000000000E+00  0.20603207635E+03  0.20603207635E+03  0.00000000000E+00 0. -1.
         21   -1    0    0  502  503 -0.00000000000E+00 -0.00000000000E+00 -0.25539019431E+02  0.25539019431E+02  0.00000000000E+00 0. -1.
         25    2    1    2    0    0 -0.13363267571E+02  0.86261566905E+01  0.14156815113E+03  0.18952188901E+03  0.12499606994E+03 0.  0.
          5    1    3    3  501    0 -0.48379106887E+02 -0.39533667386E+02  0.48751087101E+02  0.79247254423E+02  0.10000000000E+00 0. -1.
         -5    1    3    3    0  501  0.35015839316E+02  0.48159824077E+02  0.92817064032E+02  0.11027463459E+03  0.10000000000E+00 0. -1.
         21    1    1    2  504  503  0.13363267571E+02 -0.86261566905E+01  0.38924905781E+02  0.42049206764E+02  0.00000000000E+00 0.  1.
<mgrwt>
<rscale>  1 0.12600399E+03</rscale>
<asrwt>0</asrwt>
<pdfrwt beam="1">  1       21 0.31697241E-01 0.12600399E+03</pdfrwt>
<pdfrwt beam="2">  1       21 0.39290801E-02 0.12600399E+03</pdfrwt>
<totfact> 0.38158646E+06</totfact>
</mgrwt>
</event>
<event>
 6    1  0.4187588E-002  0.1263874E+03  0.7546771E-02  0.1232917E+00
         21   -1    0    0  503  502  0.00000000000E+00  0.00000000000E+00  0.19276557589E+03  0.19276557589E+03  0.00000000000E+00 0.  1.
         21   -1    0    0  504  503 -0.00000000000E+00 -0.00000000000E+00 -0.74649910284E+02  0.74649910284E+02  0.00000000000E+00 0. -1.
         25    2    1    2    0    0  0.13764592269E+01 -0.18634097412E+02 -0.20071079811E+02  0.12797122909E+03  0.12499865200E+03 0.  0.
          5    1    3    3  501    0 -0.14036409561E+02 -0.57680306052E+02  0.26728376754E+02  0.65103414838E+02  0.10000000000E+00 0.  1.
         -5    1    3    3    0  501  0.15412868788E+02  0.39046208641E+02 -0.46799456565E+02  0.62867814247E+02  0.10000000000E+00 0.  1.
         21    1    1    2  504  502 -0.13764592269E+01  0.18634097412E+02  0.13818674542E+03  0.13944425709E+03  0.00000000000E+00 0.  1.
<mgrwt>
<rscale>  1 0.12638745E+03</rscale>
<asrwt>0</asrwt>
<pdfrwt beam="1">  1       21 0.29656242E-01 0.12638745E+03</pdfrwt>
<pdfrwt beam="2">  1       21 0.11484602E-01 0.12638745E+03</pdfrwt>
<totfact> 0.69501017E+05</totfact>
</mgrwt>
</event>
<event>
 6    1  0.4187588E-002  0.1263045E+03  0.7546771E-02  0.1233045E+00
         21   -1    0    0  503  502  0.00000000000E+00  0.00000000000E+00  0.26939548598E+04  0.26939548598E+04  0.00000000000E+00 0.  1.
         21   -1    0    0  504  503 -0.00000000000E+00 -0.00000000000E+00 -0.26225062688E+01  0.26225062688E+01  0.00000000000E+00 0.  1.
         25    2    1    2    0    0  0.10509757348E+02  0.14771096790E+02  0.15615838582E+04  0.15666834317E+04  0.12499675421E+03 0.  0.
          5    1    3    3  501    0  0.52013015920E+02  0.42758482183E+01  0.13392008545E+04  0.13402173612E+04  0.10000000000E+00 0.  1.
         -5    1    3    3    0  501 -0.41503258573E+02  0.10495248572E+02  0.22238300374E+03  0.22646607046E+03  0.10000000000E+00 0.  1.
         21    1    1    2  504  502 -0.10509757348E+02 -0.14771096790E+02  0.11297484953E+04  0.11298939344E+04  0.00000000000E+00 0.  1.
<mgrwt>
<rscale>  1 0.12630451E+03</rscale>
<asrwt>0</asrwt>
<pdfrwt beam="1">  1       21 0.41445238E+00 0.12630451E+03</pdfrwt>
<pdfrwt beam="2">  1       21 0.40346466E-03 0.12630451E+03</pdfrwt>
<totfact> 0.11957635E+05</totfact>
</mgrwt>
</event>
<event>
 6    1  0.4187588E-002  0.1261231E+03  0.7546771E-02  0.1233324E+00
         21   -1    0    0  504  502  0.00000000000E+00  0.00000000000E+00  0.29007167169E+01  0.29007167169E+01  0.00000000000E+00 0. -1.
         21   -1    0    0  502  503 -0.00000000000E+00 -0.00000000000E+00 -0.18387522321E+04  0.18387522321E+04  0.00000000000E+00 0. -1.
         25    2    1    2    0    0 -0.15877453137E+02  0.53935405595E+01 -0.17167686396E+04  0.17213952460E+04  0.12500338800E+03 0.  0.
          5    1    3    3  501    0 -0.93419395116E+01  0.65090056432E+02 -0.83660050206E+03  0.83918078942E+03  0.10000000000E+00 0.  1.
         -5    1    3    3    0  501 -0.65355136255E+01 -0.59696515873E+02 -0.88016813758E+03  0.88221445655E+03  0.10000000000E+00 0.  1.
         21    1    1    2  504  503  0.15877453137E+02 -0.53935405595E+01 -0.11908287573E+03  0.12025770283E+03  0.00000000000E+00 0. -1.
<mgrwt>
<rscale>  1 0.12612308E+03</rscale>
<asrwt>0</asrwt>
<pdfrwt beam="1">  1       21 0.44626532E-03 0.12612308E+03</pdfrwt>
<pdfrwt beam="2">  1       21 0.28288419E+00 0.12612308E+03</pdfrwt>
<totfact> 0.59554336E+05</totfact>
</mgrwt>
</event>
<event>
 6    1  0.4187588E-002  0.1284354E+03  0.7546771E-02  0.1229796E+00
         21   -1    0    0  503  502  0.00000000000E+00  0.00000000000E+00  0.23615620846E+02  0.23615620846E+02  0.00000000000E+00 0.  1.
         21   -1    0    0  504  503 -0.00000000000E+00 -0.00000000000E+00 -0.28499267093E+03  0.28499267093E+03  0.00000000000E+00 0.  1.
         25    2    1    2    0    0 -0.27556461989E+02 -0.10381893311E+02 -0.24004975267E+03  0.27224902994E+03  0.12501403217E+03 0.  0.
          5    1    3    3  501    0  0.14905889938E+02  0.50866512191E+02 -0.11592741467E+03  0.12747063618E+03  0.10000000000E+00 0.  1.
         -5    1    3    3    0  501 -0.42462351928E+02 -0.61248405502E+02 -0.12412233801E+03  0.14477839376E+03  0.10000000000E+00 0.  1.
         21    1    1    2  504  502  0.27556461989E+02  0.10381893311E+02 -0.21327297408E+02  0.36359261830E+02  0.00000000000E+00 0.  1.
<mgrwt>
<rscale>  1 0.12843539E+03</rscale>
<asrwt>0</asrwt>
<pdfrwt beam="1">  1       21 0.36331726E-02 0.12843539E+03</pdfrwt>
<pdfrwt beam="2">  1       21 0.43845025E-01 0.12843539E+03</pdfrwt>
<totfact> 0.22865082E+06</totfact>
</mgrwt>
</event>
<event>
 6    1  0.4187588E-002  0.1261133E+03  0.7546771E-02  0.1233340E+00
         21   -1    0    0  503  502  0.00000000000E+00  0.00000000000E+00  0.14506511548E+02  0.14506511548E+02  0.00000000000E+00 0.  1.
         21   -1    0    0  504  503 -0.00000000000E+00 -0.00000000000E+00 -0.35164304640E+03  0.35164304640E+03  0.00000000000E+00 0.  1.
         25    2    1    2    0    0 -0.15065779720E+02 -0.72162414644E+01 -0.29990283852E+03  0.32534024526E+03  0.12500204308E+03 0.  0.
          5    1    3    3  501    0  0.15507650676E+02  0.76369784088E+01  0.54315888606E+01  0.18119680633E+02  0.10000000000E+00 0.  1.
         -5    1    3    3    0  501 -0.30573430396E+02 -0.14853219873E+02 -0.30533442738E+03  0.30722056463E+03  0.10000000000E+00 0.  1.
         21    1    1    2  504  502  0.15065779720E+02  0.72162414644E+01 -0.37233696331E+02  0.40809312686E+02  0.00000000000E+00 0. -1.
<mgrwt>
<rscale>  1 0.12611329E+03</rscale>
<asrwt>0</asrwt>
<pdfrwt beam="1">  1       21 0.22317711E-02 0.12611329E+03</pdfrwt>
<pdfrwt beam="2">  1       21 0.54098928E-01 0.12611329E+03</pdfrwt>
<totfact> 0.32934611E+06</totfact>
</mgrwt>
</event>
<event>
 6    1  0.4187588E-002  0.1408163E+03  0.7546771E-02  0.1212235E+00
         21   -1    0    0  504  502  0.00000000000E+00  0.00000000000E+00  0.11001963262E+02  0.11001963262E+02  0.00000000000E+00 0. -1.
         21   -1    0    0  502  503 -0.00000000000E+00 -0.00000000000E+00 -0.99920285526E+03  0.99920285526E+03  0.00000000000E+00 0. -1.
         25    2    1    2    0    0  0.63340148375E+02 -0.13849023687E+02 -0.57766447317E+03  0.59458008269E+03  0.12500184523E+03 0.  0.
          5    1    3    3  501    0  0.28504553372E+02 -0.78187750510E+01 -0.54694892094E+03  0.54774699901E+03  0.10000000000E+00 0.  1.
         -5    1    3    3    0  501  0.34835595004E+02 -0.60302486355E+01 -0.30715552227E+02  0.46833083675E+02  0.10000000000E+00 0.  1.
         21    1    1    2  504  503 -0.63340148375E+02  0.13849023687E+02 -0.41053641882E+03  0.41562473583E+03  0.00000000000E+00 0. -1.
<mgrwt>
<rscale>  1 0.14081630E+03</rscale>
<asrwt>0</asrwt>
<pdfrwt beam="1">  1       21 0.16926090E-02 0.14081630E+03</pdfrwt>
<pdfrwt beam="2">  1       21 0.15372358E+00 0.14081630E+03</pdfrwt>
<totfact> 0.45904290E+05</totfact>
</mgrwt>
</event>
<event>
 6    1  0.4187588E-002  0.1292255E+03  0.7546771E-02  0.1228610E+00
         21   -1    0    0  503  502  0.00000000000E+00  0.00000000000E+00  0.13559602092E+04  0.13559602092E+04  0.00000000000E+00 0.  1.
         21   -1    0    0  504  503 -0.00000000000E+00 -0.00000000000E+00 -0.48475129388E+01  0.48475129388E+01  0.00000000000E+00 0.  1.
         25    2    1    2    0    0  0.17856270001E+02  0.27477572067E+02  0.10532692797E+04  0.10611669971E+04  0.12500142686E+03 0.  0.
          5    1    3    3  501    0  0.42764059415E+02  0.48275621976E+02  0.28471424319E+03  0.29192723533E+03  0.10000000000E+00 0. -1.
         -5    1    3    3    0  501 -0.24907789414E+02 -0.20798049908E+02  0.76855503655E+03  0.76923976175E+03  0.10000000000E+00 0. -1.
         21    1    1    2  504  502 -0.17856270001E+02 -0.27477572067E+02  0.29784341655E+03  0.29964072508E+03  0.00000000000E+00 0.  1.
<mgrwt>
<rscale>  1 0.12922546E+03</rscale>
<asrwt>0</asrwt>
<pdfrwt beam="1">  1       21 0.20860896E+00 0.12922546E+03</pdfrwt>
<pdfrwt beam="2">  1       21 0.74577230E-03 0.12922546E+03</pdfrwt>
<totfact> 0.72332766E+05</totfact>
</mgrwt>
</event>
<event>
 6    1  0.4187588E-002  0.1295128E+03  0.7546771E-02  0.1228180E+00
         21   -1    0    0  504  502  0.00000000000E+00  0.00000000000E+00  0.85913977807E+02  0.85913977807E+02  0.00000000000E+00 0. -1.
         21   -1    0    0  502  503 -0.00000000000E+00 -0.00000000000E+00 -0.13883701883E+04  0.13883701883E+04  0.00000000000E+00 0.  1.
         25    2    1    2    0    0 -0.14757775129E+02  0.30505666195E+02 -0.13818785111E+04  0.13879343576E+04  0.12500069553E+03 0.  0.
          5    1    3    3  501    0  0.49670547618E+02 -0.37330375620E+01 -0.35645064156E+03  0.35991411300E+03  0.10000000000E+00 0. -1.
         -5    1    3    3    0  501 -0.64428322747E+02  0.34238703757E+02 -0.10254278696E+04  0.10280202446E+04  0.10000000000E+00 0. -1.
         21    1    1    2  504  503  0.14757775129E+02 -0.30505666195E+02  0.79422300620E+02  0.86349808526E+02  0.00000000000E+00 0. -1.
<mgrwt>
<rscale>  1 0.12951279E+03</rscale>
<asrwt>0</asrwt>
<pdfrwt beam="1">  1       21 0.13217537E-01 0.12951279E+03</pdfrwt>
<pdfrwt beam="2">  1       21 0.21359539E+00 0.12951279E+03</pdfrwt>
<totfact> 0.58198534E+03</totfact>
</mgrwt>
</event>
<event>
 6    1  0.4187588E-002  0.1302968E+03  0.7546771E-02  0.1227016E+00
         21   -1    0    0  504  502  0.00000000000E+00  0.00000000000E+00  0.82693191464E+02  0.82693191464E+02  0.00000000000E+00 0. -1.
         21   -1    0    0  502  503 -0.00000000000E+00 -0.00000000000E+00 -0.11763000840E+03  0.11763000840E+03  0.00000000000E+00 0. -1.
         25    2    1    2    0    0 -0.22003690953E+02  0.29490331563E+02 -0.71352950444E+02  0.14855470702E+03  0.12499366131E+03 0.  0.
          5    1    3    3  501    0  0.40402988757E+02 -0.24426342957E+02 -0.32990117059E+02  0.57596923132E+02  0.10000000000E+00 0. -1.
         -5    1    3    3    0  501 -0.62406679710E+02  0.53916674520E+02 -0.38362833385E+02  0.90957783884E+02  0.10000000000E+00 0. -1.
         21    1    1    2  504  503  0.22003690953E+02 -0.29490331563E+02  0.36416133513E+02  0.51768492844E+02  0.00000000000E+00 0. -1.
<mgrwt>
<rscale>  1 0.13029681E+03</rscale>
<asrwt>0</asrwt>
<pdfrwt beam="1">  1       21 0.12722029E-01 0.13029681E+03</pdfrwt>
<pdfrwt beam="2">  1       21 0.18096924E-01 0.13029681E+03</pdfrwt>
<totfact> 0.14650442E+06</totfact>
</mgrwt>
</event>
<event>
 6    1  0.4187588E-002  0.1260856E+03  0.7546771E-02  0.1233382E+00
         21   -1    0    0  503  502  0.00000000000E+00  0.00000000000E+00  0.87074433329E+02  0.87074433329E+02  0.00000000000E+00 0. -1.
         21   -1    0    0  504  503 -0.00000000000E+00 -0.00000000000E+00 -0.59349432210E+02  0.59349432210E+02  0.00000000000E+00 0. -1.
         25    2    1    2    0    0 -0.12377085574E+01 -0.16379783985E+02  0.18080448007E+02  0.12737533146E+03  0.12501097239E+03 0.  0.
          5    1    3    3  501    0  0.61722956553E+01  0.12360569123E+02 -0.50655051897E+02  0.52505477671E+02  0.10000000000E+00 0.  1.
         -5    1    3    3    0  501 -0.74100042127E+01 -0.28740353108E+02  0.68735499904E+02  0.74869853788E+02  0.10000000000E+00 0.  1.
         21    1    1    2  504  502  0.12377085574E+01  0.16379783985E+02  0.96445531117E+01  0.19048534080E+02  0.00000000000E+00 0. -1.
<mgrwt>
<rscale>  1 0.12608558E+03</rscale>
<asrwt>0</asrwt>
<pdfrwt beam="1">  1       21 0.13396067E-01 0.12608558E+03</pdfrwt>
<pdfrwt beam="2">  1       21 0.91306819E-02 0.12608558E+03</pdfrwt>
<totfact> 0.45166465E+06</totfact>
</mgrwt>
</event>
<event>
 6    1  0.4187588E-002  0.1265780E+03  0.7546771E-02  0.1232624E+00
         21   -1    0    0  504  502  0.00000000000E+00  0.00000000000E+00  0.17727456059E+02  0.17727456059E+02  0.00000000000E+00 0. -1.
         21   -1    0    0  502  503 -0.00000000000E+00 -0.00000000000E+00 -0.30322991917E+03  0.30322991917E+03  0.00000000000E+00 0. -1.
         25    2    1    2    0    0 -0.25374153569E+01 -0.19776485862E+02 -0.25091729985E+03  0.28103643602E+03  0.12499775652E+03 0.  0.
          5    1    3    3  501    0  0.55126163376E+02  0.16489949165E+02 -0.98213238750E+02  0.11382733669E+03  0.10000000000E+00 0. -1.
         -5    1    3    3    0  501 -0.57663578733E+02 -0.36266435027E+02 -0.15270406110E+03  0.16720909933E+03  0.10000000000E+00 0. -1.
         21    1    1    2  504  503  0.25374153569E+01  0.19776485862E+02 -0.34585163267E+02  0.39920939217E+02  0.00000000000E+00 0.  1.
<mgrwt>
<rscale>  1 0.12657799E+03</rscale>
<asrwt>0</asrwt>
<pdfrwt beam="1">  1       21 0.27273011E-02 0.12657799E+03</pdfrwt>
<pdfrwt beam="2">  1       21 0.46650754E-01 0.12657799E+03</pdfrwt>
<totfact> 0.32274146E+06</totfact>
</mgrwt>
</event>
<event>
 6    1  0.4187588E-002  0.1867675E+03  0.7546771E-02  0.1161410E+00
         21   -1    0    0  503  502  0.00000000000E+00  0.00000000000E+00  0.89495284107E+02  0.89495284107E+02  0.00000000000E+00 0. -1.
         21   -1    0    0  504  503 -0.00000000000E+00 -0.00000000000E+00 -0.44985422387E+03  0.44985422387E+03  0.00000000000E+00 0. -1.
         25    2    1    2    0    0  0.12954071069E+03  0.49756431503E+02 -0.35422457967E+03  0.40044620141E+03  0.12500243667E+03 0.  0.
          5    1    3    3  501    0  0.13304744776E+03  0.45470131596E+01 -0.20456555236E+03  0.24406837955E+03  0.10000000000E+00 0. -1.
         -5    1    3    3    0  501 -0.35067370697E+01  0.45209418344E+02 -0.14965902731E+03  0.15637782186E+03  0.10000000000E+00 0. -1.
         21    1    1    2  504  502 -0.12954071069E+03 -0.49756431503E+02 -0.61343600946E+01  0.13890330657E+03  0.00000000000E+00 0. -1.
<mgrwt>
<rscale>  1 0.18676752E+03</rscale>
<asrwt>0</asrwt>
<pdfrwt beam="1">  1       21 0.13768505E-01 0.18676752E+03</pdfrwt>
<pdfrwt beam="2">  1       21 0.69208344E-01 0.18676752E+03</pdfrwt>
<totfact> 0.87273235E+04</totfact>
</mgrwt>
</event>
<event>
 6    1  0.4187588E-002  0.1304580E+03  0.7546771E-02  0.1226778E+00
         21   -1    0    0  503  502  0.00000000000E+00  0.00000000000E+00  0.40618533386E+03  0.40618533386E+03  0.00000000000E+00 0. -1.
         21   -1    0    0  504  503 -0.00000000000E+00 -0.00000000000E+00 -0.73602485932E+02  0.73602485932E+02  0.00000000000E+00 0. -1.
         25    2    1    2    0    0 -0.54026942696E+01  0.37248214870E+02 -0.13963883821E+02  0.13120317311E+03  0.12491062391E+03 0.  0.
          5    1    3    3  501    0 -0.37886726125E+02  0.71397429730E+02 -0.21096621977E+02  0.83534869649E+02  0.10000000000E+00 0. -1.
         -5    1    3    3    0  501  0.32484031856E+02 -0.34149214860E+02  0.71327381559E+01  0.47668303460E+02  0.10000000000E+00 0. -1.
         21    1    1    2  504  502  0.54026942696E+01 -0.37248214870E+02  0.34654673175E+03  0.34858464669E+03  0.00000000000E+00 0. -1.
<mgrwt>
<rscale>  1 0.13045797E+03</rscale>
<asrwt>0</asrwt>
<pdfrwt beam="1">  1       21 0.62490050E-01 0.13045797E+03</pdfrwt>
<pdfrwt beam="2">  1       21 0.11323460E-01 0.13045797E+03</pdfrwt>
<totfact> 0.15764859E+05</totfact>
</mgrwt>
</event>
<event>
 6    1  0.4187588E-002  0.1259351E+03  0.7546771E-02  0.1233615E+00
         21   -1    0    0  503  502  0.00000000000E+00  0.00000000000E+00  0.18703806754E+03  0.18703806754E+03  0.00000000000E+00 0. -1.
         21   -1    0    0  504  503 -0.00000000000E+00 -0.00000000000E+00 -0.48266369420E+02  0.48266369420E+02  0.00000000000E+00 0. -1.
         25    2    1    2    0    0  0.15333059858E+02  0.76928111676E+00  0.35423632300E+02  0.13082229865E+03  0.12499578225E+03 0.  0.
          5    1    3    3  501    0  0.51079394006E+02  0.41912668829E+02  0.47336360185E+00  0.66075792643E+02  0.10000000000E+00 0.  1.
         -5    1    3    3    0  501 -0.35746334148E+02 -0.41143387712E+02  0.34950268698E+02  0.64746506002E+02  0.10000000000E+00 0.  1.
         21    1    1    2  504  502 -0.15333059858E+02 -0.76928111676E+00  0.10334806582E+03  0.10448213832E+03  0.00000000000E+00 0. -1.
<mgrwt>
<rscale>  1 0.12593506E+03</rscale>
<asrwt>0</asrwt>
<pdfrwt beam="1">  1       21 0.28775087E-01 0.12593506E+03</pdfrwt>
<pdfrwt beam="2">  1       21 0.74255954E-02 0.12593506E+03</pdfrwt>
<totfact> 0.15724232E+06</totfact>
</mgrwt>
</event>
<event>
 6    1  0.4187588E-002  0.1513102E+03  0.7546771E-02  0.1198872E+00
         21   -1    0    0  504  502  0.00000000000E+00  0.00000000000E+00  0.65320362505E+02  0.65320362505E+02  0.00000000000E+00 0.  1.
         21   -1    0    0  502  503 -0.00000000000E+00 -0.00000000000E+00 -0.53715820145E+03  0.53715820145E+03  0.00000000000E+00 0. -1.
         25    2    1    2    0    0  0.84959218957E+02 -0.72460950330E+01 -0.49209954195E+03  0.51483661402E+03  0.12499682064E+03 0.  0.
          5    1    3    3  501    0 -0.26067314479E+02 -0.13531095558E+02 -0.42314615796E+02  0.51508563765E+02  0.10000000000E+00 0. -1.
         -5    1    3    3    0  501  0.11102653344E+03  0.62850005246E+01 -0.44978492616E+03  0.46332805026E+03  0.10000000000E+00 0. -1.
         21    1    1    2  504  503 -0.84959218957E+02  0.72460950330E+01  0.20261703008E+02  0.87641949932E+02  0.00000000000E+00 0.  1.
<mgrwt>
<rscale>  1 0.15131021E+03</rscale>
<asrwt>0</asrwt>
<pdfrwt beam="1">  1       21 0.10049286E-01 0.15131021E+03</pdfrwt>
<pdfrwt beam="2">  1       21 0.82639727E-01 0.15131021E+03</pdfrwt>
<totfact> 0.10450207E+05</totfact>
</mgrwt>
</event>
<event>
 6    1  0.4187588E-002  0.1498733E+03  0.7546771E-02  0.1200629E+00
         21   -1    0    0  504  502  0.00000000000E+00  0.00000000000E+00  0.17098377382E+03  0.17098377382E+03  0.00000000000E+00 0.  1.
         21   -1    0    0  502  503 -0.00000000000E+00 -0.00000000000E+00 -0.84574007026E+02  0.84574007026E+02  0.00000000000E+00 0.  1.
         25    2    1    2    0    0 -0.81616512195E+02 -0.13268520996E+02  0.23601134521E+02  0.15172024909E+03  0.12499884688E+03 0.  0.
          5    1    3    3  501    0 -0.95336178367E+02 -0.36318273086E+02  0.50411363810E+02  0.11379507664E+03  0.10000000000E+00 0.  1.
         -5    1    3    3    0  501  0.13719666173E+02  0.23049752090E+02 -0.26810229290E+02  0.37925172457E+02  0.10000000000E+00 0.  1.
         21    1    1    2  504  503  0.81616512195E+02  0.13268520996E+02  0.62808632274E+02  0.10383753175E+03  0.00000000000E+00 0.  1.
<mgrwt>
<rscale>  1 0.14987335E+03</rscale>
<asrwt>0</asrwt>
<pdfrwt beam="1">  1       21 0.26305196E-01 0.14987335E+03</pdfrwt>
<pdfrwt beam="2">  1       21 0.13011386E-01 0.14987335E+03</pdfrwt>
<totfact> 0.70027623E+05</totfact>
</mgrwt>
</event>
<event>
 6    1  0.4187588E-002  0.1686168E+03  0.7546771E-02  0.1179298E+00
         21   -1    0    0  504  502  0.00000000000E+00  0.00000000000E+00  0.68944347460E+02  0.68944347460E+02  0.00000000000E+00 0.  1.
         21   -1    0    0  502  503 -0.00000000000E+00 -0.00000000000E+00 -0.23544204762E+04  0.23544204762E+04  0.00000000000E+00 0.  1.
         25    2    1    2    0    0  0.11237369673E+03 -0.13365487649E+02 -0.23027266280E+04  0.23088918413E+04  0.12500050848E+03 0.  0.
          5    1    3    3  501    0  0.87876551896E+02  0.30457050570E+02 -0.81013417090E+03  0.81545527478E+03  0.10000000000E+00 0.  1.
         -5    1    3    3    0  501  0.24497144837E+02 -0.43822538220E+02 -0.14925924571E+04  0.14934365665E+04  0.10000000000E+00 0.  1.
         21    1    1    2  504  503 -0.11237369673E+03  0.13365487649E+02  0.17250499295E+02  0.11447298242E+03  0.00000000000E+00 0.  1.
<mgrwt>
<rscale>  1 0.16861676E+03</rscale>
<asrwt>0</asrwt>
<pdfrwt beam="1">  1       21 0.10606822E-01 0.16861676E+03</pdfrwt>
<pdfrwt beam="2">  1       21 0.36221855E+00 0.16861676E+03</pdfrwt>
<totfact> 0.11236339E+03</totfact>
</mgrwt>
</event>
<event>
 6    1  0.4187588E-002  0.1281489E+03  0.7546771E-02  0.1230229E+00
         21   -1    0    0  503  502  0.00000000000E+00  0.00000000000E+00  0.20885897326E+02  0.20885897326E+02  0.00000000000E+00 0.  1.
         21   -1    0    0  504  503 -0.00000000000E+00 -0.00000000000E+00 -0.31413921206E+03  0.31413921206E+03  0.00000000000E+00 0.  1.
         25    2    1    2    0    0  0.27706961601E+02 -0.55187800120E+01 -0.26829332202E+03  0.29732717986E+03  0.12499605031E+03 0.  0.
          5    1    3    3  501    0  0.75474722765E+02 -0.52378772312E+01 -0.20129692423E+03  0.21504495074E+03  0.10000000000E+00 0. -1.
         -5    1    3    3    0  501 -0.47767761163E+02 -0.28090278086E+00 -0.66996397788E+02  0.82282229124E+02  0.10000000000E+00 0. -1.
         21    1    1    2  504  502 -0.27706961601E+02  0.55187800120E+01 -0.24959992717E+02  0.37697929524E+02  0.00000000000E+00 0.  1.
<mgrwt>
<rscale>  1 0.12814892E+03</rscale>
<asrwt>0</asrwt>
<pdfrwt beam="1">  1       21 0.32132152E-02 0.12814892E+03</pdfrwt>
<pdfrwt beam="2">  1       21 0.48329106E-01 0.12814892E+03</pdfrwt>
<totfact> 0.22957650E+06</totfact>
</mgrwt>
</event>
<event>
 6    1  0.4187588E-002  0.1304204E+03  0.7546771E-02  0.1226833E+00
         21   -1    0    0  503  502  0.00000000000E+00  0.00000000000E+00  0.26255944227E+04  0.26255944227E+04  0.00000000000E+00 0.  1.
         21   -1    0    0  504  503 -0.00000000000E+00 -0.00000000000E+00 -0.34923449247E+01  0.34923449247E+01  0.00000000000E+00 0.  1.
         25    2    1    2    0    0 -0.34805445465E+02 -0.13176353595E+02  0.13142576702E+04  0.13207129564E+04  0.12499781734E+03 0.  0.
          5    1    3    3  501    0 -0.81764861515E+02 -0.77341429284E+01  0.75208220053E+03  0.75655333976E+03  0.10000000000E+00 0. -1.
         -5    1    3    3    0  501  0.46959416050E+02 -0.54422106669E+01  0.56217546964E+03  0.56415961667E+03  0.10000000000E+00 0. -1.
         21    1    1    2  504  502  0.34805445465E+02  0.13176353595E+02  0.13078444076E+04  0.13083738112E+04  0.00000000000E+00 0.  1.
<mgrwt>
<rscale>  1 0.13042043E+03</rscale>
<asrwt>0</asrwt>
<pdfrwt beam="1">  1       21 0.40393602E+00 0.13042043E+03</pdfrwt>
<pdfrwt beam="2">  1       21 0.53728594E-03 0.13042043E+03</pdfrwt>
<totfact> 0.88729979E+04</totfact>
</mgrwt>
</event>
<event>
 6    1  0.4187588E-002  0.1263171E+03  0.7546771E-02  0.1233025E+00
         21   -1    0    0  504  502  0.00000000000E+00  0.00000000000E+00  0.73995802582E+02  0.73995802582E+02  0.00000000000E+00 0.  1.
         21   -1    0    0  502  503 -0.00000000000E+00 -0.00000000000E+00 -0.71713458508E+02  0.71713458508E+02  0.00000000000E+00 0.  1.
         25    2    1    2    0    0  0.17295935905E+02  0.53701584027E+01 -0.44303152281E+01  0.12639481585E+03  0.12501213453E+03 0.  0.
          5    1    3    3  501    0  0.33952693841E+02 -0.46415937749E+02 -0.31567249282E+02  0.65602788991E+02  0.10000000000E+00 0.  1.
         -5    1    3    3    0  501 -0.16656757935E+02  0.51786096152E+02  0.27136934054E+02  0.60792026857E+02  0.10000000000E+00 0.  1.
         21    1    1    2  504  503 -0.17295935905E+02 -0.53701584027E+01  0.67126593022E+01  0.19314445242E+02  0.00000000000E+00 0.  1.
<mgrwt>
<rscale>  1 0.12631715E+03</rscale>
<asrwt>0</asrwt>
<pdfrwt beam="1">  1       21 0.11383970E-01 0.12631715E+03</pdfrwt>
<pdfrwt beam="2">  1       21 0.11032840E-01 0.12631715E+03</pdfrwt>
<totfact> 0.43306010E+06</totfact>
</mgrwt>
</event>
<event>
 6    1  0.4187588E-002  0.1323785E+03  0.7546771E-02  0.1223969E+00
         21   -1    0    0  503  502  0.00000000000E+00  0.00000000000E+00  0.76814395826E+02  0.76814395826E+02  0.00000000000E+00 0. -1.
         21   -1    0    0  504  503 -0.00000000000E+00 -0.00000000000E+00 -0.50218056022E+03  0.50218056022E+03  0.00000000000E+00 0. -1.
         25    2    1    2    0    0 -0.37427043895E+02 -0.22269680043E+02 -0.48635708448E+03  0.50405087959E+03  0.12500941294E+03 0.  0.
          5    1    3    3  501    0 -0.34613950449E+02  0.47893893567E+02 -0.16947760470E+03  0.17948431436E+03  0.10000000000E+00 0.  1.
         -5    1    3    3    0  501 -0.28130934464E+01 -0.70163573610E+02 -0.31687947978E+03  0.32456656523E+03  0.10000000000E+00 0.  1.
         21    1    1    2  504  502  0.37427043895E+02  0.22269680043E+02  0.60990920084E+02  0.74944076461E+02  0.00000000000E+00 0. -1.
<mgrwt>
<rscale>  1 0.13237853E+03</rscale>
<asrwt>0</asrwt>
<pdfrwt beam="1">  1       21 0.11817599E-01 0.13237853E+03</pdfrwt>
<pdfrwt beam="2">  1       21 0.77258548E-01 0.13237853E+03</pdfrwt>
<totfact> 0.92004400E+04</totfact>
</mgrwt>
</event>
<event>
 6    1  0.4187588E-002  0.1324750E+03  0.7546771E-02  0.1223829E+00
         21   -1    0    0  503  502  0.00000000000E+00  0.00000000000E+00  0.17818067719E+03  0.17818067719E+03  0.00000000000E+00 0. -1.
         21   -1    0    0  504  503 -0.00000000000E+00 -0.00000000000E+00 -0.57323827619E+02  0.57323827619E+02  0.00000000000E+00 0. -1.
         25    2    1    2    0    0  0.67600347156E+01  0.43338899396E+02  0.13526961686E+03  0.18933431821E+03  0.12500262611E+03 0.  0.
          5    1    3    3  501    0  0.30266744215E+02 -0.35333425851E+02  0.71793658536E+02  0.85550372260E+02  0.10000000000E+00 0.  1.
         -5    1    3    3    0  501 -0.23506709499E+02  0.78672325247E+02  0.63475958326E+02  0.10378394595E+03  0.10000000000E+00 0.  1.
         21    1    1    2  504  502 -0.67600347156E+01 -0.43338899396E+02 -0.14412767288E+02  0.46170186605E+02  0.00000000000E+00 0. -1.
<mgrwt>
<rscale>  1 0.13247496E+03</rscale>
<asrwt>0</asrwt>
<pdfrwt beam="1">  1       21 0.27412412E-01 0.13247496E+03</pdfrwt>
<pdfrwt beam="2">  1       21 0.88190505E-02 0.13247496E+03</pdfrwt>
<totfact> 0.12836809E+06</totfact>
</mgrwt>
</event>
<event>
 6    1  0.4187588E-002  0.1265569E+03  0.7546771E-02  0.1232656E+00
         21   -1    0    0  503  502  0.00000000000E+00  0.00000000000E+00  0.75609767315E+02  0.75609767315E+02  0.00000000000E+00 0.  1.
         21   -1    0    0  504  503 -0.00000000000E+00 -0.00000000000E+00 -0.14897793448E+03  0.14897793448E+03  0.00000000000E+00 0. -1.
         25    2    1    2    0    0  0.10353819330E+02  0.16959683676E+02 -0.11968586809E+03  0.17418768331E+03  0.12498723755E+03 0.  0.
          5    1    3    3  501    0 -0.22862524280E+02 -0.22519075335E+02 -0.11830010070E+03  0.12257539556E+03  0.10000000000E+00 0.  1.
         -5    1    3    3    0  501  0.33216343611E+02  0.39478759011E+02 -0.13857673922E+01  0.51612287754E+02  0.10000000000E+00 0.  1.
         21    1    1    2  504  502 -0.10353819330E+02 -0.16959683676E+02  0.46317700921E+02  0.50400018489E+02  0.00000000000E+00 0.  1.
<mgrwt>
<rscale>  1 0.12655687E+03</rscale>
<asrwt>0</asrwt>
<pdfrwt beam="1">  1       21 0.11632272E-01 0.12655687E+03</pdfrwt>
<pdfrwt beam="2">  1       21 0.22919682E-01 0.12655687E+03</pdfrwt>
<totfact> 0.11080965E+06</totfact>
</mgrwt>
</event>
<event>
 6    1  0.4187588E-002  0.1575704E+03  0.7546771E-02  0.1191467E+00
         21   -1    0    0  503  502  0.00000000000E+00  0.00000000000E+00  0.14774190147E+03  0.14774190147E+03  0.00000000000E+00 0.  1.
         21   -1    0    0  504  503 -0.00000000000E+00 -0.00000000000E+00 -0.13681130645E+03  0.13681130645E+03  0.00000000000E+00 0.  1.
         25    2    1    2    0    0  0.43013992228E+02 -0.85743180592E+02 -0.56394008288E+02  0.16735807681E+03  0.12500538051E+03 0.  0.
          5    1    3    3  501    0  0.12847823752E+02 -0.32087368463E+02  0.40076405466E+02  0.52922528900E+02  0.10000000000E+00 0.  1.
         -5    1    3    3    0  501  0.30166168477E+02 -0.53655812129E+02 -0.96470413755E+02  0.11443554791E+03  0.10000000000E+00 0.  1.
         21    1    1    2  504  502 -0.43013992228E+02  0.85743180592E+02  0.67324603312E+02  0.11719513111E+03  0.00000000000E+00 0.  1.
<mgrwt>
<rscale>  1 0.15757043E+03</rscale>
<asrwt>0</asrwt>
<pdfrwt beam="1">  1       21 0.22729523E-01 0.15757043E+03</pdfrwt>
<pdfrwt beam="2">  1       21 0.21047893E-01 0.15757043E+03</pdfrwt>
<totfact> 0.38340634E+05</totfact>
</mgrwt>
</event>
<event>
 6    1  0.4187588E-002  0.1381949E+03  0.7546771E-02  0.1215779E+00
         21   -1    0    0  503  502  0.00000000000E+00  0.00000000000E+00  0.91908922546E+03  0.91908922546E+03  0.00000000000E+00 0. -1.
         21   -1    0    0  504  503 -0.00000000000E+00 -0.00000000000E+00 -0.52692898069E+02  0.52692898069E+02  0.00000000000E+00 0. -1.
         25    2    1    2    0    0  0.32891644516E+01 -0.58842836642E+02  0.40809659287E+02  0.14409459518E+03  0.12499810416E+03 0.  0.
          5    1    3    3  501    0 -0.25876881024E+02 -0.38855537269E+02 -0.36384686247E+02  0.59188015183E+02  0.10000000000E+00 0. -1.
         -5    1    3    3    0  501  0.29166045476E+02 -0.19987299374E+02  0.77194345534E+02  0.84906580000E+02  0.10000000000E+00 0. -1.
         21    1    1    2  504  502 -0.32891644516E+01  0.58842836642E+02  0.82558666810E+03  0.82768752834E+03  0.00000000000E+00 0. -1.
<mgrwt>
<rscale>  1 0.13819488E+03</rscale>
<asrwt>0</asrwt>
<pdfrwt beam="1">  1       21 0.14139833E+00 0.13819488E+03</pdfrwt>
<pdfrwt beam="2">  1       21 0.81066004E-02 0.13819488E+03</pdfrwt>
<totfact> 0.42263015E+04</totfact>
</mgrwt>
</event>
<event>
 6    1  0.4187588E-002  0.1264945E+03  0.7546771E-02  0.1232752E+00
         21   -1    0    0  503  502  0.00000000000E+00  0.00000000000E+00  0.29836397876E+03  0.29836397876E+03  0.00000000000E+00 0.  1.
         21   -1    0    0  504  503 -0.00000000000E+00 -0.00000000000E+00 -0.17857891226E+02  0.17857891226E+02  0.00000000000E+00 0.  1.
         25    2    1    2    0    0  0.14287746886E+02 -0.13101703437E+02  0.24721905738E+03  0.27770147642E+03  0.12500021332E+03 0.  0.
          5    1    3    3  501    0  0.19481514730E+02 -0.27141171020E+02  0.25742486856E+03  0.25958379289E+03  0.10000000000E+00 0. -1.
         -5    1    3    3    0  501 -0.51937678439E+01  0.14039467583E+02 -0.10205811180E+02  0.18117683524E+02  0.10000000000E+00 0. -1.
         21    1    1    2  504  502 -0.14287746886E+02  0.13101703437E+02  0.33287030151E+02  0.38520393564E+02  0.00000000000E+00 0.  1.
<mgrwt>
<rscale>  1 0.12649446E+03</rscale>
<asrwt>0</asrwt>
<pdfrwt beam="1">  1       21 0.45902147E-01 0.12649446E+03</pdfrwt>
<pdfrwt beam="2">  1       21 0.27473681E-02 0.12649446E+03</pdfrwt>
<totfact> 0.32958760E+06</totfact>
</mgrwt>
</event>
<event>
 6    1  0.4187588E-002  0.1719836E+03  0.7546771E-02  0.1175795E+00
         21   -1    0    0  504  502  0.00000000000E+00  0.00000000000E+00  0.17249838492E+03  0.17249838492E+03  0.00000000000E+00 0.  1.
         21   -1    0    0  502  503 -0.00000000000E+00 -0.00000000000E+00 -0.16438946870E+03  0.16438946870E+03  0.00000000000E+00 0.  1.
         25    2    1    2    0    0 -0.11747148191E+03 -0.12622541144E+02 -0.79827474848E+02  0.18960687562E+03  0.12497785378E+03 0.  0.
          5    1    3    3  501    0 -0.11473376814E+03 -0.40604933016E+02 -0.97889592028E+02  0.15618892523E+03  0.10000000000E+00 0. -1.
         -5    1    3    3    0  501 -0.27377137773E+01  0.27982391871E+02  0.18062117181E+02  0.33417950395E+02  0.10000000000E+00 0. -1.
         21    1    1    2  504  503  0.11747148191E+03  0.12622541144E+02  0.87936391066E+02  0.14728097800E+03  0.00000000000E+00 0.  1.
<mgrwt>
<rscale>  1 0.17198355E+03</rscale>
<asrwt>0</asrwt>
<pdfrwt beam="1">  1       21 0.26538213E-01 0.17198355E+03</pdfrwt>
<pdfrwt beam="2">  1       21 0.25290688E-01 0.17198355E+03</pdfrwt>
<totfact> 0.20134813E+05</totfact>
</mgrwt>
</event>
<event>
 6    1  0.4187588E-002  0.1260653E+03  0.7546771E-02  0.1233414E+00
         21   -1    0    0  503  502  0.00000000000E+00  0.00000000000E+00  0.34874862288E+02  0.34874862288E+02  0.00000000000E+00 0.  1.
         21   -1    0    0  504  503 -0.00000000000E+00 -0.00000000000E+00 -0.16289915101E+03  0.16289915101E+03  0.00000000000E+00 0.  1.
         25    2    1    2    0    0  0.10743957055E+02  0.12359338769E+02 -0.13022728369E+03  0.18125011984E+03  0.12499709860E+03 0.  0.
          5    1    3    3  501    0 -0.12027629336E+02  0.41013352718E+02 -0.13745149064E+03  0.14394332652E+03  0.10000000000E+00 0. -1.
         -5    1    3    3    0  501  0.22771586391E+02 -0.28654013948E+02  0.72242069584E+01  0.37306793326E+02  0.10000000000E+00 0. -1.
         21    1    1    2  504  502 -0.10743957055E+02 -0.12359338769E+02  0.22029949654E+01  0.16523893453E+02  0.00000000000E+00 0.  1.
<mgrwt>
<rscale>  1 0.12606530E+03</rscale>
<asrwt>0</asrwt>
<pdfrwt beam="1">  1       21 0.53653634E-02 0.12606530E+03</pdfrwt>
<pdfrwt beam="2">  1       21 0.25061408E-01 0.12606530E+03</pdfrwt>
<totfact> 0.35538038E+06</totfact>
</mgrwt>
</event>
<event>
 6    1  0.4187588E-002  0.1263971E+03  0.7546771E-02  0.1232902E+00
         21   -1    0    0  504  502  0.00000000000E+00  0.00000000000E+00  0.60900681791E+02  0.60900681791E+02  0.00000000000E+00 0. -1.
         21   -1    0    0  502  503 -0.00000000000E+00 -0.00000000000E+00 -0.12780086281E+03  0.12780086281E+03  0.00000000000E+00 0. -1.
         25    2    1    2    0    0  0.17045339602E+02 -0.77996220396E+01 -0.92745909108E+02  0.15677382363E+03  0.12499940166E+03 0.  0.
          5    1    3    3  501    0  0.25622211015E+02  0.55974023274E+02 -0.52244303976E+02  0.80740734928E+02  0.10000000000E+00 0. -1.
         -5    1    3    3    0  501 -0.85768714124E+01 -0.63773645314E+02 -0.40501605132E+02  0.76033088705E+02  0.10000000000E+00 0. -1.
         21    1    1    2  504  503 -0.17045339602E+02  0.77996220396E+01  0.25845728086E+02  0.31927720971E+02  0.00000000000E+00 0. -1.
<mgrwt>
<rscale>  1 0.12639710E+03</rscale>
<asrwt>0</asrwt>
<pdfrwt beam="1">  1       21 0.93693357E-02 0.12639710E+03</pdfrwt>
<pdfrwt beam="2">  1       21 0.19661671E-01 0.12639710E+03</pdfrwt>
<totfact> 0.21531952E+06</totfact>
</mgrwt>
</event>
<event>
 6    1  0.4187588E-002  0.1262713E+03  0.7546771E-02  0.1233096E+00
         21   -1    0    0  504  502  0.00000000000E+00  0.00000000000E+00  0.79170581903E+02  0.79170581903E+02  0.00000000000E+00 0. -1.
         21   -1    0    0  502  503 -0.00000000000E+00 -0.00000000000E+00 -0.14558170977E+03  0.14558170977E+03  0.00000000000E+00 0.  1.
         25    2    1    2    0    0  0.14208814652E+02  0.10857011041E+02 -0.11635359894E+03  0.17170499655E+03  0.12499872300E+03 0.  0.
          5    1    3    3  501    0  0.52037239440E+02 -0.51683459697E+01 -0.44312976453E+01  0.52480782077E+02  0.10000000000E+00 0. -1.
         -5    1    3    3    0  501 -0.37828424788E+02  0.16025357011E+02 -0.11192230130E+03  0.11922421447E+03  0.10000000000E+00 0. -1.
         21    1    1    2  504  503 -0.14208814652E+02 -0.10857011041E+02  0.49942471075E+02  0.53047295121E+02  0.00000000000E+00 0. -1.
<mgrwt>
<rscale>  1 0.12627132E+03</rscale>
<asrwt>0</asrwt>
<pdfrwt beam="1">  1       21 0.12180090E-01 0.12627132E+03</pdfrwt>
<pdfrwt beam="2">  1       21 0.22397186E-01 0.12627132E+03</pdfrwt>
<totfact> 0.10664219E+06</totfact>
</mgrwt>
</event>
<event>
 6    1  0.4187588E-002  0.1426089E+03  0.7546771E-02  0.1209861E+00
         21   -1    0    0  504  502  0.00000000000E+00  0.00000000000E+00  0.14125379246E+03  0.14125379246E+03  0.00000000000E+00 0.  1.
         21   -1    0    0  502  503 -0.00000000000E+00 -0.00000000000E+00 -0.79824426368E+02  0.79824426368E+02  0.00000000000E+00 0.  1.
         25    2    1    2    0    0  0.40684168301E+02 -0.55291198163E+02  0.51969366886E+02  0.15178312716E+03  0.12499993780E+03 0.  0.
          5    1    3    3  501    0  0.40664151237E+02 -0.89031388943E+02  0.62864129027E+02  0.11632742639E+03  0.10000000000E+00 0.  1.
         -5    1    3    3    0  501  0.20017064179E-01  0.33740190781E+02 -0.10894762140E+02  0.35455700765E+02  0.10000000000E+00 0.  1.
         21    1    1    2  504  503 -0.40684168301E+02  0.55291198163E+02  0.94599992053E+01  0.69295091670E+02  0.00000000000E+00 0.  1.
<mgrwt>
<rscale>  1 0.14260891E+03</rscale>
<asrwt>0</asrwt>
<pdfrwt beam="1">  1       21 0.21731353E-01 0.14260891E+03</pdfrwt>
<pdfrwt beam="2">  1       21 0.12280681E-01 0.14260891E+03</pdfrwt>
<totfact> 0.11132132E+06</totfact>
</mgrwt>
</event>
<event>
 6    1  0.4187588E-002  0.1265726E+03  0.7546771E-02  0.1232632E+00
         21   -1    0    0  504  502  0.00000000000E+00  0.00000000000E+00  0.82716371392E+02  0.82716371392E+02  0.00000000000E+00 0.  1.
         21   -1    0    0  502  503 -0.00000000000E+00 -0.00000000000E+00 -0.28129674993E+03  0.28129674993E+03  0.00000000000E+00 0.  1.
         25    2    1    2    0    0  0.14539989004E+02 -0.13667185664E+02 -0.26552919120E+03  0.29415364265E+03  0.12498964300E+03 0.  0.
          5    1    3    3  501    0  0.41196394744E+02 -0.17167480678E+02 -0.26343273558E+03  0.26718660428E+03  0.10000000000E+00 0.  1.
         -5    1    3    3    0  501 -0.26656405740E+02  0.35002950144E+01 -0.20964556260E+01  0.26967038368E+02  0.10000000000E+00 0.  1.
         21    1    1    2  504  503 -0.14539989004E+02  0.13667185664E+02  0.66948812662E+02  0.69859478677E+02  0.00000000000E+00 0.  1.
<mgrwt>
<rscale>  1 0.12657256E+03</rscale>
<asrwt>0</asrwt>
<pdfrwt beam="1">  1       21 0.12725596E-01 0.12657256E+03</pdfrwt>
<pdfrwt beam="2">  1       21 0.43276423E-01 0.12657256E+03</pdfrwt>
<totfact> 0.27519874E+05</totfact>
</mgrwt>
</event>
<event>
 6    1  0.4187588E-002  0.1663570E+03  0.7546771E-02  0.1181701E+00
         21   -1    0    0  503  502  0.00000000000E+00  0.00000000000E+00  0.16087387720E+03  0.16087387720E+03  0.00000000000E+00 0.  1.
         21   -1    0    0  504  503 -0.00000000000E+00 -0.00000000000E+00 -0.78539430269E+03  0.78539430269E+03  0.00000000000E+00 0. -1.
         25    2    1    2    0    0 -0.81728333673E+01 -0.10945576388E+03 -0.75652081967E+03  0.77459563253E+03  0.12500913519E+03 0.  0.
          5    1    3    3  501    0 -0.58218053864E+02 -0.99393625556E+02 -0.51034979996E+03  0.52318769377E+03  0.10000000000E+00 0. -1.
         -5    1    3    3    0  501  0.50045220496E+02 -0.10062138328E+02 -0.24617101971E+03  0.25140793876E+03  0.10000000000E+00 0. -1.
         21    1    1    2  504  502  0.81728333673E+01  0.10945576388E+03  0.13200039418E+03  0.17167254736E+03  0.00000000000E+00 0.  1.
<mgrwt>
<rscale>  1 0.16635698E+03</rscale>
<asrwt>0</asrwt>
<pdfrwt beam="1">  1       21 0.24749827E-01 0.16635698E+03</pdfrwt>
<pdfrwt beam="2">  1       21 0.12082989E+00 0.16635698E+03</pdfrwt>
<totfact> 0.81824437E+03</totfact>
</mgrwt>
</event>
<event>
 6    1  0.4187588E-002  0.1271950E+03  0.7546771E-02  0.1231678E+00
         21   -1    0    0  504  502  0.00000000000E+00  0.00000000000E+00  0.20594634929E+02  0.20594634929E+02  0.00000000000E+00 0.  1.
         21   -1    0    0  502  503 -0.00000000000E+00 -0.00000000000E+00 -0.31546128118E+03  0.31546128118E+03  0.00000000000E+00 0.  1.
         25    2    1    2    0    0 -0.24967397008E+01 -0.23396879240E+02 -0.28171875976E+03  0.30910198158E+03  0.12499971099E+03 0.  0.
          5    1    3    3  501    0  0.19632828327E+02  0.26888715124E+02 -0.14534722209E+02  0.36327938268E+02  0.10000000000E+00 0. -1.
         -5    1    3    3    0  501 -0.22129568028E+02 -0.50285594364E+02 -0.26718403756E+03  0.27277404331E+03  0.10000000000E+00 0. -1.
         21    1    1    2  504  503  0.24967397008E+01  0.23396879240E+02 -0.13147886485E+02  0.26953934524E+02  0.00000000000E+00 0. -1.
<mgrwt>
<rscale>  1 0.12719503E+03</rscale>
<asrwt>0</asrwt>
<pdfrwt beam="1">  1       21 0.31684057E-02 0.12719503E+03</pdfrwt>
<pdfrwt beam="2">  1       21 0.48532499E-01 0.12719503E+03</pdfrwt>
<totfact> 0.23287393E+06</totfact>
</mgrwt>
</event>
<event>
 6    1  0.4187588E-002  0.1354664E+03  0.7546771E-02  0.1219563E+00
         21   -1    0    0  504  502  0.00000000000E+00  0.00000000000E+00  0.17474111976E+03  0.17474111976E+03  0.00000000000E+00 0.  1.
         21   -1    0    0  502  503 -0.00000000000E+00 -0.00000000000E+00 -0.53898856400E+02  0.53898856400E+02  0.00000000000E+00 0.  1.
         25    2    1    2    0    0  0.38580032153E+02 -0.35218643876E+02  0.11176285612E+03  0.17561915578E+03  0.12498952001E+03 0.  0.
          5    1    3    3  501    0  0.39691186670E+02  0.14675266260E+02  0.11796806911E+03  0.12532848467E+03  0.10000000000E+00 0.  1.
         -5    1    3    3    0  501 -0.11111545173E+01 -0.49893910137E+02 -0.62052129941E+01  0.50290671117E+02  0.10000000000E+00 0.  1.
         21    1    1    2  504  503 -0.38580032153E+02  0.35218643876E+02  0.90794072422E+01  0.53020820375E+02  0.00000000000E+00 0.  1.
<mgrwt>
<rscale>  1 0.13546642E+03</rscale>
<asrwt>0</asrwt>
<pdfrwt beam="1">  1       21 0.26883249E-01 0.13546642E+03</pdfrwt>
<pdfrwt beam="2">  1       21 0.82921318E-02 0.13546642E+03</pdfrwt>
<totfact> 0.14828751E+06</totfact>
</mgrwt>
</event>
<event>
 6    1  0.4187588E-002  0.1270772E+03  0.7546771E-02  0.1231858E+00
         21   -1    0    0  504  502  0.00000000000E+00  0.00000000000E+00  0.65480564928E+02  0.65480564928E+02  0.00000000000E+00 0. -1.
         21   -1    0    0  502  503 -0.00000000000E+00 -0.00000000000E+00 -0.86059868227E+02  0.86059868227E+02  0.00000000000E+00 0. -1.
         25    2    1    2    0    0  0.57866609773E+01  0.22135508350E+02 -0.20092703833E+02  0.12865587604E+03  0.12500060607E+03 0.  0.
          5    1    3    3  501    0  0.56134682703E+01  0.27062285068E+02  0.50672052588E+02  0.57719539262E+02  0.10000000000E+00 0. -1.
         -5    1    3    3    0  501  0.17319270702E+00 -0.49267767178E+01 -0.70764756421E+02  0.70936336781E+02  0.10000000000E+00 0. -1.
         21    1    1    2  504  503 -0.57866609773E+01 -0.22135508350E+02 -0.48659946590E+00  0.22884557112E+02  0.00000000000E+00 0. -1.
<mgrwt>
<rscale>  1 0.12707721E+03</rscale>
<asrwt>0</asrwt>
<pdfrwt beam="1">  1       21 0.10073933E-01 0.12707721E+03</pdfrwt>
<pdfrwt beam="2">  1       21 0.13239980E-01 0.12707721E+03</pdfrwt>
<totfact> 0.38870135E+06</totfact>
</mgrwt>
</event>
<event>
 6    1  0.4187588E-002  0.1632566E+03  0.7546771E-02  0.1185068E+00
         21   -1    0    0  504  502  0.00000000000E+00  0.00000000000E+00  0.58814772523E+03  0.58814772523E+03  0.00000000000E+00 0. -1.
         21   -1    0    0  502  503 -0.00000000000E+00 -0.00000000000E+00 -0.10884913560E+03  0.10884913560E+03  0.00000000000E+00 0.  1.
         25    2    1    2    0    0  0.78532041462E+02 -0.69710495391E+02 -0.39261635072E+02  0.16791128992E+03  0.12500356231E+03 0.  0.
          5    1    3    3  501    0  0.44070268012E+02 -0.79587285948E+02 -0.74542205643E+02  0.11761324343E+03  0.10000000000E+00 0. -1.
         -5    1    3    3    0  501  0.34461773449E+02  0.98767905563E+01  0.35280570571E+02  0.50298046490E+02  0.10000000000E+00 0. -1.
         21    1    1    2  504  503 -0.78532041462E+02  0.69710495391E+02  0.51856022470E+03  0.52908557091E+03  0.00000000000E+00 0. -1.
<mgrwt>
<rscale>  1 0.16325662E+03</rscale>
<asrwt>0</asrwt>
<pdfrwt beam="1">  1       21 0.90484263E-01 0.16325662E+03</pdfrwt>
<pdfrwt beam="2">  1       21 0.16746021E-01 0.16325662E+03</pdfrwt>
<totfact> 0.33836062E+04</totfact>
</mgrwt>
</event>
<event>
 6    1  0.4187588E-002  0.1282661E+03  0.7546771E-02  0.1230051E+00
         21   -1    0    0  503  502  0.00000000000E+00  0.00000000000E+00  0.14372892497E+04  0.14372892497E+04  0.00000000000E+00 0.  1.
         21   -1    0    0  504  503 -0.00000000000E+00 -0.00000000000E+00 -0.45119809913E+01  0.45119809913E+01  0.00000000000E+00 0.  1.
         25    2    1    2    0    0  0.19808301394E+02 -0.20843796243E+02  0.10217755861E+04  0.10297949009E+04  0.12500142804E+03 0.  0.
          5    1    3    3  501    0 -0.27900258983E+02 -0.54844596187E+02  0.70242897711E+03  0.70511901979E+03  0.10000000000E+00 0. -1.
         -5    1    3    3    0  501  0.47708560377E+02  0.34000799944E+02  0.31934660897E+03  0.32467588113E+03  0.10000000000E+00 0. -1.
         21    1    1    2  504  502 -0.19808301394E+02  0.20843796243E+02  0.41100168262E+03  0.41200632976E+03  0.00000000000E+00 0.  1.
<mgrwt>
<rscale>  1 0.12826609E+03</rscale>
<asrwt>0</asrwt>
<pdfrwt beam="1">  1       21 0.22112106E+00 0.12826609E+03</pdfrwt>
<pdfrwt beam="2">  1       21 0.69415207E-03 0.12826609E+03</pdfrwt>
<totfact> 0.67952670E+05</totfact>
</mgrwt>
</event>
<event>
 6    1  0.4187588E-002  0.1453080E+03  0.7546771E-02  0.1206360E+00
         21   -1    0    0  504  502  0.00000000000E+00  0.00000000000E+00  0.11260732292E+03  0.11260732292E+03  0.00000000000E+00 0.  1.
         21   -1    0    0  502  503 -0.00000000000E+00 -0.00000000000E+00 -0.10686831939E+03  0.10686831939E+03  0.00000000000E+00 0.  1.
         25    2    1    2    0    0  0.42970843670E+02  0.60358949929E+02  0.39262107832E+01  0.14536098479E+03  0.12499881810E+03 0.  0.
          5    1    3    3  501    0 -0.10658748204E+02  0.59141566138E+02 -0.43156945432E+02  0.73985577632E+02  0.10000000000E+00 0.  1.
         -5    1    3    3    0  501  0.53629591874E+02  0.12173837912E+01  0.47083156215E+02  0.71375407159E+02  0.10000000000E+00 0.  1.
         21    1    1    2  504  503 -0.42970843670E+02 -0.60358949929E+02  0.18127927435E+01  0.74114657523E+02  0.00000000000E+00 0.  1.
<mgrwt>
<rscale>  1 0.14530795E+03</rscale>
<asrwt>0</asrwt>
<pdfrwt beam="1">  1       21 0.17324204E-01 0.14530795E+03</pdfrwt>
<pdfrwt beam="2">  1       21 0.16441280E-01 0.14530795E+03</pdfrwt>
<totfact> 0.10012067E+06</totfact>
</mgrwt>
</event>
<event>
 6    1  0.4187588E-002  0.1528883E+03  0.7546771E-02  0.1196968E+00
         21   -1    0    0  503  502  0.00000000000E+00  0.00000000000E+00  0.53572945572E+02  0.53572945572E+02  0.00000000000E+00 0. -1.
         21   -1    0    0  504  503 -0.00000000000E+00 -0.00000000000E+00 -0.27086574205E+03  0.27086574205E+03  0.00000000000E+00 0. -1.
         25    2    1    2    0    0 -0.45127029802E+02  0.75588587760E+02 -0.13833614119E+03  0.20618372226E+03  0.12499902379E+03 0.  0.
          5    1    3    3  501    0 -0.68659817249E+02  0.87645573971E+02 -0.14094365287E+03  0.17961358642E+03  0.10000000000E+00 0. -1.
         -5    1    3    3    0  501  0.23532787447E+02 -0.12056986211E+02  0.26075116819E+01  0.26570135842E+02  0.10000000000E+00 0. -1.
         21    1    1    2  504  502  0.45127029802E+02 -0.75588587760E+02 -0.78956655285E+02  0.11825496536E+03  0.00000000000E+00 0. -1.
<mgrwt>
<rscale>  1 0.15288832E+03</rscale>
<asrwt>0</asrwt>
<pdfrwt beam="1">  1       21 0.82419916E-02 0.15288832E+03</pdfrwt>
<pdfrwt beam="2">  1       21 0.41671653E-01 0.15288832E+03</pdfrwt>
<totfact> 0.63476185E+05</totfact>
</mgrwt>
</event>
<event>
 6    1  0.4187588E-002  0.1291115E+03  0.7546771E-02  0.1228780E+00
         21   -1    0    0  504  502  0.00000000000E+00  0.00000000000E+00  0.91416340812E+02  0.91416340812E+02  0.00000000000E+00 0.  1.
         21   -1    0    0  502  503 -0.00000000000E+00 -0.00000000000E+00 -0.15455789944E+03  0.15455789944E+03  0.00000000000E+00 0.  1.
         25    2    1    2    0    0  0.29402630391E+02 -0.13443345493E+02 -0.12275824306E+03  0.17815545764E+03  0.12499817053E+03 0.  0.
          5    1    3    3  501    0 -0.38977114820E+02 -0.18117682330E+02 -0.94882644781E+02  0.10416425574E+03  0.10000000000E+00 0. -1.
         -5    1    3    3    0  501  0.68379745210E+02  0.46743368368E+01 -0.27875598282E+02  0.73991201906E+02  0.10000000000E+00 0. -1.
         21    1    1    2  504  503 -0.29402630391E+02  0.13443345493E+02  0.59616684434E+02  0.67818782611E+02  0.00000000000E+00 0.  1.
<mgrwt>
<rscale>  1 0.12911151E+03</rscale>
<asrwt>0</asrwt>
<pdfrwt beam="1">  1       21 0.14064053E-01 0.12911151E+03</pdfrwt>
<pdfrwt beam="2">  1       21 0.23778138E-01 0.12911151E+03</pdfrwt>
<totfact> 0.73780063E+05</totfact>
</mgrwt>
</event>
<event>
 6    1  0.4187588E-002  0.1268273E+03  0.7546771E-02  0.1232241E+00
         21   -1    0    0  504  502  0.00000000000E+00  0.00000000000E+00  0.18233013012E+03  0.18233013012E+03  0.00000000000E+00 0. -1.
         21   -1    0    0  502  503 -0.00000000000E+00 -0.00000000000E+00 -0.55612531432E+02  0.55612531432E+02  0.00000000000E+00 0. -1.
         25    2    1    2    0    0 -0.14566845796E+02  0.15726547063E+02  0.19155985643E+02  0.12826578213E+03  0.12500256717E+03 0.  0.
          5    1    3    3  501    0 -0.33273789520E+02  0.41729819264E+02  0.57399601628E+02  0.78378869294E+02  0.10000000000E+00 0. -1.
         -5    1    3    3    0  501  0.18706943724E+02 -0.26003272201E+02 -0.38243615985E+02  0.49886912835E+02  0.10000000000E+00 0. -1.
         21    1    1    2  504  503  0.14566845796E+02 -0.15726547063E+02  0.10756161304E+03  0.10967687942E+03  0.00000000000E+00 0. -1.
<mgrwt>
<rscale>  1 0.12682728E+03</rscale>
<asrwt>0</asrwt>
<pdfrwt beam="1">  1       21 0.28050789E-01 0.12682728E+03</pdfrwt>
<pdfrwt beam="2">  1       21 0.85557742E-02 0.12682728E+03</pdfrwt>
<totfact> 0.12937176E+06</totfact>
</mgrwt>
</event>
<event>
 6    1  0.4187588E-002  0.1260383E+03  0.7546771E-02  0.1233456E+00
         21   -1    0    0  504  502  0.00000000000E+00  0.00000000000E+00  0.96332259341E+01  0.96332259341E+01  0.00000000000E+00 0. -1.
         21   -1    0    0  502  503 -0.00000000000E+00 -0.00000000000E+00 -0.68081599361E+03  0.68081599361E+03  0.00000000000E+00 0. -1.
         25    2    1    2    0    0 -0.73691869771E+01 -0.14355003747E+02 -0.65695598966E+03  0.66893707735E+03  0.12500108019E+03 0.  0.
          5    1    3    3  501    0  0.41559561243E+02  0.13926374350E+02 -0.50352081559E+03  0.50542493287E+03  0.10000000000E+00 0. -1.
         -5    1    3    3    0  501 -0.48928748221E+02 -0.28281378097E+02 -0.15343517407E+03  0.16351214448E+03  0.10000000000E+00 0. -1.
         21    1    1    2  504  503  0.73691869771E+01  0.14355003747E+02 -0.14226778019E+02  0.21512142201E+02  0.00000000000E+00 0. -1.
<mgrwt>
<rscale>  1 0.12603825E+03</rscale>
<asrwt>0</asrwt>
<pdfrwt beam="1">  1       21 0.14820348E-02 0.12603825E+03</pdfrwt>
<pdfrwt beam="2">  1       21 0.10474092E+00 0.12603825E+03</pdfrwt>
<totfact> 0.14733561E+06</totfact>
</mgrwt>
</event>
<event>
 6    1  0.4187588E-002  0.1267325E+03  0.7546771E-02  0.1232386E+00
         21   -1    0    0  503  502  0.00000000000E+00  0.00000000000E+00  0.10694927283E+03  0.10694927283E+03  0.00000000000E+00 0.  1.
         21   -1    0    0  504  503 -0.00000000000E+00 -0.00000000000E+00 -0.99387762396E+02  0.99387762396E+02  0.00000000000E+00 0.  1.
         25    2    1    2    0    0 -0.17744306297E+02 -0.10993746275E+02 -0.56650120584E+02  0.13881773116E+03  0.12500161383E+03 0.  0.
          5    1    3    3  501    0 -0.27109190258E+02 -0.79039823105E+01  0.35938589953E+02  0.45705288322E+02  0.10000000000E+00 0. -1.
         -5    1    3    3    0  501  0.93648839617E+01 -0.30897639648E+01 -0.92588710537E+02  0.93112442841E+02  0.10000000000E+00 0. -1.
         21    1    1    2  504  502  0.17744306297E+02  0.10993746275E+02  0.64211631019E+02  0.67519304063E+02  0.00000000000E+00 0.  1.
<mgrwt>
<rscale>  1 0.12673250E+03</rscale>
<asrwt>0</asrwt>
<pdfrwt beam="1">  1       21 0.16453734E-01 0.12673250E+03</pdfrwt>
<pdfrwt beam="2">  1       21 0.15290425E-01 0.12673250E+03</pdfrwt>
<totfact> 0.12527834E+06</totfact>
</mgrwt>
</event>
<event>
 6    1  0.4187588E-002  0.1292963E+03  0.7546771E-02  0.1228504E+00
         21   -1    0    0  503  502  0.00000000000E+00  0.00000000000E+00  0.21630251099E+02  0.21630251099E+02  0.00000000000E+00 0.  1.
         21   -1    0    0  504  503 -0.00000000000E+00 -0.00000000000E+00 -0.76760556978E+03  0.76760556978E+03  0.00000000000E+00 0.  1.
         25    2    1    2    0    0 -0.24439625339E+02  0.22267131470E+02 -0.74502352285E+03  0.75615975180E+03  0.12499760086E+03 0.  0.
          5    1    3    3  501    0 -0.36536738565E+02  0.58238655936E+02 -0.65312007650E+03  0.65672864917E+03  0.10000000000E+00 0.  1.
         -5    1    3    3    0  501  0.12097113226E+02 -0.35971524466E+02 -0.91903446342E+02  0.99431102630E+02  0.10000000000E+00 0.  1.
         21    1    1    2  504  502  0.24439625339E+02 -0.22267131470E+02 -0.95179584002E+00  0.33076069082E+02  0.00000000000E+00 0.  1.
<mgrwt>
<rscale>  1 0.12929625E+03</rscale>
<asrwt>0</asrwt>
<pdfrwt beam="1">  1       21 0.33277311E-02 0.12929625E+03</pdfrwt>
<pdfrwt beam="2">  1       21 0.11809316E+00 0.12929625E+03</pdfrwt>
<totfact> 0.29808007E+05</totfact>
</mgrwt>
</event>
<event>
 6    1  0.4187588E-002  0.1750829E+03  0.7546771E-02  0.1172649E+00
         21   -1    0    0  504  502  0.00000000000E+00  0.00000000000E+00  0.17625422578E+03  0.17625422578E+03  0.00000000000E+00 0.  1.
         21   -1    0    0  502  503 -0.00000000000E+00 -0.00000000000E+00 -0.20908464094E+03  0.20908464094E+03  0.00000000000E+00 0.  1.
         25    2    1    2    0    0 -0.11469075687E+03 -0.43300328547E+02 -0.13869620180E+03  0.22336216177E+03  0.12500052302E+03 0.  0.
          5    1    3    3  501    0 -0.27136768572E+02 -0.76231823898E+02 -0.73750427588E+02  0.10948438589E+03  0.10000000000E+00 0.  1.
         -5    1    3    3    0  501 -0.87553988296E+02  0.32931495351E+02 -0.64945774216E+02  0.11387777589E+03  0.10000000000E+00 0.  1.
         21    1    1    2  504  503  0.11469075687E+03  0.43300328547E+02  0.10586578664E+03  0.16197670494E+03  0.00000000000E+00 0.  1.
<mgrwt>
<rscale>  1 0.17508289E+03</rscale>
<asrwt>0</asrwt>
<pdfrwt beam="1">  1       21 0.27116035E-01 0.17508289E+03</pdfrwt>
<pdfrwt beam="2">  1       21 0.32166868E-01 0.17508289E+03</pdfrwt>
<totfact> 0.12125251E+05</totfact>
</mgrwt>
</event>
<event>
 6    1  0.4187588E-002  0.1291387E+03  0.7546771E-02  0.1228739E+00
         21   -1    0    0  504  502  0.00000000000E+00  0.00000000000E+00  0.54829188766E+03  0.54829188766E+03  0.00000000000E+00 0.  1.
         21   -1    0    0  502  503 -0.00000000000E+00 -0.00000000000E+00 -0.15020116459E+02  0.15020116459E+02  0.00000000000E+00 0.  1.
         25    2    1    2    0    0 -0.45372710918E+01  0.32125509238E+02  0.28454694151E+03  0.31248003631E+03  0.12499670393E+03 0.  0.
          5    1    3    3  501    0  0.19069603936E+02 -0.88449653069E+01  0.25679227794E+03  0.25765125114E+03  0.10000000000E+00 0. -1.
         -5    1    3    3    0  501 -0.23606875027E+02  0.40970474545E+02  0.27754663576E+02  0.54828785170E+02  0.10000000000E+00 0. -1.
         21    1    1    2  504  503  0.45372710918E+01 -0.32125509238E+02  0.24872482969E+03  0.25083196782E+03  0.00000000000E+00 0.  1.
<mgrwt>
<rscale>  1 0.12913873E+03</rscale>
<asrwt>0</asrwt>
<pdfrwt beam="1">  1       21 0.84352583E-01 0.12913873E+03</pdfrwt>
<pdfrwt beam="2">  1       21 0.23107876E-02 0.12913873E+03</pdfrwt>
<totfact> 0.11888847E+06</totfact>
</mgrwt>
</event>
<event>
 6    1  0.4187588E-002  0.1260078E+03  0.7546771E-02  0.1233503E+00
         21   -1    0    0  503  502  0.00000000000E+00  0.00000000000E+00  0.15724829330E+02  0.15724829330E+02  0.00000000000E+00 0.  1.
         21   -1    0    0  504  503 -0.00000000000E+00 -0.00000000000E+00 -0.32937188635E+03  0.32937188635E+03  0.00000000000E+00 0.  1.
         25    2    1    2    0    0  0.12960391635E+02 -0.92402890404E+01 -0.29360833336E+03  0.31950560123E+03  0.12499848441E+03 0.  0.
          5    1    3    3  501    0 -0.22379054660E+02  0.21898928793E+02 -0.11289112882E+02  0.33284219074E+02  0.10000000000E+00 0.  1.
         -5    1    3    3    0  501  0.35339446294E+02 -0.31139217833E+02 -0.28231922047E+03  0.28622138215E+03  0.10000000000E+00 0.  1.
         21    1    1    2  504  502 -0.12960391635E+02  0.92402890404E+01 -0.20038723660E+02  0.25591114450E+02  0.00000000000E+00 0.  1.
<mgrwt>
<rscale>  1 0.12600784E+03</rscale>
<asrwt>0</asrwt>
<pdfrwt beam="1">  1       21 0.24192048E-02 0.12600784E+03</pdfrwt>
<pdfrwt beam="2">  1       21 0.50672592E-01 0.12600784E+03</pdfrwt>
<totfact> 0.33099281E+06</totfact>
</mgrwt>
</event>
<event>
 6    1  0.4187588E-002  0.1293301E+03  0.7546771E-02  0.1228453E+00
         21   -1    0    0  503  502  0.00000000000E+00  0.00000000000E+00  0.14816575277E+03  0.14816575277E+03  0.00000000000E+00 0.  1.
         21   -1    0    0  504  503 -0.00000000000E+00 -0.00000000000E+00 -0.26374193059E+03  0.26374193059E+03  0.00000000000E+00 0. -1.
         25    2    1    2    0    0  0.31127118068E+02 -0.11500919206E+02 -0.24567833483E+03  0.27764026409E+03  0.12500041367E+03 0.  0.
          5    1    3    3  501    0  0.69643452936E+02  0.89565081741E+01 -0.80591040525E+02  0.10688945406E+03  0.10000000000E+00 0. -1.
         -5    1    3    3    0  501 -0.38516334868E+02 -0.20457427380E+02 -0.16508729430E+03  0.17075081003E+03  0.10000000000E+00 0. -1.
         21    1    1    2  504  502 -0.31127118068E+02  0.11500919206E+02  0.13010215700E+03  0.13426741927E+03  0.00000000000E+00 0.  1.
<mgrwt>
<rscale>  1 0.12933009E+03</rscale>
<asrwt>0</asrwt>
<pdfrwt beam="1">  1       21 0.22794731E-01 0.12933009E+03</pdfrwt>
<pdfrwt beam="2">  1       21 0.40575681E-01 0.12933009E+03</pdfrwt>
<totfact> 0.10816851E+05</totfact>
</mgrwt>
</event>
<event>
 6    1  0.4187588E-002  0.1594839E+03  0.7546771E-02  0.1189281E+00
         21   -1    0    0  504  502  0.00000000000E+00  0.00000000000E+00  0.32466300377E+03  0.32466300377E+03  0.00000000000E+00 0. -1.
         21   -1    0    0  502  503 -0.00000000000E+00 -0.00000000000E+00 -0.52094705325E+02  0.52094705325E+02  0.00000000000E+00 0. -1.
         25    2    1    2    0    0  0.15224844583E+02  0.97852118573E+02  0.18798390162E+03  0.24652194907E+03  0.12501316373E+03 0.  0.
          5    1    3    3  501    0  0.60258279113E+02  0.72258677155E+02  0.68768052441E+02  0.11653939961E+03  0.10000000000E+00 0. -1.
         -5    1    3    3    0  501 -0.45033434530E+02  0.25593441419E+02  0.11921584918E+03  0.12998254946E+03  0.10000000000E+00 0. -1.
         21    1    1    2  504  503 -0.15224844583E+02 -0.97852118573E+02  0.84584396829E+02  0.13023576002E+03  0.00000000000E+00 0. -1.
<mgrwt>
<rscale>  1 0.15948393E+03</rscale>
<asrwt>0</asrwt>
<pdfrwt beam="1">  1       21 0.49948153E-01 0.15948393E+03</pdfrwt>
<pdfrwt beam="2">  1       21 0.80145703E-02 0.15948393E+03</pdfrwt>
<totfact> 0.45964958E+05</totfact>
</mgrwt>
</event>
<event>
 6    1  0.4187588E-002  0.1319349E+03  0.7546771E-02  0.1224613E+00
         21   -1    0    0  504  502  0.00000000000E+00  0.00000000000E+00  0.31025818842E+02  0.31025818842E+02  0.00000000000E+00 0. -1.
         21   -1    0    0  502  503 -0.00000000000E+00 -0.00000000000E+00 -0.26739798092E+03  0.26739798092E+03  0.00000000000E+00 0. -1.
         25    2    1    2    0    0 -0.31640250848E+02 -0.27935783498E+02 -0.21195142559E+03  0.24966022889E+03  0.12500123842E+03 0.  0.
          5    1    3    3  501    0 -0.30589063063E+00 -0.68004070681E+02 -0.17207968505E+03  0.18502993057E+03  0.10000000000E+00 0.  1.
         -5    1    3    3    0  501 -0.31334360218E+02  0.40068287182E+02 -0.39871740536E+02  0.64630298323E+02  0.10000000000E+00 0.  1.
         21    1    1    2  504  503  0.31640250848E+02  0.27935783498E+02 -0.24420736490E+02  0.48763570871E+02  0.00000000000E+00 0. -1.
<mgrwt>
<rscale>  1 0.13193492E+03</rscale>
<asrwt>0</asrwt>
<pdfrwt beam="1">  1       21 0.47732029E-02 0.13193492E+03</pdfrwt>
<pdfrwt beam="2">  1       21 0.41138151E-01 0.13193492E+03</pdfrwt>
<totfact> 0.16517041E+06</totfact>
</mgrwt>
</event>
<event>
 6    1  0.4187588E-002  0.1273010E+03  0.7546771E-02  0.1231516E+00
         21   -1    0    0  503  502  0.00000000000E+00  0.00000000000E+00  0.23410602916E+02  0.23410602916E+02  0.00000000000E+00 0. -1.
         21   -1    0    0  504  503 -0.00000000000E+00 -0.00000000000E+00 -0.37446212894E+03  0.37446212894E+03  0.00000000000E+00 0. -1.
         25    2    1    2    0    0 -0.22865199442E+02 -0.74339615318E+01 -0.35148256131E+03  0.37382555071E+03  0.12500988094E+03 0.  0.
          5    1    3    3  501    0  0.42865492972E+02 -0.23176915493E+02 -0.76846296163E+02  0.90994412649E+02  0.10000000000E+00 0.  1.
         -5    1    3    3    0  501 -0.65730692414E+02  0.15742953961E+02 -0.27463626515E+03  0.28283113806E+03  0.10000000000E+00 0.  1.
         21    1    1    2  504  502  0.22865199442E+02  0.74339615318E+01  0.43103528333E+00  0.24047181145E+02  0.00000000000E+00 0. -1.
<mgrwt>
<rscale>  1 0.12730103E+03</rscale>
<asrwt>0</asrwt>
<pdfrwt beam="1">  1       21 0.36016312E-02 0.12730103E+03</pdfrwt>
<pdfrwt beam="2">  1       21 0.57609558E-01 0.12730103E+03</pdfrwt>
<totfact> 0.13198632E+06</totfact>
</mgrwt>
</event>
<event>
 6    1  0.4187588E-002  0.1270010E+03  0.7546771E-02  0.1231975E+00
         21   -1    0    0  504  502  0.00000000000E+00  0.00000000000E+00  0.51506607599E+02  0.51506607599E+02  0.00000000000E+00 0. -1.
         21   -1    0    0  502  503 -0.00000000000E+00 -0.00000000000E+00 -0.54412345773E+03  0.54412345773E+03  0.00000000000E+00 0.  1.
         25    2    1    2    0    0 -0.11221598483E+01 -0.22416675600E+02 -0.53381504037E+03  0.54871463644E+03  0.12500195330E+03 0.  0.
          5    1    3    3  501    0  0.66395301314E+01 -0.57285808264E+01  0.46559846110E+01  0.99291586425E+01  0.10000000000E+00 0. -1.
         -5    1    3    3    0  501 -0.77616899797E+01 -0.16688094773E+02 -0.53847102499E+03  0.53878547780E+03  0.10000000000E+00 0. -1.
         21    1    1    2  504  503  0.11221598483E+01  0.22416675600E+02  0.41198190247E+02  0.46915428883E+02  0.00000000000E+00 0. -1.
<mgrwt>
<rscale>  1 0.12700100E+03</rscale>
<asrwt>0</asrwt>
<pdfrwt beam="1">  1       21 0.79240938E-02 0.12700100E+03</pdfrwt>
<pdfrwt beam="2">  1       21 0.83711298E-01 0.12700100E+03</pdfrwt>
<totfact> 0.15483158E+05</totfact>
</mgrwt>
</event>
<event>
 6    1  0.4187588E-002  0.1261224E+03  0.7546771E-02  0.1233326E+00
         21   -1    0    0  504  502  0.00000000000E+00  0.00000000000E+00  0.64775602141E+02  0.64775602141E+02  0.00000000000E+00 0. -1.
         21   -1    0    0  502  503 -0.00000000000E+00 -0.00000000000E+00 -0.81001584524E+02  0.81001584524E+02  0.00000000000E+00 0. -1.
         25    2    1    2    0    0  0.11006585984E+01  0.16751550167E+02 -0.63109581342E+01  0.12628017181E+03  0.12500011087E+03 0.  0.
          5    1    3    3  501    0 -0.21235232994E+02 -0.23858129211E+02 -0.52111468061E+02  0.61120868394E+02  0.10000000000E+00 0. -1.
         -5    1    3    3    0  501  0.22335891593E+02  0.40609679378E+02  0.45800509926E+02  0.65159303418E+02  0.10000000000E+00 0. -1.
         21    1    1    2  504  503 -0.11006585984E+01 -0.16751550167E+02 -0.99150242486E+01  0.19497014853E+02  0.00000000000E+00 0. -1.
<mgrwt>
<rscale>  1 0.12612238E+03</rscale>
<asrwt>0</asrwt>
<pdfrwt beam="1">  1       21 0.99654773E-02 0.12612238E+03</pdfrwt>
<pdfrwt beam="2">  1       21 0.12461782E-01 0.12612238E+03</pdfrwt>
<totfact> 0.44106481E+06</totfact>
</mgrwt>
</event>
<event>
 6    1  0.4187588E-002  0.1324865E+03  0.7546771E-02  0.1223812E+00
         21   -1    0    0  504  502  0.00000000000E+00  0.00000000000E+00  0.15462130389E+04  0.15462130389E+04  0.00000000000E+00 0.  1.
         21   -1    0    0  502  503 -0.00000000000E+00 -0.00000000000E+00 -0.23251160322E+02  0.23251160322E+02  0.00000000000E+00 0.  1.
         25    2    1    2    0    0 -0.42206370940E+02  0.12124244697E+02  0.16876748030E+03  0.21455798720E+03  0.12499716959E+03 0.  0.
          5    1    3    3  501    0 -0.17172940115E+02 -0.43574677438E+02  0.13889041454E+03  0.14657496252E+03  0.10000000000E+00 0. -1.
         -5    1    3    3    0  501 -0.25033430826E+02  0.55698922135E+02  0.29877065759E+02  0.67983024678E+02  0.10000000000E+00 0. -1.
         21    1    1    2  504  503  0.42206370940E+02 -0.12124244697E+02  0.13541943982E+04  0.13549062120E+04  0.00000000000E+00 0.  1.
<mgrwt>
<rscale>  1 0.13248648E+03</rscale>
<asrwt>0</asrwt>
<pdfrwt beam="1">  1       21 0.23787885E+00 0.13248648E+03</pdfrwt>
<pdfrwt beam="2">  1       21 0.35771028E-02 0.13248648E+03</pdfrwt>
<totfact> 0.39005487E+04</totfact>
</mgrwt>
</event>
<event>
 6    1  0.4187588E-002  0.1278555E+03  0.7546771E-02  0.1230673E+00
         21   -1    0    0  503  502  0.00000000000E+00  0.00000000000E+00  0.11891038432E+02  0.11891038432E+02  0.00000000000E+00 0.  1.
         21   -1    0    0  504  503 -0.00000000000E+00 -0.00000000000E+00 -0.50467711804E+03  0.50467711804E+03  0.00000000000E+00 0.  1.
         25    2    1    2    0    0  0.40684033302E+01 -0.26513283156E+02 -0.41802819547E+03  0.43714368084E+03  0.12501007718E+03 0.  0.
          5    1    3    3  501    0 -0.50208918002E+02 -0.41710199824E+02 -0.15570707875E+03  0.16883536534E+03  0.10000000000E+00 0. -1.
         -5    1    3    3    0  501  0.54277321332E+02  0.15196916667E+02 -0.26232111672E+03  0.26830831550E+03  0.10000000000E+00 0. -1.
         21    1    1    2  504  502 -0.40684033302E+01  0.26513283156E+02 -0.74757884132E+02  0.79424475631E+02  0.00000000000E+00 0.  1.
<mgrwt>
<rscale>  1 0.12785549E+03</rscale>
<asrwt>0</asrwt>
<pdfrwt beam="1">  1       21 0.18293905E-02 0.12785549E+03</pdfrwt>
<pdfrwt beam="2">  1       21 0.77642634E-01 0.12785549E+03</pdfrwt>
<totfact> 0.20871175E+06</totfact>
</mgrwt>
</event>
<event>
 6    1  0.4187588E-002  0.1268955E+03  0.7546771E-02  0.1232136E+00
         21   -1    0    0  503  502  0.00000000000E+00  0.00000000000E+00  0.11161338095E+03  0.11161338095E+03  0.00000000000E+00 0.  1.
         21   -1    0    0  504  503 -0.00000000000E+00 -0.00000000000E+00 -0.54254425693E+02  0.54254425693E+02  0.00000000000E+00 0.  1.
         25    2    1    2    0    0  0.18827374142E+02  0.11073688806E+02  0.29166995935E+02  0.13020433554E+03  0.12500143495E+03 0.  0.
          5    1    3    3  501    0 -0.29706596655E+02 -0.15469690841E+01  0.63027755833E+02  0.69694928105E+02  0.10000000000E+00 0. -1.
         -5    1    3    3    0  501  0.48533970798E+02  0.12620657890E+02 -0.33860759898E+02  0.60509407433E+02  0.10000000000E+00 0. -1.
         21    1    1    2  504  502 -0.18827374142E+02 -0.11073688806E+02  0.28191959325E+02  0.35663471108E+02  0.00000000000E+00 0.  1.
<mgrwt>
<rscale>  1 0.12689545E+03</rscale>
<asrwt>0</asrwt>
<pdfrwt beam="1">  1       21 0.17171289E-01 0.12689545E+03</pdfrwt>
<pdfrwt beam="2">  1       21 0.83468348E-02 0.12689545E+03</pdfrwt>
<totfact> 0.33729669E+06</totfact>
</mgrwt>
</event>
<event>
 6    1  0.4187588E-002  0.1260428E+03  0.7546771E-02  0.1233448E+00
         21   -1    0    0  503  502  0.00000000000E+00  0.00000000000E+00  0.67161260614E+03  0.67161260614E+03  0.00000000000E+00 0.  1.
         21   -1    0    0  504  503 -0.00000000000E+00 -0.00000000000E+00 -0.10125728271E+02  0.10125728271E+02  0.00000000000E+00 0.  1.
         25    2    1    2    0    0 -0.15992120918E+02 -0.19573053262E+01  0.39189608771E+03  0.41166654189E+03  0.12500887639E+03 0.  0.
          5    1    3    3  501    0 -0.29552256566E+02  0.26208721656E+02  0.33167125882E+02  0.51578107742E+02  0.10000000000E+00 0. -1.
         -5    1    3    3    0  501  0.13560135648E+02 -0.28166026982E+02  0.35872896183E+03  0.36008843415E+03  0.10000000000E+00 0. -1.
         21    1    1    2  504  502  0.15992120918E+02  0.19573053262E+01  0.26959079017E+03  0.27007179252E+03  0.00000000000E+00 0.  1.
<mgrwt>
<rscale>  1 0.12604284E+03</rscale>
<asrwt>0</asrwt>
<pdfrwt beam="1">  1       21 0.10332498E+00 0.12604284E+03</pdfrwt>
<pdfrwt beam="2">  1       21 0.15578049E-02 0.12604284E+03</pdfrwt>
<totfact> 0.14050853E+06</totfact>
</mgrwt>
</event>
<event>
 6    1  0.4187588E-002  0.1262660E+03  0.7546771E-02  0.1233104E+00
         21   -1    0    0  504  502  0.00000000000E+00  0.00000000000E+00  0.10258126711E+03  0.10258126711E+03  0.00000000000E+00 0. -1.
         21   -1    0    0  502  503 -0.00000000000E+00 -0.00000000000E+00 -0.10441096407E+03  0.10441096407E+03  0.00000000000E+00 0. -1.
         25    2    1    2    0    0  0.14672792468E+02 -0.10060608683E+02 -0.64541910623E+02  0.14180535805E+03  0.12500637847E+03 0.  0.
          5    1    3    3  501    0 -0.85183383909E+01 -0.20261023613E+02 -0.97662806370E+02  0.10010546896E+03  0.10000000000E+00 0. -1.
         -5    1    3    3    0  501  0.23191130858E+02  0.10200414931E+02  0.33120895747E+02  0.41699889093E+02  0.10000000000E+00 0. -1.
         21    1    1    2  504  503 -0.14672792468E+02  0.10060608683E+02  0.62712213664E+02  0.65186873130E+02  0.00000000000E+00 0. -1.
<mgrwt>
<rscale>  1 0.12626599E+03</rscale>
<asrwt>0</asrwt>
<pdfrwt beam="1">  1       21 0.15781733E-01 0.12626599E+03</pdfrwt>
<pdfrwt beam="2">  1       21 0.16063225E-01 0.12626599E+03</pdfrwt>
<totfact> 0.12358088E+06</totfact>
</mgrwt>
</event>
<event>
 6    1  0.4187588E-002  0.1391281E+03  0.7546771E-02  0.1214507E+00
         21   -1    0    0  503  502  0.00000000000E+00  0.00000000000E+00  0.28568003157E+03  0.28568003157E+03  0.00000000000E+00 0. -1.
         21   -1    0    0  504  503 -0.00000000000E+00 -0.00000000000E+00 -0.30900420011E+03  0.30900420011E+03  0.00000000000E+00 0.  1.
         25    2    1    2    0    0  0.56741547091E+02  0.22580704097E+02 -0.28971136024E+03  0.32138654184E+03  0.12500858235E+03 0.  0.
          5    1    3    3  501    0  0.87062437411E+01 -0.13111610788E+02  0.80448068516E+01  0.17676027122E+02  0.10000000000E+00 0.  1.
         -5    1    3    3    0  501  0.48035303350E+02  0.35692314885E+02 -0.29775616710E+03  0.30371051472E+03  0.10000000000E+00 0.  1.
         21    1    1    2  504  502 -0.56741547091E+02 -0.22580704097E+02  0.26638719170E+03  0.27329768983E+03  0.00000000000E+00 0. -1.
<mgrwt>
<rscale>  1 0.13912813E+03</rscale>
<asrwt>0</asrwt>
<pdfrwt beam="1">  1       21 0.43950774E-01 0.13912813E+03</pdfrwt>
<pdfrwt beam="2">  1       21 0.47539108E-01 0.13912813E+03</pdfrwt>
<totfact> 0.21760364E+04</totfact>
</mgrwt>
</event>
<event>
 6    1  0.4187588E-002  0.1289775E+03  0.7546771E-02  0.1228981E+00
         21   -1    0    0  504  502  0.00000000000E+00  0.00000000000E+00  0.10832921170E+03  0.10832921170E+03  0.00000000000E+00 0.  1.
         21   -1    0    0  502  503 -0.00000000000E+00 -0.00000000000E+00 -0.60468737645E+02  0.60468737645E+02  0.00000000000E+00 0.  1.
         25    2    1    2    0    0 -0.30857609110E+02  0.76239963560E+01  0.30318197181E+02  0.13249300701E+03  0.12499954586E+03 0.  0.
          5    1    3    3  501    0 -0.21665711575E+02  0.86192381674E+01  0.79294370747E+02  0.82651688166E+02  0.10000000000E+00 0.  1.
         -5    1    3    3    0  501 -0.91918975350E+01 -0.99524181143E+00 -0.48976173566E+02  0.49841318840E+02  0.10000000000E+00 0.  1.
         21    1    1    2  504  503  0.30857609110E+02 -0.76239963560E+01  0.17542276877E+02  0.36304942342E+02  0.00000000000E+00 0.  1.
<mgrwt>
<rscale>  1 0.12897753E+03</rscale>
<asrwt>0</asrwt>
<pdfrwt beam="1">  1       21 0.16666033E-01 0.12897753E+03</pdfrwt>
<pdfrwt beam="2">  1       21 0.93028827E-02 0.12897753E+03</pdfrwt>
<totfact> 0.29527743E+06</totfact>
</mgrwt>
</event>
<event>
 6    1  0.4187588E-002  0.1324158E+03  0.7546771E-02  0.1223915E+00
         21   -1    0    0  504  502  0.00000000000E+00  0.00000000000E+00  0.35098892142E+02  0.35098892142E+02  0.00000000000E+00 0. -1.
         21   -1    0    0  502  503 -0.00000000000E+00 -0.00000000000E+00 -0.30356256783E+03  0.30356256783E+03  0.00000000000E+00 0. -1.
         25    2    1    2    0    0 -0.41083478395E+02  0.14918791418E+02 -0.26320644160E+03  0.29463804524E+03  0.12499409694E+03 0.  0.
          5    1    3    3  501    0 -0.63270710095E+02  0.49196255699E+02 -0.22449511207E+03  0.23837264875E+03  0.10000000000E+00 0. -1.
         -5    1    3    3    0  501  0.22187231700E+02 -0.34277464281E+02 -0.38711329531E+02  0.56265396489E+02  0.10000000000E+00 0. -1.
         21    1    1    2  504  503  0.41083478395E+02 -0.14918791418E+02 -0.52572340899E+01  0.44023414732E+02  0.00000000000E+00 0. -1.
<mgrwt>
<rscale>  1 0.13241581E+03</rscale>
<asrwt>0</asrwt>
<pdfrwt beam="1">  1       21 0.53998296E-02 0.13241581E+03</pdfrwt>
<pdfrwt beam="2">  1       21 0.46701934E-01 0.13241581E+03</pdfrwt>
<totfact> 0.10381093E+06</totfact>
</mgrwt>
</event>
<event>
 6    1  0.4187588E-002  0.1300826E+03  0.7546771E-02  0.1227333E+00
         21   -1    0    0  503  502  0.00000000000E+00  0.00000000000E+00  0.48453386895E+03  0.48453386895E+03  0.00000000000E+00 0. -1.
         21   -1    0    0  504  503 -0.00000000000E+00 -0.00000000000E+00 -0.15135294161E+02  0.15135294161E+02  0.00000000000E+00 0. -1.
         25    2    1    2    0    0  0.10498597243E+02  0.34420694551E+02  0.41079076492E+03  0.43089503909E+03  0.12500590950E+03 0.  0.
          5    1    3    3  501    0  0.43988230889E+02 -0.27727437124E+02  0.24901836739E+03  0.25438933256E+03  0.10000000000E+00 0. -1.
         -5    1    3    3    0  501 -0.33489633646E+02  0.62148131674E+02  0.16177239753E+03  0.17650570652E+03  0.10000000000E+00 0. -1.
         21    1    1    2  504  502 -0.10498597243E+02 -0.34420694551E+02  0.58607809871E+02  0.68774124024E+02  0.00000000000E+00 0. -1.
<mgrwt>
<rscale>  1 0.13008260E+03</rscale>
<asrwt>0</asrwt>
<pdfrwt beam="1">  1       21 0.74543660E-01 0.13008260E+03</pdfrwt>
<pdfrwt beam="2">  1       21 0.23285072E-02 0.13008260E+03</pdfrwt>
<totfact> 0.15472468E+06</totfact>
</mgrwt>
</event>
<event>
 6    1  0.4187588E-002  0.1259518E+03  0.7546771E-02  0.1233589E+00
         21   -1    0    0  504  502  0.00000000000E+00  0.00000000000E+00  0.24700520043E+02  0.24700520043E+02  0.00000000000E+00 0. -1.
         21   -1    0    0  502  503 -0.00000000000E+00 -0.00000000000E+00 -0.41919899992E+03  0.41919899992E+03  0.00000000000E+00 0. -1.
         25    2    1    2    0    0  0.37699783487E+01  0.15024196209E+02 -0.40568845164E+03  0.42479049915E+03  0.12499563658E+03 0.  0.
          5    1    3    3  501    0  0.68721471760E+01  0.56093684795E+02 -0.88941853157E+02  0.10537737482E+03  0.10000000000E+00 0.  1.
         -5    1    3    3    0  501 -0.31021688273E+01 -0.41069488586E+02 -0.31674659849E+03  0.31941312433E+03  0.10000000000E+00 0.  1.
         21    1    1    2  504  503 -0.37699783487E+01 -0.15024196209E+02  0.11189971761E+02  0.19109020814E+02  0.00000000000E+00 0. -1.
<mgrwt>
<rscale>  1 0.12595177E+03</rscale>
<asrwt>0</asrwt>
<pdfrwt beam="1">  1       21 0.38000800E-02 0.12595177E+03</pdfrwt>
<pdfrwt beam="2">  1       21 0.64492154E-01 0.12595177E+03</pdfrwt>
<totfact> 0.94980897E+05</totfact>
</mgrwt>
</event>
<event>
 6    1  0.4187588E-002  0.1275943E+03  0.7546771E-02  0.1231070E+00
         21   -1    0    0  504  502  0.00000000000E+00  0.00000000000E+00  0.10547784688E+03  0.10547784688E+03  0.00000000000E+00 0.  1.
         21   -1    0    0  502  503 -0.00000000000E+00 -0.00000000000E+00 -0.56296420394E+02  0.56296420394E+02  0.00000000000E+00 0.  1.
         25    2    1    2    0    0 -0.37402574919E+01 -0.25287969096E+02  0.34014250688E+02  0.13205030171E+03  0.12500736788E+03 0.  0.
          5    1    3    3  501    0 -0.53150856031E+02 -0.22988884122E+02  0.53544301020E+02  0.78870174729E+02  0.10000000000E+00 0.  1.
         -5    1    3    3    0  501  0.49410598539E+02 -0.22990849733E+01 -0.19530050332E+02  0.53180126981E+02  0.10000000000E+00 0.  1.
         21    1    1    2  504  503  0.37402574919E+01  0.25287969096E+02  0.15167175797E+02  0.29723965562E+02  0.00000000000E+00 0.  1.
<mgrwt>
<rscale>  1 0.12759433E+03</rscale>
<asrwt>0</asrwt>
<pdfrwt beam="1">  1       21 0.16227361E-01 0.12759433E+03</pdfrwt>
<pdfrwt beam="2">  1       21 0.86609878E-02 0.12759433E+03</pdfrwt>
<totfact> 0.35074949E+06</totfact>
</mgrwt>
</event>
<event>
 6    1  0.4187588E-002  0.1270924E+03  0.7546771E-02  0.1231835E+00
         21   -1    0    0  503  502  0.00000000000E+00  0.00000000000E+00  0.96638259197E+02  0.96638259197E+02  0.00000000000E+00 0.  1.
         21   -1    0    0  504  503 -0.00000000000E+00 -0.00000000000E+00 -0.72645737885E+02  0.72645737885E+02  0.00000000000E+00 0.  1.
         25    2    1    2    0    0  0.19479685045E+02 -0.11998702789E+02 -0.10900871788E+02  0.12755899403E+03  0.12501616277E+03 0.  0.
          5    1    3    3  501    0 -0.14085358173E+02 -0.61671108204E+01  0.52977400247E+02  0.55163806138E+02  0.10000000000E+00 0.  1.
         -5    1    3    3    0  501  0.33565043219E+02 -0.58315919687E+01 -0.63878272034E+02  0.72395187888E+02  0.10000000000E+00 0.  1.
         21    1    1    2  504  502 -0.19479685045E+02  0.11998702789E+02  0.34893393099E+02  0.41725003057E+02  0.00000000000E+00 0.  1.
<mgrwt>
<rscale>  1 0.12709236E+03</rscale>
<asrwt>0</asrwt>
<pdfrwt beam="1">  1       21 0.14867424E-01 0.12709236E+03</pdfrwt>
<pdfrwt beam="2">  1       21 0.11176267E-01 0.12709236E+03</pdfrwt>
<totfact> 0.26313901E+06</totfact>
</mgrwt>
</event>
<event>
 6    1  0.4187588E-002  0.1463420E+03  0.7546771E-02  0.1205041E+00
         21   -1    0    0  504  502  0.00000000000E+00  0.00000000000E+00  0.84296312702E+02  0.84296312702E+02  0.00000000000E+00 0.  1.
         21   -1    0    0  502  503 -0.00000000000E+00 -0.00000000000E+00 -0.15892009871E+03  0.15892009871E+03  0.00000000000E+00 0.  1.
         25    2    1    2    0    0  0.63428043054E+02  0.42060407549E+02 -0.80251795603E+02  0.16690213345E+03  0.12499510760E+03 0.  0.
          5    1    3    3  501    0  0.59798377342E+02 -0.25309967767E+02 -0.75038009420E+02  0.99232823495E+02  0.10000000000E+00 0.  1.
         -5    1    3    3    0  501  0.36296657121E+01  0.67370375316E+02 -0.52137861826E+01  0.67669309955E+02  0.10000000000E+00 0.  1.
         21    1    1    2  504  503 -0.63428043054E+02 -0.42060407549E+02  0.56280095958E+01  0.76314277962E+02  0.00000000000E+00 0.  1.
<mgrwt>
<rscale>  1 0.14634197E+03</rscale>
<asrwt>0</asrwt>
<pdfrwt beam="1">  1       21 0.12968664E-01 0.14634197E+03</pdfrwt>
<pdfrwt beam="2">  1       21 0.24449246E-01 0.14634197E+03</pdfrwt>
<totfact> 0.80946762E+05</totfact>
</mgrwt>
</event>
<event>
 6    1  0.4187588E-002  0.1565305E+03  0.7546771E-02  0.1192670E+00
         21   -1    0    0  504  502  0.00000000000E+00  0.00000000000E+00  0.10410840147E+04  0.10410840147E+04  0.00000000000E+00 0.  1.
         21   -1    0    0  502  503 -0.00000000000E+00 -0.00000000000E+00 -0.18283904274E+02  0.18283904274E+02  0.00000000000E+00 0.  1.
         25    2    1    2    0    0  0.51804058657E+02  0.78704302813E+02  0.40097827483E+03  0.43044787398E+03  0.12499507011E+03 0.  0.
          5    1    3    3  501    0 -0.39759345035E+02  0.12568769448E+02  0.13994699359E+03  0.14602722519E+03  0.10000000000E+00 0. -1.
         -5    1    3    3    0  501  0.91563403691E+02  0.66135533366E+02  0.26103128125E+03  0.28442064879E+03  0.10000000000E+00 0. -1.
         21    1    1    2  504  503 -0.51804058657E+02 -0.78704302813E+02  0.62182183561E+03  0.62892004501E+03  0.00000000000E+00 0.  1.
<mgrwt>
<rscale>  1 0.15653049E+03</rscale>
<asrwt>0</asrwt>
<pdfrwt beam="1">  1       21 0.16016673E+00 0.15653049E+03</pdfrwt>
<pdfrwt beam="2">  1       21 0.28129092E-02 0.15653049E+03</pdfrwt>
<totfact> 0.17946172E+05</totfact>
</mgrwt>
</event>
<event>
 6    1  0.4187588E-002  0.1293329E+03  0.7546771E-02  0.1228449E+00
         21   -1    0    0  503  502  0.00000000000E+00  0.00000000000E+00  0.17469477940E+04  0.17469477940E+04  0.00000000000E+00 0.  1.
         21   -1    0    0  504  503 -0.00000000000E+00 -0.00000000000E+00 -0.37870257276E+01  0.37870257276E+01  0.00000000000E+00 0.  1.
         25    2    1    2    0    0 -0.33047939876E+02  0.29728453570E+01  0.14175519108E+04  0.14234396438E+04  0.12500398197E+03 0.  0.
          5    1    3    3  501    0 -0.29558897223E+01 -0.57654540780E+02  0.82921182726E+03  0.83121901315E+03  0.10000000000E+00 0. -1.
         -5    1    3    3    0  501 -0.30092050154E+02  0.60627386137E+02  0.58834008357E+03  0.59222063065E+03  0.10000000000E+00 0. -1.
         21    1    1    2  504  502  0.33047939876E+02 -0.29728453570E+01  0.32560885743E+03  0.32729517591E+03  0.00000000000E+00 0.  1.
<mgrwt>
<rscale>  1 0.12933290E+03</rscale>
<asrwt>0</asrwt>
<pdfrwt beam="1">  1       21 0.26876056E+00 0.12933290E+03</pdfrwt>
<pdfrwt beam="2">  1       21 0.58262074E-03 0.12933290E+03</pdfrwt>
<totfact> 0.47260543E+05</totfact>
</mgrwt>
</event>
<event>
 6    1  0.4187588E-002  0.1286318E+03  0.7546771E-02  0.1229500E+00
         21   -1    0    0  503  502  0.00000000000E+00  0.00000000000E+00  0.90081082197E+02  0.90081082197E+02  0.00000000000E+00 0.  1.
         21   -1    0    0  504  503 -0.00000000000E+00 -0.00000000000E+00 -0.10967296833E+03  0.10967296833E+03  0.00000000000E+00 0.  1.
         25    2    1    2    0    0 -0.25226102560E+02  0.16910871981E+02 -0.65780366225E+02  0.14447557792E+03  0.12499520868E+03 0.  0.
          5    1    3    3  501    0 -0.45541161557E+02  0.60132072197E+02 -0.19362351187E+02  0.77876659829E+02  0.10000000000E+00 0.  1.
         -5    1    3    3    0  501  0.20315058997E+02 -0.43221200216E+02 -0.46418015038E+02  0.66598918086E+02  0.10000000000E+00 0.  1.
         21    1    1    2  504  502  0.25226102560E+02 -0.16910871981E+02  0.46188480090E+02  0.55278472614E+02  0.00000000000E+00 0.  1.
<mgrwt>
<rscale>  1 0.12863178E+03</rscale>
<asrwt>0</asrwt>
<pdfrwt beam="1">  1       21 0.13858628E-01 0.12863178E+03</pdfrwt>
<pdfrwt beam="2">  1       21 0.16872764E-01 0.12863178E+03</pdfrwt>
<totfact> 0.14286095E+06</totfact>
</mgrwt>
</event>
<event>
 6    1  0.4187588E-002  0.1290915E+03  0.7546771E-02  0.1228810E+00
         21   -1    0    0  503  502  0.00000000000E+00  0.00000000000E+00  0.15705730442E+03  0.15705730442E+03  0.00000000000E+00 0.  1.
         21   -1    0    0  504  503 -0.00000000000E+00 -0.00000000000E+00 -0.41462332897E+02  0.41462332897E+02  0.00000000000E+00 0.  1.
         25    2    1    2    0    0 -0.17969060457E+02  0.26798305348E+02  0.90767079682E+02  0.15780771625E+03  0.12499430488E+03 0.  0.
          5    1    3    3  501    0  0.66492060603E+01  0.28938961704E+02 -0.25379430803E+02  0.39061502194E+02  0.10000000000E+00 0. -1.
         -5    1    3    3    0  501 -0.24618266518E+02 -0.21406563557E+01  0.11614651049E+03  0.11874621406E+03  0.10000000000E+00 0. -1.
         21    1    1    2  504  502  0.17969060457E+02 -0.26798305348E+02  0.24827891838E+02  0.40711921059E+02  0.00000000000E+00 0.  1.
<mgrwt>
<rscale>  1 0.12909149E+03</rscale>
<asrwt>0</asrwt>
<pdfrwt beam="1">  1       21 0.24162662E-01 0.12909149E+03</pdfrwt>
<pdfrwt beam="2">  1       21 0.63788205E-02 0.12909149E+03</pdfrwt>
<totfact> 0.28432227E+06</totfact>
</mgrwt>
</event>
<event>
 6    1  0.4187588E-002  0.2302053E+03  0.7546771E-02  0.1126495E+00
         21   -1    0    0  503  502  0.00000000000E+00  0.00000000000E+00  0.32719866271E+03  0.32719866271E+03  0.00000000000E+00 0. -1.
         21   -1    0    0  504  503 -0.00000000000E+00 -0.00000000000E+00 -0.26640539985E+03  0.26640539985E+03  0.00000000000E+00 0. -1.
         25    2    1    2    0    0 -0.45631278568E+02 -0.18783693532E+03 -0.17466234084E+03  0.28896613130E+03  0.12501825418E+03 0.  0.
          5    1    3    3  501    0  0.26924215025E+02 -0.36475616297E+02 -0.90443017167E+02  0.10116982402E+03  0.10000000000E+00 0. -1.
         -5    1    3    3    0  501 -0.72555493593E+02 -0.15136131902E+03 -0.84219323673E+02  0.18779630727E+03  0.10000000000E+00 0. -1.
         21    1    1    2  504  502  0.45631278568E+02  0.18783693532E+03  0.23545560370E+03  0.30463793126E+03  0.00000000000E+00 0. -1.
<mgrwt>
<rscale>  1 0.23020533E+03</rscale>
<asrwt>0</asrwt>
<pdfrwt beam="1">  1       21 0.50338256E-01 0.23020533E+03</pdfrwt>
<pdfrwt beam="2">  1       21 0.40985446E-01 0.23020533E+03</pdfrwt>
<totfact> 0.21092560E+04</totfact>
</mgrwt>
</event>
<event>
 6    1  0.4187588E-002  0.1267251E+03  0.7546771E-02  0.1232398E+00
         21   -1    0    0  504  502  0.00000000000E+00  0.00000000000E+00  0.14819332205E+02  0.14819332205E+02  0.00000000000E+00 0.  1.
         21   -1    0    0  502  503 -0.00000000000E+00 -0.00000000000E+00 -0.39441346074E+03  0.39441346074E+03  0.00000000000E+00 0.  1.
         25    2    1    2    0    0 -0.16766262976E+02 -0.12327035281E+02 -0.35541478957E+03  0.37733132267E+03  0.12500476410E+03 0.  0.
          5    1    3    3  501    0  0.20722140156E+02  0.47737083554E+02 -0.10637874888E+03  0.11842586057E+03  0.10000000000E+00 0.  1.
         -5    1    3    3    0  501 -0.37488403133E+02 -0.60064118834E+02 -0.24903604069E+03  0.25890546210E+03  0.10000000000E+00 0.  1.
         21    1    1    2  504  503  0.16766262976E+02  0.12327035281E+02 -0.24179338961E+02  0.31901470274E+02  0.00000000000E+00 0.  1.
<mgrwt>
<rscale>  1 0.12672511E+03</rscale>
<asrwt>0</asrwt>
<pdfrwt beam="1">  1       21 0.22798974E-02 0.12672511E+03</pdfrwt>
<pdfrwt beam="2">  1       21 0.60678990E-01 0.12672511E+03</pdfrwt>
<totfact> 0.24986665E+06</totfact>
</mgrwt>
</event>
<event>
 6    1  0.4187588E-002  0.1318953E+03  0.7546771E-02  0.1224670E+00
         21   -1    0    0  504  502  0.00000000000E+00  0.00000000000E+00  0.53168726558E+01  0.53168726558E+01  0.00000000000E+00 0. -1.
         21   -1    0    0  502  503 -0.00000000000E+00 -0.00000000000E+00 -0.14486234551E+04  0.14486234551E+04  0.00000000000E+00 0. -1.
         25    2    1    2    0    0  0.48691519597E+01  0.41722197425E+02 -0.11725301234E+04  0.11799251071E+04  0.12502766733E+03 0.  0.
          5    1    3    3  501    0  0.32399461145E+02  0.77380471768E+02 -0.63633620601E+03  0.64184206747E+03  0.10000000000E+00 0. -1.
         -5    1    3    3    0  501 -0.27530309185E+02 -0.35658274343E+02 -0.53619391739E+03  0.53808303959E+03  0.10000000000E+00 0. -1.
         21    1    1    2  504  503 -0.48691519597E+01 -0.41722197425E+02 -0.27077645906E+03  0.27401522071E+03  0.00000000000E+00 0. -1.
<mgrwt>
<rscale>  1 0.13189529E+03</rscale>
<asrwt>0</asrwt>
<pdfrwt beam="1">  1       21 0.81798133E-03 0.13189529E+03</pdfrwt>
<pdfrwt beam="2">  1       21 0.22286490E+00 0.13189529E+03</pdfrwt>
<totfact> 0.51240219E+05</totfact>
</mgrwt>
</event>
<event>
 6    1  0.4187588E-002  0.1262399E+03  0.7546771E-02  0.1233144E+00
         21   -1    0    0  504  502  0.00000000000E+00  0.00000000000E+00  0.56776386342E+03  0.56776386342E+03  0.00000000000E+00 0. -1.
         21   -1    0    0  502  503 -0.00000000000E+00 -0.00000000000E+00 -0.18321252414E+02  0.18321252414E+02  0.00000000000E+00 0. -1.
         25    2    1    2    0    0  0.16455955694E+02  0.72206647853E+01  0.20216337887E+03  0.23834124234E+03  0.12495430992E+03 0.  0.
          5    1    3    3  501    0  0.67782914762E+02  0.20319934119E+02  0.13842868716E+03  0.15546682825E+03  0.10000000000E+00 0. -1.
         -5    1    3    3    0  501 -0.51326959068E+02 -0.13099269334E+02  0.63734691710E+02  0.82874414095E+02  0.10000000000E+00 0. -1.
         21    1    1    2  504  503 -0.16455955694E+02 -0.72206647853E+01  0.34727923214E+03  0.34774387350E+03  0.00000000000E+00 0. -1.
<mgrwt>
<rscale>  1 0.12623991E+03</rscale>
<asrwt>0</asrwt>
<pdfrwt beam="1">  1       21 0.87348273E-01 0.12623991E+03</pdfrwt>
<pdfrwt beam="2">  1       21 0.28186547E-02 0.12623991E+03</pdfrwt>
<totfact> 0.79489293E+05</totfact>
</mgrwt>
</event>
<event>
 6    1  0.4187588E-002  0.1262510E+03  0.7546771E-02  0.1233127E+00
         21   -1    0    0  504  502  0.00000000000E+00  0.00000000000E+00  0.71552631090E+02  0.71552631090E+02  0.00000000000E+00 0.  1.
         21   -1    0    0  502  503 -0.00000000000E+00 -0.00000000000E+00 -0.13579987691E+03  0.13579987691E+03  0.00000000000E+00 0.  1.
         25    2    1    2    0    0  0.76941469153E+01  0.16000408722E+02 -0.10415794262E+03  0.16367097076E+03  0.12499638668E+03 0.  0.
          5    1    3    3  501    0 -0.29787013654E+02  0.62261016968E+01  0.18111381001E+02  0.35412746950E+02  0.10000000000E+00 0. -1.
         -5    1    3    3    0  501  0.37481160570E+02  0.97743070253E+01 -0.12226932362E+03  0.12825822381E+03  0.10000000000E+00 0. -1.
         21    1    1    2  504  503 -0.76941469153E+01 -0.16000408722E+02  0.39910696805E+02  0.43681537238E+02  0.00000000000E+00 0.  1.
<mgrwt>
<rscale>  1 0.12625098E+03</rscale>
<asrwt>0</asrwt>
<pdfrwt beam="1">  1       21 0.11008097E-01 0.12625098E+03</pdfrwt>
<pdfrwt beam="2">  1       21 0.20892289E-01 0.12625098E+03</pdfrwt>
<totfact> 0.14513129E+06</totfact>
</mgrwt>
</event>
<event>
 6    1  0.4187588E-002  0.1386562E+03  0.7546771E-02  0.1215149E+00
         21   -1    0    0  503  502  0.00000000000E+00  0.00000000000E+00  0.59845848254E+02  0.59845848254E+02  0.00000000000E+00 0. -1.
         21   -1    0    0  504  503 -0.00000000000E+00 -0.00000000000E+00 -0.61061518867E+03  0.61061518867E+03  0.00000000000E+00 0.  1.
         25    2    1    2    0    0  0.59707379631E+02 -0.59910042704E+01 -0.58511533793E+03  0.60131979844E+03  0.12499871203E+03 0.  0.
          5    1    3    3  501    0  0.87803423488E+02 -0.29580740078E+02 -0.30357143594E+03  0.31739579089E+03  0.10000000000E+00 0.  1.
         -5    1    3    3    0  501 -0.28096043856E+02  0.23589735808E+02 -0.28154390199E+03  0.28392400755E+03  0.10000000000E+00 0.  1.
         21    1    1    2  504  502 -0.59707379631E+02  0.59910042704E+01  0.34345997506E+02  0.69141238485E+02  0.00000000000E+00 0. -1.
<mgrwt>
<rscale>  1 0.13865620E+03</rscale>
<asrwt>0</asrwt>
<pdfrwt beam="1">  1       21 0.92070533E-02 0.13865620E+03</pdfrwt>
<pdfrwt beam="2">  1       21 0.93940801E-01 0.13865620E+03</pdfrwt>
<totfact> 0.91344805E+04</totfact>
</mgrwt>
</event>
<event>
 6    1  0.4187588E-002  0.1263564E+03  0.7546771E-02  0.1232964E+00
         21   -1    0    0  504  502  0.00000000000E+00  0.00000000000E+00  0.13083781187E+03  0.13083781187E+03  0.00000000000E+00 0.  1.
         21   -1    0    0  502  503 -0.00000000000E+00 -0.00000000000E+00 -0.45254378630E+02  0.45254378630E+02  0.00000000000E+00 0.  1.
         25    2    1    2    0    0 -0.42031780311E+01  0.17937108874E+02  0.49745142967E+02  0.13579591735E+03  0.12500618120E+03 0.  0.
          5    1    3    3  501    0 -0.43993632402E+02  0.23512402071E+02  0.73717449108E+02  0.89008679611E+02  0.10000000000E+00 0. -1.
         -5    1    3    3    0  501  0.39790454371E+02 -0.55752931976E+01 -0.23972306141E+02  0.46787237737E+02  0.10000000000E+00 0. -1.
         21    1    1    2  504  503  0.42031780311E+01 -0.17937108874E+02  0.35838290274E+02  0.40296273154E+02  0.00000000000E+00 0.  1.
<mgrwt>
<rscale>  1 0.12635645E+03</rscale>
<asrwt>0</asrwt>
<pdfrwt beam="1">  1       21 0.20128894E-01 0.12635645E+03</pdfrwt>
<pdfrwt beam="2">  1       21 0.69622121E-02 0.12635645E+03</pdfrwt>
<totfact> 0.34405657E+06</totfact>
</mgrwt>
</event>
<event>
 6    1  0.4187588E-002  0.1267772E+03  0.7546771E-02  0.1232318E+00
         21   -1    0    0  504  502  0.00000000000E+00  0.00000000000E+00  0.75006127873E+01  0.75006127873E+01  0.00000000000E+00 0.  1.
         21   -1    0    0  502  503 -0.00000000000E+00 -0.00000000000E+00 -0.86117528347E+03  0.86117528347E+03  0.00000000000E+00 0.  1.
         25    2    1    2    0    0  0.20886330303E+02  0.32938693189E+01 -0.81308210590E+03  0.82290642298E+03  0.12500152669E+03 0.  0.
          5    1    3    3  501    0  0.28563372956E+02  0.54938951874E+02 -0.25597125631E+03  0.26335422678E+03  0.10000000000E+00 0.  1.
         -5    1    3    3    0  501 -0.76770426532E+01 -0.51645082555E+02 -0.55711084959E+03  0.55955219620E+03  0.10000000000E+00 0.  1.
         21    1    1    2  504  503 -0.20886330303E+02 -0.32938693189E+01 -0.40592564786E+02  0.45769473282E+02  0.00000000000E+00 0.  1.
<mgrwt>
<rscale>  1 0.12677725E+03</rscale>
<asrwt>0</asrwt>
<pdfrwt beam="1">  1       21 0.11539404E-02 0.12677725E+03</pdfrwt>
<pdfrwt beam="2">  1       21 0.13248851E+00 0.12677725E+03</pdfrwt>
<totfact> 0.12394916E+06</totfact>
</mgrwt>
</event>
<event>
 6    1  0.4187588E-002  0.1259286E+03  0.7546771E-02  0.1233625E+00
         21   -1    0    0  503  502  0.00000000000E+00  0.00000000000E+00  0.12298206112E+03  0.12298206112E+03  0.00000000000E+00 0.  1.
         21   -1    0    0  504  503 -0.00000000000E+00 -0.00000000000E+00 -0.45441451769E+02  0.45441451769E+02  0.00000000000E+00 0.  1.
         25    2    1    2    0    0  0.71003631552E+01  0.13559797169E+02  0.47279436637E+02  0.13451154111E+03  0.12499490512E+03 0.  0.
          5    1    3    3  501    0 -0.24181372537E+02 -0.18203611525E+02 -0.31693223324E+02  0.43824429888E+02  0.10000000000E+00 0.  1.
         -5    1    3    3    0  501  0.31281735692E+02  0.31763408694E+02  0.78972659961E+02  0.90687111218E+02  0.10000000000E+00 0.  1.
         21    1    1    2  504  502 -0.71003631552E+01 -0.13559797169E+02  0.30261172710E+02  0.33911971780E+02  0.00000000000E+00 0.  1.
<mgrwt>
<rscale>  1 0.12592859E+03</rscale>
<asrwt>0</asrwt>
<pdfrwt beam="1">  1       21 0.18920317E-01 0.12592859E+03</pdfrwt>
<pdfrwt beam="2">  1       21 0.69909926E-02 0.12592859E+03</pdfrwt>
<totfact> 0.38289835E+06</totfact>
</mgrwt>
</event>
<event>
 6    1  0.4187588E-002  0.1296779E+03  0.7546771E-02  0.1227934E+00
         21   -1    0    0  504  502  0.00000000000E+00  0.00000000000E+00  0.21067079853E+03  0.21067079853E+03  0.00000000000E+00 0. -1.
         21   -1    0    0  502  503 -0.00000000000E+00 -0.00000000000E+00 -0.32271588445E+02  0.32271588445E+02  0.00000000000E+00 0. -1.
         25    2    1    2    0    0  0.33568199840E+02 -0.80559370022E+01  0.14963857398E+03  0.19801025649E+03  0.12499854674E+03 0.  0.
          5    1    3    3  501    0  0.32313583821E+01 -0.21451569708E+02  0.16137893507E+03  0.16283053216E+03  0.10000000000E+00 0.  1.
         -5    1    3    3    0  501  0.30336841458E+02  0.13395632706E+02 -0.11740361084E+02  0.35179724326E+02  0.10000000000E+00 0.  1.
         21    1    1    2  504  503 -0.33568199840E+02  0.80559370022E+01  0.28760636105E+02  0.44932130493E+02  0.00000000000E+00 0. -1.
<mgrwt>
<rscale>  1 0.12967790E+03</rscale>
<asrwt>0</asrwt>
<pdfrwt beam="1">  1       21 0.32410891E-01 0.12967790E+03</pdfrwt>
<pdfrwt beam="2">  1       21 0.49648599E-02 0.12967790E+03</pdfrwt>
<totfact> 0.24756165E+06</totfact>
</mgrwt>
</event>
<event>
 6    1  0.4187588E-002  0.1408759E+03  0.7546771E-02  0.1212155E+00
         21   -1    0    0  504  502  0.00000000000E+00  0.00000000000E+00  0.11645111684E+03  0.11645111684E+03  0.00000000000E+00 0. -1.
         21   -1    0    0  502  503 -0.00000000000E+00 -0.00000000000E+00 -0.18304099710E+03  0.18304099710E+03  0.00000000000E+00 0. -1.
         25    2    1    2    0    0 -0.64106783013E+02 -0.10593427129E+02 -0.14194899266E+03  0.19998886701E+03  0.12499652028E+03 0.  0.
          5    1    3    3  501    0 -0.45366840255E+02 -0.42321217098E+02 -0.14995259406E+03  0.16228070150E+03  0.10000000000E+00 0.  1.
         -5    1    3    3    0  501 -0.18739942758E+02  0.31727789969E+02  0.80036014003E+01  0.37708165512E+02  0.10000000000E+00 0.  1.
         21    1    1    2  504  503  0.64106783013E+02  0.10593427129E+02  0.75359112411E+02  0.99503246932E+02  0.00000000000E+00 0. -1.
<mgrwt>
<rscale>  1 0.14087594E+03</rscale>
<asrwt>0</asrwt>
<pdfrwt beam="1">  1       21 0.17915556E-01 0.14087594E+03</pdfrwt>
<pdfrwt beam="2">  1       21 0.28160154E-01 0.14087594E+03</pdfrwt>
<totfact> 0.34467360E+05</totfact>
</mgrwt>
</event>
<event>
 6    1  0.4187588E-002  0.1546645E+03  0.7546771E-02  0.1194856E+00
         21   -1    0    0  504  502  0.00000000000E+00  0.00000000000E+00  0.60873589987E+03  0.60873589987E+03  0.00000000000E+00 0. -1.
         21   -1    0    0  502  503 -0.00000000000E+00 -0.00000000000E+00 -0.40948823428E+02  0.40948823428E+02  0.00000000000E+00 0. -1.
         25    2    1    2    0    0 -0.74698616470E+02  0.52127984834E+02  0.12858044510E+03  0.20113185560E+03  0.12499552940E+03 0.  0.
          5    1    3    3  501    0  0.23608718076E+02  0.49936536168E+02  0.35023473161E+02  0.65403997476E+02  0.10000000000E+00 0. -1.
         -5    1    3    3    0  501 -0.98307334546E+02  0.21914486660E+01  0.93556971942E+02  0.13572785813E+03  0.10000000000E+00 0. -1.
         21    1    1    2  504  503  0.74698616470E+02 -0.52127984834E+02  0.43920663134E+03  0.44855286770E+03  0.00000000000E+00 0. -1.
<mgrwt>
<rscale>  1 0.15466445E+03</rscale>
<asrwt>0</asrwt>
<pdfrwt beam="1">  1       21 0.93651670E-01 0.15466445E+03</pdfrwt>
<pdfrwt beam="2">  1       21 0.62998194E-02 0.15466445E+03</pdfrwt>
<totfact> 0.17598412E+05</totfact>
</mgrwt>
</event>
<event>
 6    1  0.4187588E-002  0.1313348E+03  0.7546771E-02  0.1225489E+00
         21   -1    0    0  503  502  0.00000000000E+00  0.00000000000E+00  0.37840186932E+03  0.37840186932E+03  0.00000000000E+00 0. -1.
         21   -1    0    0  504  503 -0.00000000000E+00 -0.00000000000E+00 -0.93306266235E+02  0.93306266235E+02  0.00000000000E+00 0. -1.
         25    2    1    2    0    0  0.28999104570E+02  0.27979163140E+02 -0.45251880859E+02  0.13891203915E+03  0.12500016105E+03 0.  0.
          5    1    3    3  501    0 -0.41171654654E+02 -0.20128010548E+02 -0.10537114382E+02  0.47024278145E+02  0.10000000000E+00 0.  1.
         -5    1    3    3    0  501  0.70170759224E+02  0.48107173688E+02 -0.34714766477E+02  0.91887761002E+02  0.10000000000E+00 0.  1.
         21    1    1    2  504  502 -0.28999104570E+02 -0.27979163140E+02  0.33034748394E+03  0.33279609641E+03  0.00000000000E+00 0. -1.
<mgrwt>
<rscale>  1 0.13133477E+03</rscale>
<asrwt>0</asrwt>
<pdfrwt beam="1">  1       21 0.58215671E-01 0.13133477E+03</pdfrwt>
<pdfrwt beam="2">  1       21 0.14354810E-01 0.13133477E+03</pdfrwt>
<totfact> 0.12010591E+05</totfact>
</mgrwt>
</event>
<event>
 6    1  0.4187588E-002  0.1277175E+03  0.7546771E-02  0.1230882E+00
         21   -1    0    0  503  502  0.00000000000E+00  0.00000000000E+00  0.15344731749E+03  0.15344731749E+03  0.00000000000E+00 0. -1.
         21   -1    0    0  504  503 -0.00000000000E+00 -0.00000000000E+00 -0.38651763788E+02  0.38651763788E+02  0.00000000000E+00 0. -1.
         25    2    1    2    0    0  0.26017173217E+02  0.29615785309E+01  0.98094351420E+02  0.16104116108E+03  0.12500435805E+03 0.  0.
          5    1    3    3  501    0 -0.35679384512E+02  0.16845851165E+02 -0.53299183769E+01  0.39814811447E+02  0.10000000000E+00 0.  1.
         -5    1    3    3    0  501  0.61696557729E+02 -0.13884272634E+02  0.10342426980E+03  0.12122634963E+03  0.10000000000E+00 0.  1.
         21    1    1    2  504  502 -0.26017173217E+02 -0.29615785309E+01  0.16701202286E+02  0.31057920204E+02  0.00000000000E+00 0.  1.
<mgrwt>
<rscale>  1 0.12771748E+03</rscale>
<asrwt>0</asrwt>
<pdfrwt beam="1">  1       21 0.23607279E-01 0.12771748E+03</pdfrwt>
<pdfrwt beam="2">  1       21 0.59464253E-02 0.12771748E+03</pdfrwt>
<totfact> 0.33449191E+06</totfact>
</mgrwt>
</event>
<event>
 6    1  0.4187588E-002  0.1315643E+03  0.7546771E-02  0.1225153E+00
         21   -1    0    0  504  502  0.00000000000E+00  0.00000000000E+00  0.18979396658E+03  0.18979396658E+03  0.00000000000E+00 0. -1.
         21   -1    0    0  502  503 -0.00000000000E+00 -0.00000000000E+00 -0.44378270068E+02  0.44378270068E+02  0.00000000000E+00 0. -1.
         25    2    1    2    0    0  0.36543665067E+02 -0.18682291218E+02  0.71781502392E+02  0.14987240269E+03  0.12499874216E+03 0.  0.
          5    1    3    3  501    0  0.31339955657E+02  0.51942469245E+02  0.35778784974E+02  0.70429712381E+02  0.10000000000E+00 0.  1.
         -5    1    3    3    0  501  0.52037094095E+01 -0.70624760463E+02  0.36002717418E+02  0.79442690309E+02  0.10000000000E+00 0.  1.
         21    1    1    2  504  503 -0.36543665067E+02  0.18682291218E+02  0.73634194118E+02  0.84299833957E+02  0.00000000000E+00 0. -1.
<mgrwt>
<rscale>  1 0.13156425E+03</rscale>
<asrwt>0</asrwt>
<pdfrwt beam="1">  1       21 0.29199071E-01 0.13156425E+03</pdfrwt>
<pdfrwt beam="2">  1       21 0.68274262E-02 0.13156425E+03</pdfrwt>
<totfact> 0.17670523E+06</totfact>
</mgrwt>
</event>
<event>
 6    1  0.4187588E-002  0.1264752E+03  0.7546771E-02  0.1232782E+00
         21   -1    0    0  504  502  0.00000000000E+00  0.00000000000E+00  0.18448077867E+03  0.18448077867E+03  0.00000000000E+00 0.  1.
         21   -1    0    0  502  503 -0.00000000000E+00 -0.00000000000E+00 -0.35266996211E+02  0.35266996211E+02  0.00000000000E+00 0.  1.
         25    2    1    2    0    0 -0.10318807347E+02  0.16258783897E+02  0.84193712747E+02  0.15193601112E+03  0.12500057748E+03 0.  0.
          5    1    3    3  501    0  0.55627102787E+02 -0.80082086368E+01  0.38105787860E+02  0.67901156385E+02  0.10000000000E+00 0. -1.
         -5    1    3    3    0  501 -0.65945910133E+02  0.24266992534E+02  0.46087924887E+02  0.84034854735E+02  0.10000000000E+00 0. -1.
         21    1    1    2  504  503  0.10318807347E+02 -0.16258783897E+02  0.65020069709E+02  0.67811763757E+02  0.00000000000E+00 0.  1.
<mgrwt>
<rscale>  1 0.12647518E+03</rscale>
<asrwt>0</asrwt>
<pdfrwt beam="1">  1       21 0.28381658E-01 0.12647518E+03</pdfrwt>
<pdfrwt beam="2">  1       21 0.54256918E-02 0.12647518E+03</pdfrwt>
<totfact> 0.27529210E+06</totfact>
</mgrwt>
</event>
<event>
 6    1  0.4187588E-002  0.1321669E+03  0.7546771E-02  0.1224275E+00
         21   -1    0    0  503  502  0.00000000000E+00  0.00000000000E+00  0.96675037945E+03  0.96675037945E+03  0.00000000000E+00 0. -1.
         21   -1    0    0  504  503 -0.00000000000E+00 -0.00000000000E+00 -0.11767170607E+04  0.11767170607E+04  0.00000000000E+00 0.  1.
         25    2    1    2    0    0 -0.38361990153E+02  0.19291372679E+02 -0.11725257159E+04  0.11799511224E+04  0.12499718966E+03 0.  0.
          5    1    3    3  501    0  0.23451610331E+02  0.38518394717E+02 -0.83841340786E+03  0.83962533147E+03  0.10000000000E+00 0.  1.
         -5    1    3    3    0  501 -0.61813600484E+02 -0.19227022038E+02 -0.33411230804E+03  0.34032579092E+03  0.10000000000E+00 0.  1.
         21    1    1    2  504  502  0.38361990153E+02 -0.19291372679E+02  0.96255903466E+03  0.96351631774E+03  0.00000000000E+00 0. -1.
<mgrwt>
<rscale>  1 0.13216693E+03</rscale>
<asrwt>0</asrwt>
<pdfrwt beam="1">  1       21 0.14873083E+00 0.13216693E+03</pdfrwt>
<pdfrwt beam="2">  1       21 0.18103339E+00 0.13216693E+03</pdfrwt>
<totfact> 0.61051853E+01</totfact>
</mgrwt>
</event>
<event>
 6    1  0.4187588E-002  0.1579705E+03  0.7546771E-02  0.1191007E+00
         21   -1    0    0  504  502  0.00000000000E+00  0.00000000000E+00  0.77911231732E+02  0.77911231732E+02  0.00000000000E+00 0.  1.
         21   -1    0    0  502  503 -0.00000000000E+00 -0.00000000000E+00 -0.21016646634E+03  0.21016646634E+03  0.00000000000E+00 0.  1.
         25    2    1    2    0    0  0.96475160007E+02 -0.48017904521E+01 -0.67508474896E+02  0.17179074015E+03  0.12499660207E+03 0.  0.
          5    1    3    3  501    0  0.12558477614E+03  0.87163174866E+00 -0.41277301401E+02  0.13219728193E+03  0.10000000000E+00 0. -1.
         -5    1    3    3    0  501 -0.29109616129E+02 -0.56734222008E+01 -0.26231173496E+02  0.39593458217E+02  0.10000000000E+00 0. -1.
         21    1    1    2  504  503 -0.96475160007E+02  0.48017904521E+01 -0.64746759710E+02  0.11628695792E+03  0.00000000000E+00 0.  1.
<mgrwt>
<rscale>  1 0.15797045E+03</rscale>
<asrwt>0</asrwt>
<pdfrwt beam="1">  1       21 0.11986344E-01 0.15797045E+03</pdfrwt>
<pdfrwt beam="2">  1       21 0.32333302E-01 0.15797045E+03</pdfrwt>
<totfact> 0.54400908E+05</totfact>
</mgrwt>
</event>
<event>
 6    1  0.4187588E-002  0.1565264E+03  0.7546771E-02  0.1192675E+00
         21   -1    0    0  504  502  0.00000000000E+00  0.00000000000E+00  0.93816212750E+02  0.93816212750E+02  0.00000000000E+00 0.  1.
         21   -1    0    0  502  503 -0.00000000000E+00 -0.00000000000E+00 -0.39669152199E+03  0.39669152199E+03  0.00000000000E+00 0.  1.
         25    2    1    2    0    0  0.94190436695E+02  0.12702738710E+01 -0.35129798426E+03  0.38459169527E+03  0.12500818517E+03 0.  0.
          5    1    3    3  501    0  0.53351731882E+02 -0.10688151634E+02 -0.33441265812E+03  0.33881038914E+03  0.10000000000E+00 0.  1.
         -5    1    3    3    0  501  0.40838704813E+02  0.11958425505E+02 -0.16885326145E+02  0.45781306124E+02  0.10000000000E+00 0.  1.
         21    1    1    2  504  503 -0.94190436695E+02 -0.12702738710E+01  0.48422675026E+02  0.10591603947E+03  0.00000000000E+00 0.  1.
<mgrwt>
<rscale>  1 0.15652635E+03</rscale>
<asrwt>0</asrwt>
<pdfrwt beam="1">  1       21 0.14433264E-01 0.15652635E+03</pdfrwt>
<pdfrwt beam="2">  1       21 0.61029464E-01 0.15652635E+03</pdfrwt>
<totfact> 0.10659100E+05</totfact>
</mgrwt>
</event>
<event>
 6    1  0.4187588E-002  0.1346239E+03  0.7546771E-02  0.1220752E+00
         21   -1    0    0  504  502  0.00000000000E+00  0.00000000000E+00  0.27758749053E+03  0.27758749053E+03  0.00000000000E+00 0. -1.
         21   -1    0    0  502  503 -0.00000000000E+00 -0.00000000000E+00 -0.50238045557E+02  0.50238045557E+02  0.00000000000E+00 0.  1.
         25    2    1    2    0    0 -0.39928379936E+02 -0.30113318988E+02  0.50080563325E+02  0.14363719795E+03  0.12498997683E+03 0.  0.
          5    1    3    3  501    0 -0.79407302869E+02  0.76888199300E+01  0.33415776433E+02  0.86494287762E+02  0.10000000000E+00 0.  1.
         -5    1    3    3    0  501  0.39478922933E+02 -0.37802138918E+02  0.16664786892E+02  0.57142910189E+02  0.10000000000E+00 0.  1.
         21    1    1    2  504  503  0.39928379936E+02  0.30113318988E+02  0.17726888165E+03  0.18418833814E+03  0.00000000000E+00 0. -1.
<mgrwt>
<rscale>  1 0.13462385E+03</rscale>
<asrwt>0</asrwt>
<pdfrwt beam="1">  1       21 0.42705767E-01 0.13462385E+03</pdfrwt>
<pdfrwt beam="2">  1       21 0.77289303E-02 0.13462385E+03</pdfrwt>
<totfact> 0.67566006E+05</totfact>
</mgrwt>
</event>
<event>
 6    1  0.4187588E-002  0.1331089E+03  0.7546771E-02  0.1222914E+00
         21   -1    0    0  504  502  0.00000000000E+00  0.00000000000E+00  0.85300910726E+03  0.85300910726E+03  0.00000000000E+00 0. -1.
         21   -1    0    0  502  503 -0.00000000000E+00 -0.00000000000E+00 -0.10880045822E+02  0.10880045822E+02  0.00000000000E+00 0. -1.
         25    2    1    2    0    0 -0.45703067982E+02  0.17018718801E+01  0.45508155719E+03  0.47414893532E+03  0.12500528943E+03 0.  0.
          5    1    3    3  501    0  0.15725451227E+02  0.28681005314E+02  0.31925397041E+02  0.45707011042E+02  0.10000000000E+00 0.  1.
         -5    1    3    3    0  501 -0.61428519209E+02 -0.26979133434E+02  0.42315616014E+03  0.42844192428E+03  0.10000000000E+00 0.  1.
         21    1    1    2  504  503  0.45703067982E+02 -0.17018718801E+01  0.38704750426E+03  0.38974021776E+03  0.00000000000E+00 0. -1.
<mgrwt>
<rscale>  1 0.13310894E+03</rscale>
<asrwt>0</asrwt>
<pdfrwt beam="1">  1       21 0.13123212E+00 0.13310894E+03</pdfrwt>
<pdfrwt beam="2">  1       21 0.16738539E-02 0.13310894E+03</pdfrwt>
<totfact> 0.70137436E+05</totfact>
</mgrwt>
</event>
<event>
 6    1  0.4187588E-002  0.1276774E+03  0.7546771E-02  0.1230943E+00
         21   -1    0    0  504  502  0.00000000000E+00  0.00000000000E+00  0.66736803611E+02  0.66736803611E+02  0.00000000000E+00 0.  1.
         21   -1    0    0  502  503 -0.00000000000E+00 -0.00000000000E+00 -0.10128755888E+03  0.10128755888E+03  0.00000000000E+00 0.  1.
         25    2    1    2    0    0  0.24466578060E+02 -0.88669369655E+01 -0.50724087629E+02  0.13738431202E+03  0.12499712041E+03 0.  0.
          5    1    3    3  501    0  0.51597493518E+02 -0.48401550264E+02 -0.54474937858E+02  0.89289082535E+02  0.10000000000E+00 0.  1.
         -5    1    3    3    0  501 -0.27130915458E+02  0.39534613298E+02  0.37508502294E+01  0.48095229490E+02  0.10000000000E+00 0.  1.
         21    1    1    2  504  503 -0.24466578060E+02  0.88669369655E+01  0.16173332358E+02  0.30640050468E+02  0.00000000000E+00 0.  1.
<mgrwt>
<rscale>  1 0.12767739E+03</rscale>
<asrwt>0</asrwt>
<pdfrwt beam="1">  1       21 0.10267201E-01 0.12767739E+03</pdfrwt>
<pdfrwt beam="2">  1       21 0.15582701E-01 0.12767739E+03</pdfrwt>
<totfact> 0.28065484E+06</totfact>
</mgrwt>
</event>
<event>
 6    1  0.4187588E-002  0.1261130E+03  0.7546771E-02  0.1233340E+00
         21   -1    0    0  504  502  0.00000000000E+00  0.00000000000E+00  0.66917974413E+02  0.66917974413E+02  0.00000000000E+00 0.  1.
         21   -1    0    0  502  503 -0.00000000000E+00 -0.00000000000E+00 -0.22017474221E+03  0.22017474221E+03  0.00000000000E+00 0.  1.
         25    2    1    2    0    0  0.70235465834E+00 -0.16697218945E+02 -0.20056500343E+03  0.23691942112E+03  0.12500080431E+03 0.  0.
          5    1    3    3  501    0  0.21172765421E+02 -0.63120178017E+02 -0.15513087744E+03  0.16881363098E+03  0.10000000000E+00 0.  1.
         -5    1    3    3    0  501 -0.20470410763E+02  0.46422959072E+02 -0.45434125985E+02  0.68105790135E+02  0.10000000000E+00 0.  1.
         21    1    1    2  504  503 -0.70235465834E+00  0.16697218945E+02  0.47308235637E+02  0.50173295503E+02  0.00000000000E+00 0.  1.
<mgrwt>
<rscale>  1 0.12611301E+03</rscale>
<asrwt>0</asrwt>
<pdfrwt beam="1">  1       21 0.10295073E-01 0.12611301E+03</pdfrwt>
<pdfrwt beam="2">  1       21 0.33873037E-01 0.12611301E+03</pdfrwt>
<totfact> 0.65083216E+05</totfact>
</mgrwt>
</event>
<event>
 6    1  0.4187588E-002  0.1319781E+03  0.7546771E-02  0.1224550E+00
         21   -1    0    0  503  502  0.00000000000E+00  0.00000000000E+00  0.40202664344E+03  0.40202664344E+03  0.00000000000E+00 0.  1.
         21   -1    0    0  504  503 -0.00000000000E+00 -0.00000000000E+00 -0.70406029964E+02  0.70406029964E+02  0.00000000000E+00 0. -1.
         25    2    1    2    0    0  0.30606336342E+02 -0.29272101229E+02 -0.60498891267E+01  0.13211668485E+03  0.12499845409E+03 0.  0.
          5    1    3    3  501    0 -0.67441064084E+01 -0.67327443373E+02  0.22909884064E+02  0.71437667866E+02  0.10000000000E+00 0.  1.
         -5    1    3    3    0  501  0.37350442750E+02  0.38055342144E+02 -0.28959773190E+02  0.60679016987E+02  0.10000000000E+00 0.  1.
         21    1    1    2  504  502 -0.30606336342E+02  0.29272101229E+02  0.33767050261E+03  0.34031598855E+03  0.00000000000E+00 0.  1.
<mgrwt>
<rscale>  1 0.13197809E+03</rscale>
<asrwt>0</asrwt>
<pdfrwt beam="1">  1       21 0.61850251E-01 0.13197809E+03</pdfrwt>
<pdfrwt beam="2">  1       21 0.10831697E-01 0.13197809E+03</pdfrwt>
<totfact> 0.17418996E+05</totfact>
</mgrwt>
</event>
<event>
 6    1  0.4187588E-002  0.1277829E+03  0.7546771E-02  0.1230783E+00
         21   -1    0    0  503  502  0.00000000000E+00  0.00000000000E+00  0.16216159984E+03  0.16216159984E+03  0.00000000000E+00 0. -1.
         21   -1    0    0  504  503 -0.00000000000E+00 -0.00000000000E+00 -0.40436069113E+02  0.40436069113E+02  0.00000000000E+00 0. -1.
         25    2    1    2    0    0  0.15257683157E+02 -0.21692104093E+02  0.73111375295E+02  0.14722005268E+03  0.12500050576E+03 0.  0.
          5    1    3    3  501    0  0.62795005527E+02  0.16518503259E+02  0.25155890460E+02  0.69634061305E+02  0.10000000000E+00 0. -1.
         -5    1    3    3    0  501 -0.47537322370E+02 -0.38210607352E+02  0.47955484835E+02  0.77585991378E+02  0.10000000000E+00 0. -1.
         21    1    1    2  504  502 -0.15257683157E+02  0.21692104093E+02  0.48614155428E+02  0.55377616266E+02  0.00000000000E+00 0. -1.
<mgrwt>
<rscale>  1 0.12778290E+03</rscale>
<asrwt>0</asrwt>
<pdfrwt beam="1">  1       21 0.24947938E-01 0.12778290E+03</pdfrwt>
<pdfrwt beam="2">  1       21 0.62209338E-02 0.12778290E+03</pdfrwt>
<totfact> 0.27922957E+06</totfact>
</mgrwt>
</event>
<event>
 6    1  0.4187588E-002  0.1541841E+03  0.7546771E-02  0.1195424E+00
         21   -1    0    0  504  502  0.00000000000E+00  0.00000000000E+00  0.49513117715E+03  0.49513117715E+03  0.00000000000E+00 0.  1.
         21   -1    0    0  502  503 -0.00000000000E+00 -0.00000000000E+00 -0.67711882938E+02  0.67711882938E+02  0.00000000000E+00 0.  1.
         25    2    1    2    0    0  0.86206020232E+02  0.26794657592E+02  0.32285384687E+02  0.15752807386E+03  0.12499326538E+03 0.  0.
          5    1    3    3  501    0  0.11352636532E+03  0.14674434441E+02  0.13019617266E+01  0.11447829381E+03  0.10000000000E+00 0. -1.
         -5    1    3    3    0  501 -0.27320345086E+02  0.12120223150E+02  0.30983422960E+02  0.43049780059E+02  0.10000000000E+00 0. -1.
         21    1    1    2  504  503 -0.86206020232E+02 -0.26794657592E+02  0.39513390953E+03  0.40531498622E+03  0.00000000000E+00 0.  1.
<mgrwt>
<rscale>  1 0.15418414E+03</rscale>
<asrwt>0</asrwt>
<pdfrwt beam="1">  1       21 0.76174025E-01 0.15418414E+03</pdfrwt>
<pdfrwt beam="2">  1       21 0.10417213E-01 0.15418414E+03</pdfrwt>
<totfact> 0.11763061E+05</totfact>
</mgrwt>
</event>
<event>
 6    1  0.4187588E-002  0.1529183E+03  0.7546771E-02  0.1196932E+00
         21   -1    0    0  504  502  0.00000000000E+00  0.00000000000E+00  0.13952345044E+03  0.13952345044E+03  0.00000000000E+00 0.  1.
         21   -1    0    0  502  503 -0.00000000000E+00 -0.00000000000E+00 -0.15119915236E+03  0.15119915236E+03  0.00000000000E+00 0.  1.
         25    2    1    2    0    0  0.56666872047E+02 -0.67436949133E+02 -0.86025077054E+02  0.17545462772E+03  0.12500054404E+03 0.  0.
          5    1    3    3  501    0  0.85376580973E+02 -0.27679825925E+02 -0.17907220105E+02  0.91520554379E+02  0.10000000000E+00 0.  1.
         -5    1    3    3    0  501 -0.28709708926E+02 -0.39757123207E+02 -0.68117856949E+02  0.83934073341E+02  0.10000000000E+00 0.  1.
         21    1    1    2  504  503 -0.56666872047E+02  0.67436949133E+02  0.74349375134E+02  0.11526797508E+03  0.00000000000E+00 0.  1.
<mgrwt>
<rscale>  1 0.15291832E+03</rscale>
<asrwt>0</asrwt>
<pdfrwt beam="1">  1       21 0.21465146E-01 0.15291832E+03</pdfrwt>
<pdfrwt beam="2">  1       21 0.23261408E-01 0.15291832E+03</pdfrwt>
<totfact> 0.35405866E+05</totfact>
</mgrwt>
</event>
<event>
 6    1  0.4187588E-002  0.1324132E+03  0.7546771E-02  0.1223918E+00
         21   -1    0    0  504  502  0.00000000000E+00  0.00000000000E+00  0.11179215990E+02  0.11179215990E+02  0.00000000000E+00 0. -1.
         21   -1    0    0  502  503 -0.00000000000E+00 -0.00000000000E+00 -0.12595057571E+04  0.12595057571E+04  0.00000000000E+00 0. -1.
         25    2    1    2    0    0  0.32820984562E+02 -0.28832395077E+02 -0.11923440890E+04  0.11996739952E+04  0.12499897687E+03 0.  0.
          5    1    3    3  501    0  0.11328406464E+02  0.49707486778E+02 -0.46335811154E+03  0.46615439133E+03  0.10000000000E+00 0.  1.
         -5    1    3    3    0  501  0.21492578099E+02 -0.78539881854E+02 -0.72898597747E+03  0.73351960390E+03  0.10000000000E+00 0.  1.
         21    1    1    2  504  503 -0.32820984562E+02  0.28832395077E+02 -0.55982452134E+02  0.71010977887E+02  0.00000000000E+00 0. -1.
<mgrwt>
<rscale>  1 0.13241325E+03</rscale>
<asrwt>0</asrwt>
<pdfrwt beam="1">  1       21 0.17198802E-02 0.13241325E+03</pdfrwt>
<pdfrwt beam="2">  1       21 0.19377002E+00 0.13241325E+03</pdfrwt>
<totfact> 0.23842885E+05</totfact>
</mgrwt>
</event>
<event>
 6    1  0.4187588E-002  0.1329691E+03  0.7546771E-02  0.1223116E+00
         21   -1    0    0  504  502  0.00000000000E+00  0.00000000000E+00  0.22105551131E+03  0.22105551131E+03  0.00000000000E+00 0. -1.
         21   -1    0    0  502  503 -0.00000000000E+00 -0.00000000000E+00 -0.45281339855E+02  0.45281339855E+02  0.00000000000E+00 0. -1.
         25    2    1    2    0    0 -0.45331739694E+02  0.12741093114E+01  0.67866556865E+02  0.14928710420E+03  0.12499671980E+03 0.  0.
          5    1    3    3  501    0  0.40276478181E+00  0.54074267008E+02  0.57041488976E+02  0.78599809392E+02  0.10000000000E+00 0. -1.
         -5    1    3    3    0  501 -0.45734504476E+02 -0.52800157696E+02  0.10825067889E+02  0.70687294808E+02  0.10000000000E+00 0. -1.
         21    1    1    2  504  503  0.45331739694E+02 -0.12741093114E+01  0.10790761459E+03  0.11704974697E+03  0.00000000000E+00 0. -1.
<mgrwt>
<rscale>  1 0.13296906E+03</rscale>
<asrwt>0</asrwt>
<pdfrwt beam="1">  1       21 0.34008540E-01 0.13296906E+03</pdfrwt>
<pdfrwt beam="2">  1       21 0.69663601E-02 0.13296906E+03</pdfrwt>
<totfact> 0.12700388E+06</totfact>
</mgrwt>
</event>
<event>
 6    1  0.4187588E-002  0.1344532E+03  0.7546771E-02  0.1220994E+00
         21   -1    0    0  503  502  0.00000000000E+00  0.00000000000E+00  0.27761560521E+02  0.27761560521E+02  0.00000000000E+00 0.  1.
         21   -1    0    0  504  503 -0.00000000000E+00 -0.00000000000E+00 -0.50150887581E+03  0.50150887581E+03  0.00000000000E+00 0.  1.
         25    2    1    2    0    0 -0.45656183733E+02  0.19233306939E+02 -0.45793649033E+03  0.47726669229E+03  0.12499303652E+03 0.  0.
          5    1    3    3  501    0 -0.22940776698E+02  0.71629703989E+02 -0.21737966643E+03  0.23002396202E+03  0.10000000000E+00 0.  1.
         -5    1    3    3    0  501 -0.22715407035E+02 -0.52396397050E+02 -0.24055682390E+03  0.24724273026E+03  0.10000000000E+00 0.  1.
         21    1    1    2  504  502  0.45656183733E+02 -0.19233306939E+02 -0.15810824957E+02  0.52003744045E+02  0.00000000000E+00 0.  1.
<mgrwt>
<rscale>  1 0.13445321E+03</rscale>
<asrwt>0</asrwt>
<pdfrwt beam="1">  1       21 0.42710097E-02 0.13445321E+03</pdfrwt>
<pdfrwt beam="2">  1       21 0.77155204E-01 0.13445321E+03</pdfrwt>
<totfact> 0.52856876E+05</totfact>
</mgrwt>
</event>
<event>
 6    1  0.4187588E-002  0.1268163E+03  0.7546771E-02  0.1232258E+00
         21   -1    0    0  503  502  0.00000000000E+00  0.00000000000E+00  0.36528718243E+02  0.36528718243E+02  0.00000000000E+00 0.  1.
         21   -1    0    0  504  503 -0.00000000000E+00 -0.00000000000E+00 -0.37300492558E+03  0.37300492558E+03  0.00000000000E+00 0. -1.
         25    2    1    2    0    0  0.13272812551E+02  0.16794562837E+02 -0.35762367242E+03  0.37944311086E+03  0.12499663360E+03 0.  0.
          5    1    3    3  501    0 -0.77241997845E+01  0.44638844341E+02 -0.33460397840E+03  0.33765681105E+03  0.10000000000E+00 0. -1.
         -5    1    3    3    0  501  0.20997012336E+02 -0.27844281504E+02 -0.23019694024E+02  0.41786299817E+02  0.10000000000E+00 0. -1.
         21    1    1    2  504  502 -0.13272812551E+02 -0.16794562837E+02  0.21147465088E+02  0.30090532956E+02  0.00000000000E+00 0.  1.
<mgrwt>
<rscale>  1 0.12681634E+03</rscale>
<asrwt>0</asrwt>
<pdfrwt beam="1">  1       21 0.56198033E-02 0.12681634E+03</pdfrwt>
<pdfrwt beam="2">  1       21 0.57385369E-01 0.12681634E+03</pdfrwt>
<totfact> 0.63292988E+05</totfact>
</mgrwt>
</event>
<event>
 6    1  0.4187588E-002  0.1282866E+03  0.7546771E-02  0.1230021E+00
         21   -1    0    0  503  502  0.00000000000E+00  0.00000000000E+00  0.45310722157E+03  0.45310722157E+03  0.00000000000E+00 0. -1.
         21   -1    0    0  504  503 -0.00000000000E+00 -0.00000000000E+00 -0.13681832010E+02  0.13681832010E+02  0.00000000000E+00 0. -1.
         25    2    1    2    0    0  0.27693387208E+02  0.82474726970E+01  0.34715612809E+03  0.37010109615E+03  0.12498999798E+03 0.  0.
          5    1    3    3  501    0 -0.30816731929E+02  0.46602076376E+02  0.11905944582E+03  0.13151648615E+03  0.10000000000E+00 0. -1.
         -5    1    3    3    0  501  0.58510119137E+02 -0.38354603679E+02  0.22809668227E+03  0.23858461000E+03  0.10000000000E+00 0. -1.
         21    1    1    2  504  502 -0.27693387208E+02 -0.82474726970E+01  0.92269261463E+02  0.96687957429E+02  0.00000000000E+00 0. -1.
<mgrwt>
<rscale>  1 0.12828657E+03</rscale>
<asrwt>0</asrwt>
<pdfrwt beam="1">  1       21 0.69708792E-01 0.12828657E+03</pdfrwt>
<pdfrwt beam="2">  1       21 0.21048976E-02 0.12828657E+03</pdfrwt>
<totfact> 0.21101896E+06</totfact>
</mgrwt>
</event>
<event>
 6    1  0.4187588E-002  0.1291841E+03  0.7546771E-02  0.1228671E+00
         21   -1    0    0  504  502  0.00000000000E+00  0.00000000000E+00  0.27510002682E+03  0.27510002682E+03  0.00000000000E+00 0. -1.
         21   -1    0    0  502  503 -0.00000000000E+00 -0.00000000000E+00 -0.37032771047E+02  0.37032771047E+02  0.00000000000E+00 0. -1.
         25    2    1    2    0    0  0.23185175351E+02  0.22791153385E+02  0.82671435979E+02  0.15337244438E+03  0.12502620262E+03 0.  0.
          5    1    3    3  501    0  0.25008016800E+02  0.36172783913E+02 -0.21064824128E+02  0.48760722060E+02  0.10000000000E+00 0.  1.
         -5    1    3    3    0  501 -0.18228414495E+01 -0.13381630528E+02  0.10373626011E+03  0.10461172232E+03  0.10000000000E+00 0.  1.
         21    1    1    2  504  503 -0.23185175351E+02 -0.22791153385E+02  0.15539581979E+03  0.15876035348E+03  0.00000000000E+00 0. -1.
<mgrwt>
<rscale>  1 0.12918413E+03</rscale>
<asrwt>0</asrwt>
<pdfrwt beam="1">  1       21 0.42323080E-01 0.12918413E+03</pdfrwt>
<pdfrwt beam="2">  1       21 0.56973496E-02 0.12918413E+03</pdfrwt>
<totfact> 0.11576216E+06</totfact>
</mgrwt>
</event>
<event>
 6    1  0.4187588E-002  0.1374529E+03  0.7546771E-02  0.1216798E+00
         21   -1    0    0  504  502  0.00000000000E+00  0.00000000000E+00  0.21397612668E+03  0.21397612668E+03  0.00000000000E+00 0. -1.
         21   -1    0    0  502  503 -0.00000000000E+00 -0.00000000000E+00 -0.46021308814E+02  0.46021308814E+02  0.00000000000E+00 0. -1.
         25    2    1    2    0    0 -0.12230243799E+02 -0.55824792736E+02  0.93940911452E+02  0.16648783871E+03  0.12500927665E+03 0.  0.
          5    1    3    3  501    0 -0.60174608895E+02 -0.48000392421E+01  0.17551293252E+02  0.62865585397E+02  0.10000000000E+00 0. -1.
         -5    1    3    3    0  501  0.47944365097E+02 -0.51024753494E+02  0.76389618200E+02  0.10362225332E+03  0.10000000000E+00 0. -1.
         21    1    1    2  504  503  0.12230243799E+02  0.55824792736E+02  0.74013906418E+02  0.93509596784E+02  0.00000000000E+00 0. -1.
<mgrwt>
<rscale>  1 0.13745292E+03</rscale>
<asrwt>0</asrwt>
<pdfrwt beam="1">  1       21 0.32919404E-01 0.13745292E+03</pdfrwt>
<pdfrwt beam="2">  1       21 0.70802015E-02 0.13745292E+03</pdfrwt>
<totfact> 0.13169444E+06</totfact>
</mgrwt>
</event>
<event>
 6    1  0.4187588E-002  0.1387428E+03  0.7546771E-02  0.1215031E+00
         21   -1    0    0  504  502  0.00000000000E+00  0.00000000000E+00  0.10949005583E+03  0.10949005583E+03  0.00000000000E+00 0. -1.
         21   -1    0    0  502  503 -0.00000000000E+00 -0.00000000000E+00 -0.10696625359E+03  0.10696625359E+03  0.00000000000E+00 0. -1.
         25    2    1    2    0    0  0.10132576405E+02  0.59354037963E+02 -0.38029713665E+02  0.14386045155E+03  0.12499599783E+03 0.  0.
          5    1    3    3  501    0  0.19226397386E+02  0.10682161942E+02 -0.77486542292E+02  0.80547732287E+02  0.10000000000E+00 0. -1.
         -5    1    3    3    0  501 -0.90938209802E+01  0.48671876021E+02  0.39456828628E+02  0.63312719266E+02  0.10000000000E+00 0. -1.
         21    1    1    2  504  503 -0.10132576405E+02 -0.59354037963E+02  0.40553515902E+02  0.72595857865E+02  0.00000000000E+00 0. -1.
<mgrwt>
<rscale>  1 0.13874282E+03</rscale>
<asrwt>0</asrwt>
<pdfrwt beam="1">  1       21 0.16844624E-01 0.13874282E+03</pdfrwt>
<pdfrwt beam="2">  1       21 0.16456347E-01 0.13874282E+03</pdfrwt>
<totfact> 0.10518290E+06</totfact>
</mgrwt>
</event>
<event>
 6    1  0.4187588E-002  0.1269265E+03  0.7546771E-02  0.1232089E+00
         21   -1    0    0  503  502  0.00000000000E+00  0.00000000000E+00  0.70118023485E+01  0.70118023485E+01  0.00000000000E+00 0. -1.
         21   -1    0    0  504  503 -0.00000000000E+00 -0.00000000000E+00 -0.89369452155E+03  0.89369452155E+03  0.00000000000E+00 0. -1.
         25    2    1    2    0    0  0.12379001057E+02 -0.18200615271E+02 -0.83410559141E+03  0.84370758330E+03  0.12500338566E+03 0.  0.
          5    1    3    3  501    0  0.46732831261E+02  0.15082276420E+01 -0.12438782298E+03  0.13288556270E+03  0.10000000000E+00 0. -1.
         -5    1    3    3    0  501 -0.34353830204E+02 -0.19708842913E+02 -0.70971776844E+03  0.71082202060E+03  0.10000000000E+00 0. -1.
         21    1    1    2  504  502 -0.12379001057E+02  0.18200615271E+02 -0.52577127785E+02  0.56998740596E+02  0.00000000000E+00 0. -1.
<mgrwt>
<rscale>  1 0.12692655E+03</rscale>
<asrwt>0</asrwt>
<pdfrwt beam="1">  1       21 0.10787384E-02 0.12692655E+03</pdfrwt>
<pdfrwt beam="2">  1       21 0.13749151E+00 0.12692655E+03</pdfrwt>
<totfact> 0.12564527E+06</totfact>
</mgrwt>
</event>
<event>
 6    1  0.4187588E-002  0.1348173E+03  0.7546771E-02  0.1220478E+00
         21   -1    0    0  503  502  0.00000000000E+00  0.00000000000E+00  0.10755892077E+04  0.10755892077E+04  0.00000000000E+00 0.  1.
         21   -1    0    0  504  503 -0.00000000000E+00 -0.00000000000E+00 -0.29757770595E+02  0.29757770595E+02  0.00000000000E+00 0.  1.
         25    2    1    2    0    0  0.35368044293E+02  0.36049535200E+02  0.12727717937E+03  0.18540546279E+03  0.12500095079E+03 0.  0.
          5    1    3    3  501    0  0.62897188703E+02  0.33468788915E+02  0.13835218445E+03  0.15561989950E+03  0.10000000000E+00 0.  1.
         -5    1    3    3    0  501 -0.27529144411E+02  0.25807462847E+01 -0.11075005075E+02  0.29785563295E+02  0.10000000000E+00 0.  1.
         21    1    1    2  504  502 -0.35368044293E+02 -0.36049535200E+02  0.91855425772E+03  0.91994151549E+03  0.00000000000E+00 0.  1.
<mgrwt>
<rscale>  1 0.13481730E+03</rscale>
<asrwt>0</asrwt>
<pdfrwt beam="1">  1       21 0.16547523E+00 0.13481730E+03</pdfrwt>
<pdfrwt beam="2">  1       21 0.45781194E-02 0.13481730E+03</pdfrwt>
<totfact> 0.74145847E+04</totfact>
</mgrwt>
</event>
<event>
 6    1  0.4187588E-002  0.1262612E+03  0.7546771E-02  0.1233111E+00
         21   -1    0    0  503  502  0.00000000000E+00  0.00000000000E+00  0.34202997351E+02  0.34202997351E+02  0.00000000000E+00 0. -1.
         21   -1    0    0  504  503 -0.00000000000E+00 -0.00000000000E+00 -0.18929871780E+03  0.18929871780E+03  0.00000000000E+00 0. -1.
         25    2    1    2    0    0 -0.50633969576E+01  0.17024158393E+02 -0.16116323683E+03  0.20473273242E+03  0.12500577130E+03 0.  0.
          5    1    3    3  501    0  0.17942386972E+02  0.61314471971E+02 -0.13270059079E+03  0.14727813999E+03  0.10000000000E+00 0.  1.
         -5    1    3    3    0  501 -0.23005783930E+02 -0.44290313578E+02 -0.28462646045E+02  0.57454592427E+02  0.10000000000E+00 0.  1.
         21    1    1    2  504  502  0.50633969576E+01 -0.17024158393E+02  0.60675163859E+01  0.18768982733E+02  0.00000000000E+00 0. -1.
<mgrwt>
<rscale>  1 0.12626125E+03</rscale>
<asrwt>0</asrwt>
<pdfrwt beam="1">  1       21 0.52619995E-02 0.12626125E+03</pdfrwt>
<pdfrwt beam="2">  1       21 0.29122880E-01 0.12626125E+03</pdfrwt>
<totfact> 0.27586387E+06</totfact>
</mgrwt>
</event>
<event>
 6    1  0.4187588E-002  0.1261042E+03  0.7546771E-02  0.1233354E+00
         21   -1    0    0  504  502  0.00000000000E+00  0.00000000000E+00  0.14779502308E+03  0.14779502308E+03  0.00000000000E+00 0.  1.
         21   -1    0    0  502  503 -0.00000000000E+00 -0.00000000000E+00 -0.50475128334E+02  0.50475128334E+02  0.00000000000E+00 0. -1.
         25    2    1    2    0    0 -0.50578819698E+01 -0.15937383386E+02  0.30977790659E+02  0.12985336156E+03  0.12499075820E+03 0.  0.
          5    1    3    3  501    0  0.45650914438E+02  0.17933878960E+02  0.45789751190E+02  0.67099488207E+02  0.10000000000E+00 0.  1.
         -5    1    3    3    0  501 -0.50708796407E+02 -0.33871262346E+02 -0.14811960531E+02  0.62753873353E+02  0.10000000000E+00 0.  1.
         21    1    1    2  504  503  0.50578819698E+01  0.15937383386E+02  0.66342104082E+02  0.68416789849E+02  0.00000000000E+00 0.  1.
<mgrwt>
<rscale>  1 0.12610421E+03</rscale>
<asrwt>0</asrwt>
<pdfrwt beam="1">  1       21 0.22737696E-01 0.12610421E+03</pdfrwt>
<pdfrwt beam="2">  1       21 0.77654044E-02 0.12610421E+03</pdfrwt>
<totfact> 0.22744046E+06</totfact>
</mgrwt>
</event>
<event>
 6    1  0.4187588E-002  0.1259731E+03  0.7546771E-02  0.1233556E+00
         21   -1    0    0  504  502  0.00000000000E+00  0.00000000000E+00  0.75528380878E+03  0.75528380878E+03  0.00000000000E+00 0. -1.
         21   -1    0    0  502  503 -0.00000000000E+00 -0.00000000000E+00 -0.74962918628E+01  0.74962918628E+01  0.00000000000E+00 0. -1.
         25    2    1    2    0    0 -0.13450022916E+02  0.79583628345E+01  0.54404389168E+03  0.55843797704E+03  0.12499991786E+03 0.  0.
          5    1    3    3  501    0  0.60170200996E+01 -0.27233601303E+02  0.23866580739E+02  0.36708272187E+02  0.10000000000E+00 0. -1.
         -5    1    3    3    0  501 -0.19467043015E+02  0.35191964137E+02  0.52017731094E+03  0.52172970485E+03  0.10000000000E+00 0. -1.
         21    1    1    2  504  503  0.13450022916E+02 -0.79583628345E+01  0.20374362523E+03  0.20434212360E+03  0.00000000000E+00 0. -1.
<mgrwt>
<rscale>  1 0.12597308E+03</rscale>
<asrwt>0</asrwt>
<pdfrwt beam="1">  1       21 0.11619745E+00 0.12597308E+03</pdfrwt>
<pdfrwt beam="2">  1       21 0.11532763E-02 0.12597308E+03</pdfrwt>
<totfact> 0.17128313E+06</totfact>
</mgrwt>
</event>
<event>
 6    1  0.4187588E-002  0.1261089E+03  0.7546771E-02  0.1233346E+00
         21   -1    0    0  503  502  0.00000000000E+00  0.00000000000E+00  0.19005499791E+02  0.19005499791E+02  0.00000000000E+00 0.  1.
         21   -1    0    0  504  503 -0.00000000000E+00 -0.00000000000E+00 -0.76810179094E+03  0.76810179094E+03  0.00000000000E+00 0.  1.
         25    2    1    2    0    0  0.59562761617E+01 -0.15597287875E+02 -0.75783961348E+03  0.76826058545E+03  0.12499877910E+03 0.  0.
          5    1    3    3  501    0  0.34618553848E+02  0.37376801121E+02 -0.17350400920E+03  0.18082898203E+03  0.10000000000E+00 0. -1.
         -5    1    3    3    0  501 -0.28662277687E+02 -0.52974088996E+02 -0.58433560428E+03  0.58743160342E+03  0.10000000000E+00 0. -1.
         21    1    1    2  504  502 -0.59562761617E+01  0.15597287875E+02  0.87433223290E+01  0.18846705286E+02  0.00000000000E+00 0.  1.
<mgrwt>
<rscale>  1 0.12610887E+03</rscale>
<asrwt>0</asrwt>
<pdfrwt beam="1">  1       21 0.29239229E-02 0.12610887E+03</pdfrwt>
<pdfrwt beam="2">  1       21 0.11816951E+00 0.12610887E+03</pdfrwt>
<totfact> 0.36837523E+05</totfact>
</mgrwt>
</event>
<event>
 6    1  0.4187588E-002  0.1273953E+03  0.7546771E-02  0.1231373E+00
         21   -1    0    0  504  502  0.00000000000E+00  0.00000000000E+00  0.14478848984E+02  0.14478848984E+02  0.00000000000E+00 0. -1.
         21   -1    0    0  502  503 -0.00000000000E+00 -0.00000000000E+00 -0.41015271007E+03  0.41015271007E+03  0.00000000000E+00 0. -1.
         25    2    1    2    0    0 -0.22316496078E+02 -0.10344725707E+02 -0.35418091536E+03  0.37639563994E+03  0.12499807046E+03 0.  0.
          5    1    3    3  501    0 -0.35047228569E+02 -0.47386458285E+02 -0.31685556195E+03  0.32229061699E+03  0.10000000000E+00 0.  1.
         -5    1    3    3    0  501  0.12730732491E+02  0.37041732578E+02 -0.37325353404E+02  0.54105022954E+02  0.10000000000E+00 0.  1.
         21    1    1    2  504  503  0.22316496078E+02  0.10344725707E+02 -0.41492945728E+02  0.48235919109E+02  0.00000000000E+00 0. -1.
<mgrwt>
<rscale>  1 0.12739528E+03</rscale>
<asrwt>0</asrwt>
<pdfrwt beam="1">  1       21 0.22275153E-02 0.12739528E+03</pdfrwt>
<pdfrwt beam="2">  1       21 0.63100416E-01 0.12739528E+03</pdfrwt>
<totfact> 0.23870703E+06</totfact>
</mgrwt>
</event>
<event>
 6    1  0.4187588E-002  0.1273625E+03  0.7546771E-02  0.1231423E+00
         21   -1    0    0  503  502  0.00000000000E+00  0.00000000000E+00  0.12551889787E+02  0.12551889787E+02  0.00000000000E+00 0.  1.
         21   -1    0    0  504  503 -0.00000000000E+00 -0.00000000000E+00 -0.18084480151E+04  0.18084480151E+04  0.00000000000E+00 0.  1.
         25    2    1    2    0    0  0.16178136660E+02 -0.18348213024E+02 -0.17916511364E+04  0.17961723203E+04  0.12499128273E+03 0.  0.
          5    1    3    3  501    0  0.22426128878E+02 -0.54023836378E+02 -0.42115254940E+03  0.42519523283E+03  0.10000000000E+00 0. -1.
         -5    1    3    3    0  501 -0.62479922176E+01  0.35675623354E+02 -0.13704985870E+04  0.13709770875E+04  0.10000000000E+00 0. -1.
         21    1    1    2  504  502 -0.16178136660E+02  0.18348213024E+02 -0.42449889928E+01  0.24827584629E+02  0.00000000000E+00 0.  1.
<mgrwt>
<rscale>  1 0.12736251E+03</rscale>
<asrwt>0</asrwt>
<pdfrwt beam="1">  1       21 0.19310602E-02 0.12736251E+03</pdfrwt>
<pdfrwt beam="2">  1       21 0.27822274E+00 0.12736251E+03</pdfrwt>
<totfact> 0.63098940E+04</totfact>
</mgrwt>
</event>
<event>
 6    1  0.4187588E-002  0.1260104E+03  0.7546771E-02  0.1233499E+00
         21   -1    0    0  504  502  0.00000000000E+00  0.00000000000E+00  0.12072759144E+03  0.12072759144E+03  0.00000000000E+00 0. -1.
         21   -1    0    0  502  503 -0.00000000000E+00 -0.00000000000E+00 -0.41778501995E+02  0.41778501995E+02  0.00000000000E+00 0. -1.
         25    2    1    2    0    0  0.11524218252E+02  0.10947690111E+02  0.67818638484E+02  0.14310128827E+03  0.12500380575E+03 0.  0.
          5    1    3    3  501    0 -0.19028570814E+02 -0.11217871660E+02 -0.30572819333E+02  0.37717826472E+02  0.10000000000E+00 0.  1.
         -5    1    3    3    0  501  0.30552789065E+02  0.22165561771E+02  0.98391457817E+02  0.10538346179E+03  0.10000000000E+00 0.  1.
         21    1    1    2  504  503 -0.11524218252E+02 -0.10947690111E+02  0.11130450961E+02  0.19404805170E+02  0.00000000000E+00 0. -1.
<mgrwt>
<rscale>  1 0.12601036E+03</rscale>
<asrwt>0</asrwt>
<pdfrwt beam="1">  1       21 0.18573475E-01 0.12601036E+03</pdfrwt>
<pdfrwt beam="2">  1       21 0.64274619E-02 0.12601036E+03</pdfrwt>
<totfact> 0.45719499E+06</totfact>
</mgrwt>
</event>
<event>
 6    1  0.4187588E-002  0.1477836E+03  0.7546771E-02  0.1203223E+00
         21   -1    0    0  503  502  0.00000000000E+00  0.00000000000E+00  0.84928024924E+03  0.84928024924E+03  0.00000000000E+00 0. -1.
         21   -1    0    0  504  503 -0.00000000000E+00 -0.00000000000E+00 -0.30574107674E+02  0.30574107674E+02  0.00000000000E+00 0.  1.
         25    2    1    2    0    0  0.65080461732E+02 -0.44515555744E+02  0.16538809494E+03  0.22179541483E+03  0.12499153128E+03 0.  0.
          5    1    3    3  501    0  0.94441726355E+02 -0.49725729516E+02  0.15867019479E+03  0.19122794923E+03  0.10000000000E+00 0.  1.
         -5    1    3    3    0  501 -0.29361264623E+02  0.52101737719E+01  0.67179001519E+01  0.30567465604E+02  0.10000000000E+00 0.  1.
         21    1    1    2  504  502 -0.65080461732E+02  0.44515555744E+02  0.65331804662E+03  0.65805894208E+03  0.00000000000E+00 0. -1.
<mgrwt>
<rscale>  1 0.14778357E+03</rscale>
<asrwt>0</asrwt>
<pdfrwt beam="1">  1       21 0.13065848E+00 0.14778357E+03</pdfrwt>
<pdfrwt beam="2">  1       21 0.47037095E-02 0.14778357E+03</pdfrwt>
<totfact> 0.12975189E+05</totfact>
</mgrwt>
</event>
<event>
 6    1  0.4187588E-002  0.1292823E+03  0.7546771E-02  0.1228525E+00
         21   -1    0    0  503  502  0.00000000000E+00  0.00000000000E+00  0.25797557217E+03  0.25797557217E+03  0.00000000000E+00 0.  1.
         21   -1    0    0  504  503 -0.00000000000E+00 -0.00000000000E+00 -0.35076352829E+02  0.35076352829E+02  0.00000000000E+00 0.  1.
         25    2    1    2    0    0 -0.62445478040E+01  0.32407406553E+02  0.93603685693E+02  0.15961066677E+03  0.12499872237E+03 0.  0.
          5    1    3    3  501    0  0.39420979677E+02  0.54021603605E+02  0.19023311436E+02  0.69528725522E+02  0.10000000000E+00 0. -1.
         -5    1    3    3    0  501 -0.45665527481E+02 -0.21614197053E+02  0.74580374258E+02  0.90081941246E+02  0.10000000000E+00 0. -1.
         21    1    1    2  504  502  0.62445478040E+01 -0.32407406553E+02  0.12929553365E+03  0.13344125823E+03  0.00000000000E+00 0.  1.
<mgrwt>
<rscale>  1 0.12928231E+03</rscale>
<asrwt>0</asrwt>
<pdfrwt beam="1">  1       21 0.39688548E-01 0.12928231E+03</pdfrwt>
<pdfrwt beam="2">  1       21 0.53963621E-02 0.12928231E+03</pdfrwt>
<totfact> 0.14433381E+06</totfact>
</mgrwt>
</event>
<event>
 6    1  0.4187588E-002  0.1392404E+03  0.7546771E-02  0.1214355E+00
         21   -1    0    0  504  502  0.00000000000E+00  0.00000000000E+00  0.51926086627E+03  0.51926086627E+03  0.00000000000E+00 0.  1.
         21   -1    0    0  502  503 -0.00000000000E+00 -0.00000000000E+00 -0.20004030350E+02  0.20004030350E+02  0.00000000000E+00 0.  1.
         25    2    1    2    0    0  0.29999765416E+02  0.53510273889E+02  0.38781738245E+03  0.41205606388E+03  0.12499816924E+03 0.  0.
          5    1    3    3  501    0  0.55780236807E+02 -0.11158167078E+02  0.26352350936E+03  0.26959337807E+03  0.10000000000E+00 0.  1.
         -5    1    3    3    0  501 -0.25780471391E+02  0.64668440968E+02  0.12429387309E+03  0.14246268582E+03  0.10000000000E+00 0.  1.
         21    1    1    2  504  503 -0.29999765416E+02 -0.53510273889E+02  0.11143945347E+03  0.12720883273E+03  0.00000000000E+00 0.  1.
<mgrwt>
<rscale>  1 0.13924036E+03</rscale>
<asrwt>0</asrwt>
<pdfrwt beam="1">  1       21 0.79886277E-01 0.13924036E+03</pdfrwt>
<pdfrwt beam="2">  1       21 0.30775435E-02 0.13924036E+03</pdfrwt>
<totfact> 0.84131624E+05</totfact>
</mgrwt>
</event>
<event>
 6    1  0.4187588E-002  0.1275115E+03  0.7546771E-02  0.1231196E+00
         21   -1    0    0  503  502  0.00000000000E+00  0.00000000000E+00  0.32453153538E+02  0.32453153538E+02  0.00000000000E+00 0. -1.
         21   -1    0    0  504  503 -0.00000000000E+00 -0.00000000000E+00 -0.19021222322E+03  0.19021222322E+03  0.00000000000E+00 0. -1.
         25    2    1    2    0    0  0.19213597056E+02 -0.16270537176E+02 -0.14875477641E+03  0.19592645402E+03  0.12500119675E+03 0.  0.
          5    1    3    3  501    0  0.14074296364E+02 -0.38999727621E+02  0.37690847807E+01  0.41632686350E+02  0.10000000000E+00 0.  1.
         -5    1    3    3    0  501  0.51393006915E+01  0.22729190445E+02 -0.15252386119E+03  0.15429376767E+03  0.10000000000E+00 0.  1.
         21    1    1    2  504  502 -0.19213597056E+02  0.16270537176E+02 -0.90042932740E+01  0.26738922738E+02  0.00000000000E+00 0. -1.
<mgrwt>
<rscale>  1 0.12751154E+03</rscale>
<asrwt>0</asrwt>
<pdfrwt beam="1">  1       21 0.49927930E-02 0.12751154E+03</pdfrwt>
<pdfrwt beam="2">  1       21 0.29263418E-01 0.12751154E+03</pdfrwt>
<totfact> 0.29865496E+06</totfact>
</mgrwt>
</event>
<event>
 6    1  0.4187588E-002  0.1756625E+03  0.7546771E-02  0.1172068E+00
         21   -1    0    0  503  502  0.00000000000E+00  0.00000000000E+00  0.56235101717E+03  0.56235101717E+03  0.00000000000E+00 0. -1.
         21   -1    0    0  504  503 -0.00000000000E+00 -0.00000000000E+00 -0.55049265303E+02  0.55049265303E+02  0.00000000000E+00 0.  1.
         25    2    1    2    0    0 -0.17595206629E+02 -0.12215634880E+03  0.12480257567E+03  0.21548314594E+03  0.12500215375E+03 0.  0.
          5    1    3    3  501    0  0.54226462725E+02 -0.57284803333E+02  0.55723477952E+02  0.96577295197E+02  0.10000000000E+00 0. -1.
         -5    1    3    3    0  501 -0.71821669353E+02 -0.64871545462E+02  0.69079097719E+02  0.11890585074E+03  0.10000000000E+00 0. -1.
         21    1    1    2  504  502  0.17595206629E+02  0.12215634880E+03  0.38249917620E+03  0.40191713653E+03  0.00000000000E+00 0. -1.
<mgrwt>
<rscale>  1 0.17566247E+03</rscale>
<asrwt>0</asrwt>
<pdfrwt beam="1">  1       21 0.86515537E-01 0.17566247E+03</pdfrwt>
<pdfrwt beam="2">  1       21 0.84691181E-02 0.17566247E+03</pdfrwt>
<totfact> 0.12581857E+05</totfact>
</mgrwt>
</event>
<event>
 6    1  0.4187588E-002  0.1488136E+03  0.7546771E-02  0.1201939E+00
         21   -1    0    0  504  502  0.00000000000E+00  0.00000000000E+00  0.10454094481E+03  0.10454094481E+03  0.00000000000E+00 0. -1.
         21   -1    0    0  502  503 -0.00000000000E+00 -0.00000000000E+00 -0.13540097718E+03  0.13540097718E+03  0.00000000000E+00 0. -1.
         25    2    1    2    0    0 -0.81580998142E+01 -0.80335673721E+02  0.10563361081E+02  0.14918800973E+03  0.12500041033E+03 0.  0.
          5    1    3    3  501    0 -0.54990908790E+02 -0.38189877566E+02 -0.30926739676E+02  0.73749169657E+02  0.10000000000E+00 0. -1.
         -5    1    3    3    0  501  0.46832808976E+02 -0.42145796155E+02  0.41490100757E+02  0.75438840069E+02  0.10000000000E+00 0. -1.
         21    1    1    2  504  503  0.81580998142E+01  0.80335673721E+02 -0.41423393450E+02  0.90753912256E+02  0.00000000000E+00 0. -1.
<mgrwt>
<rscale>  1 0.14881357E+03</rscale>
<asrwt>0</asrwt>
<pdfrwt beam="1">  1       21 0.16083222E-01 0.14881357E+03</pdfrwt>
<pdfrwt beam="2">  1       21 0.20830919E-01 0.14881357E+03</pdfrwt>
<totfact> 0.74157138E+05</totfact>
</mgrwt>
</event>
<event>
 6    1  0.4187588E-002  0.1261495E+03  0.7546771E-02  0.1233284E+00
         21   -1    0    0  503  502  0.00000000000E+00  0.00000000000E+00  0.19768309450E+02  0.19768309450E+02  0.00000000000E+00 0. -1.
         21   -1    0    0  504  503 -0.00000000000E+00 -0.00000000000E+00 -0.26276971602E+03  0.26276971602E+03  0.00000000000E+00 0. -1.
         25    2    1    2    0    0  0.38935282112E+00 -0.16985200951E+02 -0.22375419635E+03  0.25686500951E+03  0.12500017633E+03 0.  0.
          5    1    3    3  501    0 -0.24253526642E+02  0.49093736450E+02 -0.83076869220E+02  0.99499772425E+02  0.10000000000E+00 0. -1.
         -5    1    3    3    0  501  0.24642879463E+02 -0.66078937401E+02 -0.14067732713E+03  0.15736523709E+03  0.10000000000E+00 0. -1.
         21    1    1    2  504  502 -0.38935282112E+00  0.16985200951E+02 -0.19247210221E+02  0.25673015956E+02  0.00000000000E+00 0. -1.
<mgrwt>
<rscale>  1 0.12614949E+03</rscale>
<asrwt>0</asrwt>
<pdfrwt beam="1">  1       21 0.30412785E-02 0.12614949E+03</pdfrwt>
<pdfrwt beam="2">  1       21 0.40426109E-01 0.12614949E+03</pdfrwt>
<totfact> 0.36062768E+06</totfact>
</mgrwt>
</event>
<event>
 6    1  0.4187588E-002  0.1262412E+03  0.7546771E-02  0.1233142E+00
         21   -1    0    0  503  502  0.00000000000E+00  0.00000000000E+00  0.17192651624E+03  0.17192651624E+03  0.00000000000E+00 0.  1.
         21   -1    0    0  504  503 -0.00000000000E+00 -0.00000000000E+00 -0.30131378701E+02  0.30131378701E+02  0.00000000000E+00 0.  1.
         25    2    1    2    0    0  0.36908760264E+01 -0.17291463772E+02  0.12305744876E+03  0.17629516476E+03  0.12499692852E+03 0.  0.
          5    1    3    3  501    0 -0.12041155863E+02 -0.35401614928E+02 -0.11885126488E+02  0.39236845001E+02  0.10000000000E+00 0.  1.
         -5    1    3    3    0  501  0.15732031889E+02  0.18110151156E+02  0.13494257525E+03  0.13705831976E+03  0.10000000000E+00 0.  1.
         21    1    1    2  504  502 -0.36908760264E+01  0.17291463772E+02  0.18737688776E+02  0.25762730172E+02  0.00000000000E+00 0.  1.
<mgrwt>
<rscale>  1 0.12624124E+03</rscale>
<asrwt>0</asrwt>
<pdfrwt beam="1">  1       21 0.26450233E-01 0.12624124E+03</pdfrwt>
<pdfrwt beam="2">  1       21 0.46355968E-02 0.12624124E+03</pdfrwt>
<totfact> 0.41012520E+06</totfact>
</mgrwt>
</event>
<event>
 6    1  0.4187588E-002  0.1271402E+03  0.7546771E-02  0.1231762E+00
         21   -1    0    0  504  502  0.00000000000E+00  0.00000000000E+00  0.44466989075E+02  0.44466989075E+02  0.00000000000E+00 0. -1.
         21   -1    0    0  502  503 -0.00000000000E+00 -0.00000000000E+00 -0.46110996839E+03  0.46110996839E+03  0.00000000000E+00 0. -1.
         25    2    1    2    0    0 -0.11460614297E+02 -0.20228716135E+02 -0.44848057104E+03  0.46615388193E+03  0.12499628955E+03 0.  0.
          5    1    3    3  501    0  0.48939412909E+02 -0.36871009485E+02 -0.16979441862E+03  0.18051230448E+03  0.10000000000E+00 0.  1.
         -5    1    3    3    0  501 -0.60400027206E+02  0.16642293350E+02 -0.27868615243E+03  0.28564157745E+03  0.10000000000E+00 0.  1.
         21    1    1    2  504  503  0.11460614297E+02  0.20228716135E+02  0.31837591734E+02  0.39423075526E+02  0.00000000000E+00 0. -1.
<mgrwt>
<rscale>  1 0.12714016E+03</rscale>
<asrwt>0</asrwt>
<pdfrwt beam="1">  1       21 0.68410751E-02 0.12714016E+03</pdfrwt>
<pdfrwt beam="2">  1       21 0.70939997E-01 0.12714016E+03</pdfrwt>
<totfact> 0.28757698E+05</totfact>
</mgrwt>
</event>
<event>
 6    1  0.4187588E-002  0.1265950E+03  0.7546771E-02  0.1232597E+00
         21   -1    0    0  503  502  0.00000000000E+00  0.00000000000E+00  0.30750575759E+03  0.30750575759E+03  0.00000000000E+00 0. -1.
         21   -1    0    0  504  503 -0.00000000000E+00 -0.00000000000E+00 -0.23840367455E+02  0.23840367455E+02  0.00000000000E+00 0. -1.
         25    2    1    2    0    0  0.15838175423E+02  0.12221547592E+02  0.15039768419E+03  0.19658524247E+03  0.12500432040E+03 0.  0.
          5    1    3    3  501    0 -0.21251352628E+02  0.35389912815E+00 -0.15418237010E+02  0.26257899109E+02  0.10000000000E+00 0. -1.
         -5    1    3    3    0  501  0.37089528051E+02  0.11867648464E+02  0.16581592120E+03  0.17032734336E+03  0.10000000000E+00 0. -1.
         21    1    1    2  504  502 -0.15838175423E+02 -0.12221547592E+02  0.13326770595E+03  0.13476088258E+03  0.00000000000E+00 0. -1.
<mgrwt>
<rscale>  1 0.12659500E+03</rscale>
<asrwt>0</asrwt>
<pdfrwt beam="1">  1       21 0.47308575E-01 0.12659500E+03</pdfrwt>
<pdfrwt beam="2">  1       21 0.36677491E-02 0.12659500E+03</pdfrwt>
<totfact> 0.19276136E+06</totfact>
</mgrwt>
</event>
<event>
 6    1  0.4187588E-002  0.1304699E+03  0.7546771E-02  0.1226760E+00
         21   -1    0    0  504  502  0.00000000000E+00  0.00000000000E+00  0.63742147816E+02  0.63742147816E+02  0.00000000000E+00 0. -1.
         21   -1    0    0  502  503 -0.00000000000E+00 -0.00000000000E+00 -0.64942793329E+03  0.64942793329E+03  0.00000000000E+00 0. -1.
         25    2    1    2    0    0  0.68564034319E+01 -0.36742638355E+02 -0.63669911214E+03  0.64992934076E+03  0.12500142736E+03 0.  0.
          5    1    3    3  501    0 -0.80234628484E+01 -0.56430601336E+01  0.22388330351E+01  0.10061931083E+02  0.10000000000E+00 0.  1.
         -5    1    3    3    0  501  0.14879866280E+02 -0.31099578221E+02 -0.63893794518E+03  0.63986740968E+03  0.10000000000E+00 0.  1.
         21    1    1    2  504  503 -0.68564034319E+01  0.36742638355E+02  0.51013326668E+02  0.63240740342E+02  0.00000000000E+00 0. -1.
<mgrwt>
<rscale>  1 0.13046988E+03</rscale>
<asrwt>0</asrwt>
<pdfrwt beam="1">  1       21 0.98064846E-02 0.13046988E+03</pdfrwt>
<pdfrwt beam="2">  1       21 0.99911986E-01 0.13046988E+03</pdfrwt>
<totfact> 0.71177512E+04</totfact>
</mgrwt>
</event>
<event>
 6    1  0.4187588E-002  0.1787890E+03  0.7546771E-02  0.1168980E+00
         21   -1    0    0  503  502  0.00000000000E+00  0.00000000000E+00  0.29163766026E+03  0.29163766026E+03  0.00000000000E+00 0.  1.
         21   -1    0    0  504  503 -0.00000000000E+00 -0.00000000000E+00 -0.13294088308E+03  0.13294088308E+03  0.00000000000E+00 0.  1.
         25    2    1    2    0    0 -0.11949521815E+03 -0.45398200134E+02 -0.44751921907E+02  0.18430478927E+03  0.12500166838E+03 0.  0.
          5    1    3    3  501    0 -0.11627995871E+03 -0.39914062117E+02  0.15326057408E+02  0.12389132006E+03  0.10000000000E+00 0.  1.
         -5    1    3    3    0  501 -0.32152594457E+01 -0.54841380174E+01 -0.60077979315E+02  0.60413469208E+02  0.10000000000E+00 0.  1.
         21    1    1    2  504  502  0.11949521815E+03  0.45398200134E+02  0.20344869909E+03  0.24027375408E+03  0.00000000000E+00 0.  1.
<mgrwt>
<rscale>  1 0.17878904E+03</rscale>
<asrwt>0</asrwt>
<pdfrwt beam="1">  1       21 0.44867332E-01 0.17878904E+03</pdfrwt>
<pdfrwt beam="2">  1       21 0.20452444E-01 0.17878904E+03</pdfrwt>
<totfact> 0.10608270E+05</totfact>
</mgrwt>
</event>
<event>
 6    1  0.4187588E-002  0.1263426E+03  0.7546771E-02  0.1232986E+00
         21   -1    0    0  503  502  0.00000000000E+00  0.00000000000E+00  0.88446082465E+02  0.88446082465E+02  0.00000000000E+00 0. -1.
         21   -1    0    0  504  503 -0.00000000000E+00 -0.00000000000E+00 -0.37995701852E+03  0.37995701852E+03  0.00000000000E+00 0. -1.
         25    2    1    2    0    0 -0.24256048312E+01  0.18158280172E+02 -0.36834751385E+03  0.38941280800E+03  0.12500734929E+03 0.  0.
          5    1    3    3  501    0 -0.38687459335E+02 -0.41068261369E+02 -0.18205019643E+03  0.19059277432E+03  0.10000000000E+00 0. -1.
         -5    1    3    3    0  501  0.36261854504E+02  0.59226541541E+02 -0.18629731742E+03  0.19882003368E+03  0.10000000000E+00 0. -1.
         21    1    1    2  504  502  0.24256048312E+01 -0.18158280172E+02  0.76836577799E+02  0.78990292983E+02  0.00000000000E+00 0. -1.
<mgrwt>
<rscale>  1 0.12634257E+03</rscale>
<asrwt>0</asrwt>
<pdfrwt beam="1">  1       21 0.13607090E-01 0.12634257E+03</pdfrwt>
<pdfrwt beam="2">  1       21 0.58454926E-01 0.12634257E+03</pdfrwt>
<totfact> 0.13129125E+05</totfact>
</mgrwt>
</event>
<event>
 6    1  0.4187588E-002  0.1266320E+03  0.7546771E-02  0.1232541E+00
         21   -1    0    0  504  502  0.00000000000E+00  0.00000000000E+00  0.49008114864E+02  0.49008114864E+02  0.00000000000E+00 0.  1.
         21   -1    0    0  502  503 -0.00000000000E+00 -0.00000000000E+00 -0.11122707183E+03  0.11122707183E+03  0.00000000000E+00 0.  1.
         25    2    1    2    0    0  0.75357441468E+01  0.18806659934E+02 -0.59070127723E+02  0.13973169862E+03  0.12500075884E+03 0.  0.
          5    1    3    3  501    0 -0.19604606459E+02  0.44166089739E+02  0.20057749980E+02  0.52319283361E+02  0.10000000000E+00 0.  1.
         -5    1    3    3    0  501  0.27140350605E+02 -0.25359429805E+02 -0.79127877703E+02  0.87412415255E+02  0.10000000000E+00 0.  1.
         21    1    1    2  504  503 -0.75357441468E+01 -0.18806659934E+02 -0.31488292430E+01  0.20503488076E+02  0.00000000000E+00 0.  1.
<mgrwt>
<rscale>  1 0.12663202E+03</rscale>
<asrwt>0</asrwt>
<pdfrwt beam="1">  1       21 0.75397100E-02 0.12663202E+03</pdfrwt>
<pdfrwt beam="2">  1       21 0.17111857E-01 0.12663202E+03</pdfrwt>
<totfact> 0.40438086E+06</totfact>
</mgrwt>
</event>
<event>
 6    1  0.4187588E-002  0.1282679E+03  0.7546771E-02  0.1230049E+00
         21   -1    0    0  503  502  0.00000000000E+00  0.00000000000E+00  0.10750528813E+04  0.10750528813E+04  0.00000000000E+00 0.  1.
         21   -1    0    0  504  503 -0.00000000000E+00 -0.00000000000E+00 -0.96166412494E+01  0.96166412494E+01  0.00000000000E+00 0.  1.
         25    2    1    2    0    0  0.25751846526E+02 -0.12958196287E+02  0.43355903311E+03  0.45213503567E+03  0.12498633058E+03 0.  0.
          5    1    3    3  501    0 -0.21698527515E+02 -0.37123031268E+02  0.35273707636E+03  0.35534828068E+03  0.10000000000E+00 0.  1.
         -5    1    3    3    0  501  0.47450374041E+02  0.24164834981E+02  0.80821956755E+02  0.96786754982E+02  0.10000000000E+00 0.  1.
         21    1    1    2  504  502 -0.25751846526E+02  0.12958196287E+02  0.63187720691E+03  0.63253448685E+03  0.00000000000E+00 0.  1.
<mgrwt>
<rscale>  1 0.12826790E+03</rscale>
<asrwt>0</asrwt>
<pdfrwt beam="1">  1       21 0.16539266E+00 0.12826790E+03</pdfrwt>
<pdfrwt beam="2">  1       21 0.14794841E-02 0.12826790E+03</pdfrwt>
<totfact> 0.47073132E+05</totfact>
</mgrwt>
</event>
<event>
 6    1  0.4187588E-002  0.1265484E+03  0.7546771E-02  0.1232669E+00
         21   -1    0    0  503  502  0.00000000000E+00  0.00000000000E+00  0.11395170080E+04  0.11395170080E+04  0.00000000000E+00 0.  1.
         21   -1    0    0  504  503 -0.00000000000E+00 -0.00000000000E+00 -0.40672126524E+02  0.40672126524E+02  0.00000000000E+00 0.  1.
         25    2    1    2    0    0  0.97467296272E+01  0.17152532300E+02  0.58084662827E+02  0.13924195007E+03  0.12500113800E+03 0.  0.
          5    1    3    3  501    0 -0.36389373303E+02  0.15275003244E+02  0.79185047845E+02  0.88474821365E+02  0.10000000000E+00 0.  1.
         -5    1    3    3    0  501  0.46136102930E+02  0.18775290566E+01 -0.21100385018E+02  0.50767128704E+02  0.10000000000E+00 0.  1.
         21    1    1    2  504  502 -0.97467296272E+01 -0.17152532300E+02  0.10407602187E+04  0.10409471845E+04  0.00000000000E+00 0.  1.
<mgrwt>
<rscale>  1 0.12654838E+03</rscale>
<asrwt>0</asrwt>
<pdfrwt beam="1">  1       21 0.17531028E+00 0.12654838E+03</pdfrwt>
<pdfrwt beam="2">  1       21 0.62572511E-02 0.12654838E+03</pdfrwt>
<totfact> 0.37670077E+04</totfact>
</mgrwt>
</event>
<event>
 6    1  0.4187588E-002  0.1302427E+03  0.7546771E-02  0.1227096E+00
         21   -1    0    0  504  502  0.00000000000E+00  0.00000000000E+00  0.12606208481E+03  0.12606208481E+03  0.00000000000E+00 0. -1.
         21   -1    0    0  502  503 -0.00000000000E+00 -0.00000000000E+00 -0.74662927372E+02  0.74662927372E+02  0.00000000000E+00 0. -1.
         25    2    1    2    0    0  0.94133401865E+01 -0.35430252236E+02  0.81199389257E+02  0.15348130823E+03  0.12497702754E+03 0.  0.
          5    1    3    3  501    0 -0.44539495015E+02 -0.45751185158E+01  0.79575972734E+02  0.91307413512E+02  0.10000000000E+00 0. -1.
         -5    1    3    3    0  501  0.53952835201E+02 -0.30855133720E+02  0.16234165227E+01  0.62173894717E+02  0.10000000000E+00 0. -1.
         21    1    1    2  504  503 -0.94133401865E+01  0.35430252236E+02 -0.29800231817E+02  0.47243703955E+02  0.00000000000E+00 0. -1.
<mgrwt>
<rscale>  1 0.13024274E+03</rscale>
<asrwt>0</asrwt>
<pdfrwt beam="1">  1       21 0.19394167E-01 0.13024274E+03</pdfrwt>
<pdfrwt beam="2">  1       21 0.11486604E-01 0.13024274E+03</pdfrwt>
<totfact> 0.15461141E+06</totfact>
</mgrwt>
</event>
<event>
 6    1  0.4187588E-002  0.1272091E+03  0.7546771E-02  0.1231657E+00
         21   -1    0    0  503  502  0.00000000000E+00  0.00000000000E+00  0.20611128120E+03  0.20611128120E+03  0.00000000000E+00 0.  1.
         21   -1    0    0  504  503 -0.00000000000E+00 -0.00000000000E+00 -0.27620691657E+02  0.27620691657E+02  0.00000000000E+00 0.  1.
         25    2    1    2    0    0 -0.23250007627E+02  0.40059537435E+01  0.15359804151E+03  0.19943547934E+03  0.12500216615E+03 0.  0.
          5    1    3    3  501    0  0.22499416591E+02  0.87750106225E+01 -0.12424482403E+02  0.27158835051E+02  0.10000000000E+00 0. -1.
         -5    1    3    3    0  501 -0.45749424218E+02 -0.47690568790E+01  0.16602252391E+03  0.17227664429E+03  0.10000000000E+00 0. -1.
         21    1    1    2  504  502  0.23250007627E+02 -0.40059537435E+01  0.24892548027E+02  0.34296493514E+02  0.00000000000E+00 0.  1.
<mgrwt>
<rscale>  1 0.12720909E+03</rscale>
<asrwt>0</asrwt>
<pdfrwt beam="1">  1       21 0.31709427E-01 0.12720909E+03</pdfrwt>
<pdfrwt beam="2">  1       21 0.42493373E-02 0.12720909E+03</pdfrwt>
<totfact> 0.33487561E+06</totfact>
</mgrwt>
</event>
<event>
 6    1  0.4187588E-002  0.1282427E+03  0.7546771E-02  0.1230087E+00
         21   -1    0    0  504  502  0.00000000000E+00  0.00000000000E+00  0.21808027143E+02  0.21808027143E+02  0.00000000000E+00 0.  1.
         21   -1    0    0  502  503 -0.00000000000E+00 -0.00000000000E+00 -0.86028762144E+03  0.86028762144E+03  0.00000000000E+00 0.  1.
         25    2    1    2    0    0  0.23365284812E+02  0.16556751339E+02 -0.84335252078E+03  0.85304727579E+03  0.12500447144E+03 0.  0.
          5    1    3    3  501    0  0.19891426776E+02 -0.18136298855E+02 -0.78212511051E+03  0.78258820122E+03  0.10000000000E+00 0.  1.
         -5    1    3    3    0  501  0.34738580359E+01  0.34693050194E+02 -0.61227410268E+02  0.70459074572E+02  0.10000000000E+00 0.  1.
         21    1    1    2  504  503 -0.23365284812E+02 -0.16556751339E+02  0.48729264833E+01  0.29048372790E+02  0.00000000000E+00 0.  1.
<mgrwt>
<rscale>  1 0.12824266E+03</rscale>
<asrwt>0</asrwt>
<pdfrwt beam="1">  1       21 0.33550810E-02 0.12824266E+03</pdfrwt>
<pdfrwt beam="2">  1       21 0.13235194E+00 0.12824266E+03</pdfrwt>
<totfact> 0.22208933E+05</totfact>
</mgrwt>
</event>
<event>
 6    1  0.4187588E-002  0.1393092E+03  0.7546771E-02  0.1214262E+00
         21   -1    0    0  504  502  0.00000000000E+00  0.00000000000E+00  0.70453919947E+02  0.70453919947E+02  0.00000000000E+00 0. -1.
         21   -1    0    0  502  503 -0.00000000000E+00 -0.00000000000E+00 -0.21205644628E+03  0.21205644628E+03  0.00000000000E+00 0. -1.
         25    2    1    2    0    0 -0.57610862976E+02 -0.21509192744E+02 -0.16568447470E+03  0.21646797725E+03  0.12500153245E+03 0.  0.
          5    1    3    3  501    0 -0.60730048816E+02 -0.16795876310E+02 -0.13831928558E+02  0.64510251417E+02  0.10000000000E+00 0.  1.
         -5    1    3    3    0  501  0.31191858403E+01 -0.47133164347E+01 -0.15185254614E+03  0.15195772584E+03  0.10000000000E+00 0.  1.
         21    1    1    2  504  503  0.57610862976E+02  0.21509192744E+02  0.24081948360E+02  0.66042388980E+02  0.00000000000E+00 0. -1.
<mgrwt>
<rscale>  1 0.13930915E+03</rscale>
<asrwt>0</asrwt>
<pdfrwt beam="1">  1       21 0.10839065E-01 0.13930915E+03</pdfrwt>
<pdfrwt beam="2">  1       21 0.32624069E-01 0.13930915E+03</pdfrwt>
<totfact> 0.63954793E+05</totfact>
</mgrwt>
</event>
<event>
 6    1  0.4187588E-002  0.1796239E+03  0.7546771E-02  0.1168168E+00
         21   -1    0    0  503  502  0.00000000000E+00  0.00000000000E+00  0.12291397496E+04  0.12291397496E+04  0.00000000000E+00 0.  1.
         21   -1    0    0  504  503 -0.00000000000E+00 -0.00000000000E+00 -0.31682378864E+02  0.31682378864E+02  0.00000000000E+00 0.  1.
         25    2    1    2    0    0 -0.30806359726E+02  0.12527333348E+03  0.26908725645E+03  0.32353161374E+03  0.12498925405E+03 0.  0.
          5    1    3    3  501    0 -0.28646414016E+02 -0.40876038017E+01  0.13159104393E+03  0.13473506738E+03  0.10000000000E+00 0.  1.
         -5    1    3    3    0  501 -0.21599457098E+01  0.12936093728E+03  0.13749621252E+03  0.18879654636E+03  0.10000000000E+00 0.  1.
         21    1    1    2  504  502  0.30806359726E+02 -0.12527333348E+03  0.92837011425E+03  0.93729051468E+03  0.00000000000E+00 0.  1.
<mgrwt>
<rscale>  1 0.17962392E+03</rscale>
<asrwt>0</asrwt>
<pdfrwt beam="1">  1       21 0.18909839E+00 0.17962392E+03</pdfrwt>
<pdfrwt beam="2">  1       21 0.48742131E-02 0.17962392E+03</pdfrwt>
<totfact> 0.44786704E+04</totfact>
</mgrwt>
</event>
<event>
 6    1  0.4187588E-002  0.1274051E+03  0.7546771E-02  0.1231358E+00
         21   -1    0    0  504  502  0.00000000000E+00  0.00000000000E+00  0.11013168262E+03  0.11013168262E+03  0.00000000000E+00 0. -1.
         21   -1    0    0  502  503 -0.00000000000E+00 -0.00000000000E+00 -0.13038656025E+03  0.13038656025E+03  0.00000000000E+00 0. -1.
         25    2    1    2    0    0 -0.11695438824E+02  0.21719713000E+02 -0.96857261167E+02  0.16004182157E+03  0.12499410541E+03 0.  0.
          5    1    3    3  501    0 -0.67636274304E+02  0.12157088309E+01 -0.47275489878E+02  0.82529543152E+02  0.10000000000E+00 0. -1.
         -5    1    3    3    0  501  0.55940835480E+02  0.20504004169E+02 -0.49581771289E+02  0.77512278416E+02  0.10000000000E+00 0. -1.
         21    1    1    2  504  503  0.11695438824E+02 -0.21719713000E+02  0.76602383537E+02  0.80476421303E+02  0.00000000000E+00 0. -1.
<mgrwt>
<rscale>  1 0.12740508E+03</rscale>
<asrwt>0</asrwt>
<pdfrwt beam="1">  1       21 0.16943336E-01 0.12740508E+03</pdfrwt>
<pdfrwt beam="2">  1       21 0.20059471E-01 0.12740508E+03</pdfrwt>
<totfact> 0.72356120E+05</totfact>
</mgrwt>
</event>
<event>
 6    1  0.4187588E-002  0.1302247E+03  0.7546771E-02  0.1227123E+00
         21   -1    0    0  504  502  0.00000000000E+00  0.00000000000E+00  0.18582527532E+04  0.18582527532E+04  0.00000000000E+00 0.  1.
         21   -1    0    0  502  503 -0.00000000000E+00 -0.00000000000E+00 -0.22961883330E+02  0.22961883330E+02  0.00000000000E+00 0.  1.
         25    2    1    2    0    0 -0.32241359877E+02 -0.17147130299E+02  0.16349195308E+03  0.20901693663E+03  0.12499972685E+03 0.  0.
          5    1    3    3  501    0 -0.56276667523E+02 -0.52093432004E+02  0.14219662988E+03  0.16155705034E+03  0.10000000000E+00 0.  1.
         -5    1    3    3    0  501  0.24035307646E+02  0.34946301705E+02  0.21295323199E+02  0.47459886290E+02  0.10000000000E+00 0.  1.
         21    1    1    2  504  503  0.32241359877E+02  0.17147130299E+02  0.16717989168E+04  0.16721976999E+04  0.00000000000E+00 0.  1.
<mgrwt>
<rscale>  1 0.13022466E+03</rscale>
<asrwt>0</asrwt>
<pdfrwt beam="1">  1       21 0.28588492E+00 0.13022466E+03</pdfrwt>
<pdfrwt beam="2">  1       21 0.35325989E-02 0.13022466E+03</pdfrwt>
<totfact> 0.21263459E+04</totfact>
</mgrwt>
</event>
<event>
 6    1  0.4187588E-002  0.1281879E+03  0.7546771E-02  0.1230170E+00
         21   -1    0    0  504  502  0.00000000000E+00  0.00000000000E+00  0.54955541475E+03  0.54955541475E+03  0.00000000000E+00 0.  1.
         21   -1    0    0  502  503 -0.00000000000E+00 -0.00000000000E+00 -0.21490713338E+02  0.21490713338E+02  0.00000000000E+00 0.  1.
         25    2    1    2    0    0 -0.23488744377E+02 -0.16025943701E+02  0.17546565309E+03  0.21730237781E+03  0.12499430388E+03 0.  0.
          5    1    3    3  501    0 -0.23550408167E+01  0.45708008965E+02  0.12987035709E+03  0.13769926634E+03  0.10000000000E+00 0.  1.
         -5    1    3    3    0  501 -0.21133703560E+02 -0.61733952666E+02  0.45595296002E+02  0.79603111468E+02  0.10000000000E+00 0.  1.
         21    1    1    2  504  503  0.23488744377E+02  0.16025943701E+02  0.35259904833E+03  0.35374375028E+03  0.00000000000E+00 0.  1.
<mgrwt>
<rscale>  1 0.12818786E+03</rscale>
<asrwt>0</asrwt>
<pdfrwt beam="1">  1       21 0.84546976E-01 0.12818786E+03</pdfrwt>
<pdfrwt beam="2">  1       21 0.33062640E-02 0.12818786E+03</pdfrwt>
<totfact> 0.65860012E+05</totfact>
</mgrwt>
</event>
<event>
 6    1  0.4187588E-002  0.1263157E+03  0.7546771E-02  0.1233027E+00
         21   -1    0    0  503  502  0.00000000000E+00  0.00000000000E+00  0.17541562154E+02  0.17541562154E+02  0.00000000000E+00 0.  1.
         21   -1    0    0  504  503 -0.00000000000E+00 -0.00000000000E+00 -0.29816889031E+03  0.29816889031E+03  0.00000000000E+00 0.  1.
         25    2    1    2    0    0 -0.17820193277E+02  0.36944703425E+01 -0.24950408367E+03  0.27965681538E+03  0.12499775287E+03 0.  0.
          5    1    3    3  501    0 -0.61407619402E+02 -0.24011833446E+02 -0.18864597674E+03  0.19983687950E+03  0.10000000000E+00 0. -1.
         -5    1    3    3    0  501  0.43587426125E+02  0.27706303789E+02 -0.60858106928E+02  0.79819935885E+02  0.10000000000E+00 0. -1.
         21    1    1    2  504  502  0.17820193277E+02 -0.36944703425E+01 -0.31123244481E+02  0.36053637078E+02  0.00000000000E+00 0.  1.
<mgrwt>
<rscale>  1 0.12631566E+03</rscale>
<asrwt>0</asrwt>
<pdfrwt beam="1">  1       21 0.26987020E-02 0.12631566E+03</pdfrwt>
<pdfrwt beam="2">  1       21 0.45872134E-01 0.12631566E+03</pdfrwt>
<totfact> 0.33977901E+06</totfact>
</mgrwt>
</event>
<event>
 6    1  0.4187588E-002  0.1259247E+03  0.7546771E-02  0.1233631E+00
         21   -1    0    0  503  502  0.00000000000E+00  0.00000000000E+00  0.21524017549E+03  0.21524017549E+03  0.00000000000E+00 0.  1.
         21   -1    0    0  504  503 -0.00000000000E+00 -0.00000000000E+00 -0.48827858639E+02  0.48827858639E+02  0.00000000000E+00 0.  1.
         25    2    1    2    0    0 -0.29503713499E+01 -0.14920496438E+02  0.33522030497E+02  0.13031021525E+03  0.12500279902E+03 0.  0.
          5    1    3    3  501    0  0.13845415921E+02  0.14234942583E+02  0.74607476991E+02  0.77205017682E+02  0.10000000000E+00 0. -1.
         -5    1    3    3    0  501 -0.16795787271E+02 -0.29155439022E+02 -0.41085446494E+02  0.53105197563E+02  0.10000000000E+00 0. -1.
         21    1    1    2  504  502  0.29503713499E+01  0.14920496438E+02  0.13289028636E+03  0.13375781888E+03  0.00000000000E+00 0.  1.
<mgrwt>
<rscale>  1 0.12592468E+03</rscale>
<asrwt>0</asrwt>
<pdfrwt beam="1">  1       21 0.33113873E-01 0.12592468E+03</pdfrwt>
<pdfrwt beam="2">  1       21 0.75119784E-02 0.12592468E+03</pdfrwt>
<totfact> 0.11748532E+06</totfact>
</mgrwt>
</event>
<event>
 6    1  0.4187588E-002  0.1265749E+03  0.7546771E-02  0.1232628E+00
         21   -1    0    0  504  502  0.00000000000E+00  0.00000000000E+00  0.25789573626E+01  0.25789573626E+01  0.00000000000E+00 0. -1.
         21   -1    0    0  502  503 -0.00000000000E+00 -0.00000000000E+00 -0.21123060409E+04  0.21123060409E+04  0.00000000000E+00 0. -1.
         25    2    1    2    0    0  0.43067607970E+01 -0.19402896811E+02 -0.19029505255E+04  0.19071554492E+04  0.12500473744E+03 0.  0.
          5    1    3    3  501    0 -0.30856009997E+02  0.43423876526E+02 -0.94733529079E+03  0.94883185527E+03  0.10000000000E+00 0.  1.
         -5    1    3    3    0  501  0.35162770794E+02 -0.62826773338E+02 -0.95561523467E+03  0.95832359390E+03  0.10000000000E+00 0.  1.
         21    1    1    2  504  503 -0.43067607970E+01  0.19402896811E+02 -0.20677655811E+03  0.20772954912E+03  0.00000000000E+00 0. -1.
<mgrwt>
<rscale>  1 0.12657490E+03</rscale>
<asrwt>0</asrwt>
<pdfrwt beam="1">  1       21 0.39676085E-03 0.12657490E+03</pdfrwt>
<pdfrwt beam="2">  1       21 0.32497165E+00 0.12657490E+03</pdfrwt>
<totfact> 0.41370290E+05</totfact>
</mgrwt>
</event>
<event>
 6    1  0.4187588E-002  0.1293936E+03  0.7546771E-02  0.1228358E+00
         21   -1    0    0  503  502  0.00000000000E+00  0.00000000000E+00  0.28724771396E+02  0.28724771396E+02  0.00000000000E+00 0.  1.
         21   -1    0    0  504  503 -0.00000000000E+00 -0.00000000000E+00 -0.56876317296E+03  0.56876317296E+03  0.00000000000E+00 0.  1.
         25    2    1    2    0    0  0.32775589960E+02 -0.65381476138E+01 -0.54805173060E+03  0.56311935239E+03  0.12500287577E+03 0.  0.
          5    1    3    3  501    0 -0.42890194288E+02 -0.57298233798E+01 -0.10362561625E+03  0.11229727506E+03  0.10000000000E+00 0. -1.
         -5    1    3    3    0  501  0.75665784248E+02 -0.80832423399E+00 -0.44442611435E+03  0.45082207733E+03  0.10000000000E+00 0. -1.
         21    1    1    2  504  502 -0.32775589960E+02  0.65381476138E+01  0.80133290378E+01  0.34368591966E+02  0.00000000000E+00 0.  1.
<mgrwt>
<rscale>  1 0.12939361E+03</rscale>
<asrwt>0</asrwt>
<pdfrwt beam="1">  1       21 0.44191961E-02 0.12939361E+03</pdfrwt>
<pdfrwt beam="2">  1       21 0.87502017E-01 0.12939361E+03</pdfrwt>
<totfact> 0.37659134E+05</totfact>
</mgrwt>
</event>
<event>
 6    1  0.4187588E-002  0.1478562E+03  0.7546771E-02  0.1203132E+00
         21   -1    0    0  503  502  0.00000000000E+00  0.00000000000E+00  0.10364163478E+04  0.10364163478E+04  0.00000000000E+00 0. -1.
         21   -1    0    0  504  503 -0.00000000000E+00 -0.00000000000E+00 -0.14670402320E+02  0.14670402320E+02  0.00000000000E+00 0. -1.
         25    2    1    2    0    0  0.74450013707E+02  0.26329323722E+02  0.44406473043E+03  0.46803304415E+03  0.12500163108E+03 0.  0.
          5    1    3    3  501    0  0.16088638003E+01  0.64773888650E+02  0.17321762405E+03  0.18493945056E+03  0.10000000000E+00 0.  1.
         -5    1    3    3    0  501  0.72841149907E+02 -0.38444564928E+02  0.27084710638E+03  0.28309359358E+03  0.10000000000E+00 0.  1.
         21    1    1    2  504  502 -0.74450013707E+02 -0.26329323722E+02  0.57768121504E+03  0.58305370597E+03  0.00000000000E+00 0. -1.
<mgrwt>
<rscale>  1 0.14785617E+03</rscale>
<asrwt>0</asrwt>
<pdfrwt beam="1">  1       21 0.15944861E+00 0.14785617E+03</pdfrwt>
<pdfrwt beam="2">  1       21 0.22569858E-02 0.14785617E+03</pdfrwt>
<totfact> 0.26116683E+05</totfact>
</mgrwt>
</event>
<event>
 6    1  0.4187588E-002  0.1261895E+03  0.7546771E-02  0.1233222E+00
         21   -1    0    0  503  502  0.00000000000E+00  0.00000000000E+00  0.43625286300E+02  0.43625286300E+02  0.00000000000E+00 0. -1.
         21   -1    0    0  504  503 -0.00000000000E+00 -0.00000000000E+00 -0.11824488241E+03  0.11824488241E+03  0.00000000000E+00 0. -1.
         25    2    1    2    0    0  0.58358563850E+01  0.16232243597E+02 -0.68388871728E+02  0.14352991576E+03  0.12500502386E+03 0.  0.
          5    1    3    3  501    0  0.48369831614E+02  0.12362009208E+02  0.13022831108E+02  0.51595193692E+02  0.10000000000E+00 0. -1.
         -5    1    3    3    0  501 -0.42533975229E+02  0.38702343885E+01 -0.81411702836E+02  0.91934722068E+02  0.10000000000E+00 0. -1.
         21    1    1    2  504  502 -0.58358563850E+01 -0.16232243597E+02 -0.62307243804E+01  0.18340252949E+02  0.00000000000E+00 0.  1.
<mgrwt>
<rscale>  1 0.12618954E+03</rscale>
<asrwt>0</asrwt>
<pdfrwt beam="1">  1       21 0.67115825E-02 0.12618954E+03</pdfrwt>
<pdfrwt beam="2">  1       21 0.18191520E-01 0.12618954E+03</pdfrwt>
<totfact> 0.44123279E+06</totfact>
</mgrwt>
</event>
<event>
 6    1  0.4187588E-002  0.1259045E+03  0.7546771E-02  0.1233662E+00
         21   -1    0    0  504  502  0.00000000000E+00  0.00000000000E+00  0.21800978434E+02  0.21800978434E+02  0.00000000000E+00 0.  1.
         21   -1    0    0  502  503 -0.00000000000E+00 -0.00000000000E+00 -0.30195049535E+03  0.30195049535E+03  0.00000000000E+00 0.  1.
         25    2    1    2    0    0  0.11119820751E+02  0.10249461038E+02 -0.28169335703E+03  0.30854998348E+03  0.12499297198E+03 0.  0.
          5    1    3    3  501    0  0.28811770093E+02  0.27388462082E+02 -0.17878767522E+02  0.43587914371E+02  0.10000000000E+00 0. -1.
         -5    1    3    3    0  501 -0.17691949342E+02 -0.17139001043E+02 -0.26381458951E+03  0.26496206911E+03  0.10000000000E+00 0. -1.
         21    1    1    2  504  503 -0.11119820751E+02 -0.10249461038E+02  0.15438401168E+01  0.15201490303E+02  0.00000000000E+00 0.  1.
<mgrwt>
<rscale>  1 0.12590451E+03</rscale>
<asrwt>0</asrwt>
<pdfrwt beam="1">  1       21 0.33539967E-02 0.12590451E+03</pdfrwt>
<pdfrwt beam="2">  1       21 0.46453922E-01 0.12590451E+03</pdfrwt>
<totfact> 0.23186044E+06</totfact>
</mgrwt>
</event>
<event>
 6    1  0.4187588E-002  0.1817980E+03  0.7546771E-02  0.1166074E+00
         21   -1    0    0  503  502  0.00000000000E+00  0.00000000000E+00  0.46557836383E+02  0.46557836383E+02  0.00000000000E+00 0. -1.
         21   -1    0    0  504  503 -0.00000000000E+00 -0.00000000000E+00 -0.53714505146E+03  0.53714505146E+03  0.00000000000E+00 0. -1.
         25    2    1    2    0    0  0.87048590059E+02  0.99220863832E+02 -0.24752919631E+03  0.30711757128E+03  0.12501305017E+03 0.  0.
          5    1    3    3  501    0  0.19747530765E+02  0.16465400980E+01 -0.15627503237E+03  0.15752641623E+03  0.10000000000E+00 0.  1.
         -5    1    3    3    0  501  0.67301059294E+02  0.97574323734E+02 -0.91254163931E+02  0.14959115505E+03  0.10000000000E+00 0.  1.
         21    1    1    2  504  502 -0.87048590059E+02 -0.99220863832E+02 -0.24305801877E+03  0.27658531657E+03  0.00000000000E+00 0. -1.
<mgrwt>
<rscale>  1 0.18179796E+03</rscale>
<asrwt>0</asrwt>
<pdfrwt beam="1">  1       21 0.71627441E-02 0.18179796E+03</pdfrwt>
<pdfrwt beam="2">  1       21 0.82637700E-01 0.18179796E+03</pdfrwt>
<totfact> 0.18640442E+05</totfact>
</mgrwt>
</event>
<event>
 6    1  0.4187588E-002  0.1270378E+03  0.7546771E-02  0.1231918E+00
         21   -1    0    0  504  502  0.00000000000E+00  0.00000000000E+00  0.79612751033E+02  0.79612751033E+02  0.00000000000E+00 0.  1.
         21   -1    0    0  502  503 -0.00000000000E+00 -0.00000000000E+00 -0.16746177174E+03  0.16746177174E+03  0.00000000000E+00 0.  1.
         25    2    1    2    0    0 -0.15603753810E+02  0.16450186754E+02 -0.14069983538E+03  0.18956544185E+03  0.12499810914E+03 0.  0.
          5    1    3    3  501    0  0.53653721037E+02  0.20365374020E+02 -0.57459643497E+02  0.81210164825E+02  0.10000000000E+00 0.  1.
         -5    1    3    3    0  501 -0.69257474848E+02 -0.39151872659E+01 -0.83240191884E+02  0.10835527702E+03  0.10000000000E+00 0.  1.
         21    1    1    2  504  503  0.15603753810E+02 -0.16450186754E+02  0.52850814674E+02  0.57509080926E+02  0.00000000000E+00 0.  1.
<mgrwt>
<rscale>  1 0.12703784E+03</rscale>
<asrwt>0</asrwt>
<pdfrwt beam="1">  1       21 0.12248116E-01 0.12703784E+03</pdfrwt>
<pdfrwt beam="2">  1       21 0.25763349E-01 0.12703784E+03</pdfrwt>
<totfact> 0.81146404E+05</totfact>
</mgrwt>
</event>
<event>
 6    1  0.4187588E-002  0.1309428E+03  0.7546771E-02  0.1226063E+00
         21   -1    0    0  503  502  0.00000000000E+00  0.00000000000E+00  0.75391144666E+03  0.75391144666E+03  0.00000000000E+00 0.  1.
         21   -1    0    0  504  503 -0.00000000000E+00 -0.00000000000E+00 -0.20522080688E+02  0.20522080688E+02  0.00000000000E+00 0. -1.
         25    2    1    2    0    0 -0.31784109090E+01  0.38889962839E+02  0.19652301570E+03  0.23615106474E+03  0.12499399253E+03 0.  0.
          5    1    3    3  501    0  0.53657788247E+02  0.49121469474E+02  0.11915278997E+03  0.13960470751E+03  0.10000000000E+00 0.  1.
         -5    1    3    3    0  501 -0.56836199156E+02 -0.10231506635E+02  0.77370225738E+02  0.96546357224E+02  0.10000000000E+00 0.  1.
         21    1    1    2  504  502  0.31784109090E+01 -0.38889962839E+02  0.53686635026E+03  0.53828246261E+03  0.00000000000E+00 0.  1.
<mgrwt>
<rscale>  1 0.13094285E+03</rscale>
<asrwt>0</asrwt>
<pdfrwt beam="1">  1       21 0.11598636E+00 0.13094285E+03</pdfrwt>
<pdfrwt beam="2">  1       21 0.31572438E-02 0.13094285E+03</pdfrwt>
<totfact> 0.33932278E+05</totfact>
</mgrwt>
</event>
<event>
 6    1  0.4187588E-002  0.1280091E+03  0.7546771E-02  0.1230440E+00
         21   -1    0    0  504  502  0.00000000000E+00  0.00000000000E+00  0.53745176852E+02  0.53745176852E+02  0.00000000000E+00 0.  1.
         21   -1    0    0  502  503 -0.00000000000E+00 -0.00000000000E+00 -0.84807005197E+03  0.84807005197E+03  0.00000000000E+00 0. -1.
         25    2    1    2    0    0 -0.29925847212E+01 -0.27420855463E+02 -0.83932684182E+03  0.84903231601E+03  0.12500186938E+03 0.  0.
          5    1    3    3  501    0 -0.20020138479E+02 -0.74763491120E+02 -0.53662760264E+03  0.54218039384E+03  0.10000000000E+00 0. -1.
         -5    1    3    3    0  501  0.17027553758E+02  0.47342635657E+02 -0.30269923918E+03  0.30685192217E+03  0.10000000000E+00 0. -1.
         21    1    1    2  504  503  0.29925847212E+01  0.27420855463E+02  0.45001966704E+02  0.52782912812E+02  0.00000000000E+00 0.  1.
<mgrwt>
<rscale>  1 0.12800909E+03</rscale>
<asrwt>0</asrwt>
<pdfrwt beam="1">  1       21 0.82684891E-02 0.12800909E+03</pdfrwt>
<pdfrwt beam="2">  1       21 0.13047231E+00 0.12800909E+03</pdfrwt>
<totfact> 0.50350480E+04</totfact>
</mgrwt>
</event>
<event>
 6    1  0.4187588E-002  0.1280488E+03  0.7546771E-02  0.1230380E+00
         21   -1    0    0  504  502  0.00000000000E+00  0.00000000000E+00  0.16036460123E+03  0.16036460123E+03  0.00000000000E+00 0.  1.
         21   -1    0    0  502  503 -0.00000000000E+00 -0.00000000000E+00 -0.64412238328E+02  0.64412238328E+02  0.00000000000E+00 0. -1.
         25    2    1    2    0    0  0.27366877382E+02 -0.47589016205E+01  0.33442187683E+01  0.12809250017E+03  0.12499964672E+03 0.  0.
          5    1    3    3  501    0 -0.13794369433E+02 -0.58555787676E+02 -0.15474426877E+01  0.60178646356E+02  0.10000000000E+00 0. -1.
         -5    1    3    3    0  501  0.41161246815E+02  0.53796886055E+02  0.48916614560E+01  0.67913853818E+02  0.10000000000E+00 0. -1.
         21    1    1    2  504  503 -0.27366877382E+02  0.47589016205E+01  0.92608144139E+02  0.96684339389E+02  0.00000000000E+00 0.  1.
<mgrwt>
<rscale>  1 0.12804884E+03</rscale>
<asrwt>0</asrwt>
<pdfrwt beam="1">  1       21 0.24671477E-01 0.12804884E+03</pdfrwt>
<pdfrwt beam="2">  1       21 0.99095752E-02 0.12804884E+03</pdfrwt>
<totfact> 0.12789506E+06</totfact>
</mgrwt>
</event>
<event>
 6    1  0.4187588E-002  0.1337729E+03  0.7546771E-02  0.1221962E+00
         21   -1    0    0  503  502  0.00000000000E+00  0.00000000000E+00  0.37298178245E+03  0.37298178245E+03  0.00000000000E+00 0.  1.
         21   -1    0    0  504  503 -0.00000000000E+00 -0.00000000000E+00 -0.22868963059E+02  0.22868963059E+02  0.00000000000E+00 0.  1.
         25    2    1    2    0    0 -0.32332743539E+02  0.35033277430E+02  0.28799871023E+03  0.31755068555E+03  0.12498977545E+03 0.  0.
          5    1    3    3  501    0  0.15461570294E+02  0.33971292909E+02  0.14720487265E+02  0.40122458090E+02  0.10000000000E+00 0. -1.
         -5    1    3    3    0  501 -0.47794313833E+02  0.10619845207E+01  0.27327822296E+03  0.27742822746E+03  0.10000000000E+00 0. -1.
         21    1    1    2  504  502  0.32332743539E+02 -0.35033277430E+02  0.62114109163E+02  0.78300059958E+02  0.00000000000E+00 0.  1.
<mgrwt>
<rscale>  1 0.13377287E+03</rscale>
<asrwt>0</asrwt>
<pdfrwt beam="1">  1       21 0.57381808E-01 0.13377287E+03</pdfrwt>
<pdfrwt beam="2">  1       21 0.35183023E-02 0.13377287E+03</pdfrwt>
<totfact> 0.13842906E+06</totfact>
</mgrwt>
</event>
<event>
 6    1  0.4187588E-002  0.1497092E+03  0.7546771E-02  0.1200831E+00
         21   -1    0    0  504  502  0.00000000000E+00  0.00000000000E+00  0.63447472157E+03  0.63447472157E+03  0.00000000000E+00 0. -1.
         21   -1    0    0  502  503 -0.00000000000E+00 -0.00000000000E+00 -0.67383147519E+02  0.67383147519E+02  0.00000000000E+00 0.  1.
         25    2    1    2    0    0 -0.58968648514E+02  0.57534374489E+02  0.22882324242E+02  0.15144782800E+03  0.12500135234E+03 0.  0.
          5    1    3    3  501    0  0.22416238649E+01  0.42678053782E+02 -0.42772573760E+02  0.60464404555E+02  0.10000000000E+00 0. -1.
         -5    1    3    3    0  501 -0.61210272379E+02  0.14856320708E+02  0.65654898002E+02  0.90983423443E+02  0.10000000000E+00 0. -1.
         21    1    1    2  504  503  0.58968648514E+02 -0.57534374489E+02  0.54420924981E+03  0.55041004109E+03  0.00000000000E+00 0. -1.
<mgrwt>
<rscale>  1 0.14970920E+03</rscale>
<asrwt>0</asrwt>
<pdfrwt beam="1">  1       21 0.97611492E-01 0.14970920E+03</pdfrwt>
<pdfrwt beam="2">  1       21 0.10366639E-01 0.14970920E+03</pdfrwt>
<totfact> 0.67542278E+04</totfact>
</mgrwt>
</event>
<event>
 6    1  0.4187588E-002  0.1265091E+03  0.7546771E-02  0.1232729E+00
         21   -1    0    0  503  502  0.00000000000E+00  0.00000000000E+00  0.11204468805E+03  0.11204468805E+03  0.00000000000E+00 0. -1.
         21   -1    0    0  504  503 -0.00000000000E+00 -0.00000000000E+00 -0.81041605291E+02  0.81041605291E+02  0.00000000000E+00 0. -1.
         25    2    1    2    0    0  0.63221994466E+01 -0.18417847108E+02 -0.29180460071E+02  0.12983088942E+03  0.12500149319E+03 0.  0.
          5    1    3    3  501    0 -0.48076536730E+02 -0.30146271210E+02 -0.44497810442E+02  0.72112524473E+02  0.10000000000E+00 0.  1.
         -5    1    3    3    0  501  0.54398736177E+02  0.11728424102E+02  0.15317350371E+02  0.57718364945E+02  0.10000000000E+00 0.  1.
         21    1    1    2  504  502 -0.63221994466E+01  0.18417847108E+02  0.60183542827E+02  0.63255403921E+02  0.00000000000E+00 0.  1.
<mgrwt>
<rscale>  1 0.12650913E+03</rscale>
<asrwt>0</asrwt>
<pdfrwt beam="1">  1       21 0.17237644E-01 0.12650913E+03</pdfrwt>
<pdfrwt beam="2">  1       21 0.12467939E-01 0.12650913E+03</pdfrwt>
<totfact> 0.16586004E+06</totfact>
</mgrwt>
</event>
<event>
 6    1  0.4187588E-002  0.1288848E+03  0.7546771E-02  0.1229120E+00
         21   -1    0    0  504  502  0.00000000000E+00  0.00000000000E+00  0.18408603114E+03  0.18408603114E+03  0.00000000000E+00 0.  1.
         21   -1    0    0  502  503 -0.00000000000E+00 -0.00000000000E+00 -0.62620546919E+02  0.62620546919E+02  0.00000000000E+00 0.  1.
         25    2    1    2    0    0  0.29647047619E+02  0.10431301184E+02  0.81819798457E+01  0.12914420380E+03  0.12499408428E+03 0.  0.
          5    1    3    3  501    0 -0.10914076952E+02  0.32746361397E+02  0.53948615339E+02  0.64046111181E+02  0.10000000000E+00 0. -1.
         -5    1    3    3    0  501  0.40561124570E+02 -0.22315060212E+02 -0.45766635493E+02  0.65098092622E+02  0.10000000000E+00 0. -1.
         21    1    1    2  504  503 -0.29647047619E+02 -0.10431301184E+02  0.11328350438E+03  0.11756237426E+03  0.00000000000E+00 0.  1.
<mgrwt>
<rscale>  1 0.12888476E+03</rscale>
<asrwt>0</asrwt>
<pdfrwt beam="1">  1       21 0.28320928E-01 0.12888476E+03</pdfrwt>
<pdfrwt beam="2">  1       21 0.96339304E-02 0.12888476E+03</pdfrwt>
<totfact> 0.10336936E+06</totfact>
</mgrwt>
</event>
<event>
 6    1  0.4187588E-002  0.1277390E+03  0.7546771E-02  0.1230850E+00
         21   -1    0    0  503  502  0.00000000000E+00  0.00000000000E+00  0.14502841154E+04  0.14502841154E+04  0.00000000000E+00 0.  1.
         21   -1    0    0  504  503 -0.00000000000E+00 -0.00000000000E+00 -0.41098958810E+01  0.41098958810E+01  0.00000000000E+00 0.  1.
         25    2    1    2    0    0 -0.16488888738E+02 -0.20551755542E+02  0.11615602231E+04  0.11685629684E+04  0.12499200437E+03 0.  0.
          5    1    3    3  501    0 -0.58607677611E+02 -0.10914789252E+01  0.95758337418E+03  0.95937582818E+03  0.10000000000E+00 0. -1.
         -5    1    3    3    0  501  0.42118788873E+02 -0.19460276617E+02  0.20397684889E+03  0.20918714020E+03  0.10000000000E+00 0. -1.
         21    1    1    2  504  502  0.16488888738E+02  0.20551755542E+02  0.28461399647E+03  0.28583104291E+03  0.00000000000E+00 0.  1.
<mgrwt>
<rscale>  1 0.12773903E+03</rscale>
<asrwt>0</asrwt>
<pdfrwt beam="1">  1       21 0.22312022E+00 0.12773903E+03</pdfrwt>
<pdfrwt beam="2">  1       21 0.63229283E-03 0.12773903E+03</pdfrwt>
<totfact> 0.76464721E+05</totfact>
</mgrwt>
</event>
<event>
 6    1  0.4187588E-002  0.1273604E+03  0.7546771E-02  0.1231426E+00
         21   -1    0    0  504  502  0.00000000000E+00  0.00000000000E+00  0.46665241789E+03  0.46665241789E+03  0.00000000000E+00 0. -1.
         21   -1    0    0  502  503 -0.00000000000E+00 -0.00000000000E+00 -0.13993606997E+02  0.13993606997E+02  0.00000000000E+00 0. -1.
         25    2    1    2    0    0  0.20436771852E+02 -0.13253703288E+02  0.29791667726E+03  0.32399848990E+03  0.12500940995E+03 0.  0.
          5    1    3    3  501    0 -0.23235769485E+02 -0.27824318384E+02  0.18282918425E+02  0.40600108167E+02  0.10000000000E+00 0. -1.
         -5    1    3    3    0  501  0.43672541337E+02  0.14570615096E+02  0.27963375883E+03  0.28339838174E+03  0.10000000000E+00 0. -1.
         21    1    1    2  504  503 -0.20436771852E+02  0.13253703288E+02  0.15474213364E+03  0.15664753499E+03  0.00000000000E+00 0. -1.
<mgrwt>
<rscale>  1 0.12736041E+03</rscale>
<asrwt>0</asrwt>
<pdfrwt beam="1">  1       21 0.71792668E-01 0.12736041E+03</pdfrwt>
<pdfrwt beam="2">  1       21 0.21528630E-02 0.12736041E+03</pdfrwt>
<totfact> 0.19076413E+06</totfact>
</mgrwt>
</event>
<event>
 6    1  0.4187588E-002  0.1666067E+03  0.7546771E-02  0.1181433E+00
         21   -1    0    0  504  502  0.00000000000E+00  0.00000000000E+00  0.38445702819E+03  0.38445702819E+03  0.00000000000E+00 0. -1.
         21   -1    0    0  502  503 -0.00000000000E+00 -0.00000000000E+00 -0.55412495812E+02  0.55412495812E+02  0.00000000000E+00 0. -1.
         25    2    1    2    0    0 -0.52416221563E+02 -0.96876242154E+02  0.26332731659E+03  0.31160721844E+03  0.12500126538E+03 0.  0.
          5    1    3    3  501    0  0.25165059098E+02 -0.27605414746E+02  0.11400249593E+02  0.39055278945E+02  0.10000000000E+00 0. -1.
         -5    1    3    3    0  501 -0.77581280661E+02 -0.69270827408E+02  0.25192706700E+03  0.27255193950E+03  0.10000000000E+00 0. -1.
         21    1    1    2  504  503  0.52416221563E+02  0.96876242154E+02  0.65717215794E+02  0.12826230556E+03  0.00000000000E+00 0. -1.
<mgrwt>
<rscale>  1 0.16660667E+03</rscale>
<asrwt>0</asrwt>
<pdfrwt beam="1">  1       21 0.59147233E-01 0.16660667E+03</pdfrwt>
<pdfrwt beam="2">  1       21 0.85249996E-02 0.16660667E+03</pdfrwt>
<totfact> 0.28888844E+05</totfact>
</mgrwt>
</event>
<event>
 6    1  0.4187588E-002  0.1261421E+03  0.7546771E-02  0.1233295E+00
         21   -1    0    0  503  502  0.00000000000E+00  0.00000000000E+00  0.17855197882E+03  0.17855197882E+03  0.00000000000E+00 0.  1.
         21   -1    0    0  504  503 -0.00000000000E+00 -0.00000000000E+00 -0.29701674901E+02  0.29701674901E+02  0.00000000000E+00 0.  1.
         25    2    1    2    0    0  0.98379426426E+01 -0.13766925438E+02  0.11632675884E+03  0.17159176157E+03  0.12500201785E+03 0.  0.
          5    1    3    3  501    0  0.43823636046E+02 -0.29015998386E+02  0.33875030226E+01  0.52668058777E+02  0.10000000000E+00 0.  1.
         -5    1    3    3    0  501 -0.33985693403E+02  0.15249072948E+02  0.11293925582E+03  0.11892370280E+03  0.10000000000E+00 0.  1.
         21    1    1    2  504  502 -0.98379426426E+01  0.13766925438E+02  0.32523545080E+02  0.36661892150E+02  0.00000000000E+00 0.  1.
<mgrwt>
<rscale>  1 0.12614205E+03</rscale>
<asrwt>0</asrwt>
<pdfrwt beam="1">  1       21 0.27469535E-01 0.12614205E+03</pdfrwt>
<pdfrwt beam="2">  1       21 0.45694885E-02 0.12614205E+03</pdfrwt>
<totfact> 0.39089758E+06</totfact>
</mgrwt>
</event>
<event>
 6    1  0.4187588E-002  0.1392434E+03  0.7546771E-02  0.1214351E+00
         21   -1    0    0  504  502  0.00000000000E+00  0.00000000000E+00  0.17035996629E+03  0.17035996629E+03  0.00000000000E+00 0. -1.
         21   -1    0    0  502  503 -0.00000000000E+00 -0.00000000000E+00 -0.81810437967E+02  0.81810437967E+02  0.00000000000E+00 0. -1.
         25    2    1    2    0    0  0.59201467191E+02 -0.16062245936E+02 -0.61050858630E+01  0.13937720655E+03  0.12500369663E+03 0.  0.
          5    1    3    3  501    0  0.65453435588E+02  0.19451367026E+02  0.41311260788E+02  0.79806880514E+02  0.10000000000E+00 0.  1.
         -5    1    3    3    0  501 -0.62519683967E+01 -0.35513612962E+02 -0.47416346651E+02  0.59570326037E+02  0.10000000000E+00 0.  1.
         21    1    1    2  504  503 -0.59201467191E+02  0.16062245936E+02  0.94654614182E+02  0.11279319770E+03  0.00000000000E+00 0. -1.
<mgrwt>
<rscale>  1 0.13924343E+03</rscale>
<asrwt>0</asrwt>
<pdfrwt beam="1">  1       21 0.26209225E-01 0.13924343E+03</pdfrwt>
<pdfrwt beam="2">  1       21 0.12586221E-01 0.13924343E+03</pdfrwt>
<totfact> 0.74841850E+05</totfact>
</mgrwt>
</event>
<event>
 6    1  0.4187588E-002  0.1319662E+03  0.7546771E-02  0.1224567E+00
         21   -1    0    0  503  502  0.00000000000E+00  0.00000000000E+00  0.34067662200E+03  0.34067662200E+03  0.00000000000E+00 0.  1.
         21   -1    0    0  504  503 -0.00000000000E+00 -0.00000000000E+00 -0.98651631929E+02  0.98651631929E+02  0.00000000000E+00 0.  1.
         25    2    1    2    0    0 -0.33608713053E+02 -0.25697991814E+02 -0.52319192485E+02  0.14195907230E+03  0.12500059172E+03 0.  0.
          5    1    3    3  501    0 -0.80856286351E+02 -0.22862340364E+02 -0.39932401428E+02  0.93032426246E+02  0.10000000000E+00 0.  1.
         -5    1    3    3    0  501  0.47247573299E+02 -0.28356514507E+01 -0.12386791057E+02  0.48926646058E+02  0.10000000000E+00 0.  1.
         21    1    1    2  504  502  0.33608713053E+02  0.25697991814E+02  0.29434418255E+03  0.29736918162E+03  0.00000000000E+00 0.  1.
<mgrwt>
<rscale>  1 0.13196621E+03</rscale>
<asrwt>0</asrwt>
<pdfrwt beam="1">  1       21 0.52411788E-01 0.13196621E+03</pdfrwt>
<pdfrwt beam="2">  1       21 0.15177174E-01 0.13196621E+03</pdfrwt>
<totfact> 0.13535861E+05</totfact>
</mgrwt>
</event>
<event>
 6    1  0.4187588E-002  0.1265406E+03  0.7546771E-02  0.1232681E+00
         21   -1    0    0  504  502  0.00000000000E+00  0.00000000000E+00  0.92563648514E+02  0.92563648514E+02  0.00000000000E+00 0. -1.
         21   -1    0    0  502  503 -0.00000000000E+00 -0.00000000000E+00 -0.72032646070E+02  0.72032646070E+02  0.00000000000E+00 0. -1.
         25    2    1    2    0    0 -0.11563873232E+02 -0.15945422614E+02 -0.11427256407E+02  0.12705551708E+03  0.12499817025E+03 0.  0.
          5    1    3    3  501    0 -0.33880682282E+02 -0.64282565542E+02 -0.30237368304E+00  0.72665330760E+02  0.10000000000E+00 0.  1.
         -5    1    3    3    0  501  0.22316809050E+02  0.48337142929E+02 -0.11124882724E+02  0.54390186324E+02  0.10000000000E+00 0.  1.
         21    1    1    2  504  503  0.11563873232E+02  0.15945422614E+02  0.31958258851E+02  0.37540777500E+02  0.00000000000E+00 0. -1.
<mgrwt>
<rscale>  1 0.12654060E+03</rscale>
<asrwt>0</asrwt>
<pdfrwt beam="1">  1       21 0.14240561E-01 0.12654060E+03</pdfrwt>
<pdfrwt beam="2">  1       21 0.11081945E-01 0.12654060E+03</pdfrwt>
<totfact> 0.28855495E+06</totfact>
</mgrwt>
</event>
<event>
 6    1  0.4187588E-002  0.1457549E+03  0.7546771E-02  0.1205789E+00
         21   -1    0    0  504  502  0.00000000000E+00  0.00000000000E+00  0.86165857020E+01  0.86165857020E+01  0.00000000000E+00 0. -1.
         21   -1    0    0  502  503 -0.00000000000E+00 -0.00000000000E+00 -0.18261185523E+04  0.18261185523E+04  0.00000000000E+00 0. -1.
         25    2    1    2    0    0 -0.74826044261E+02 -0.44726345479E+01 -0.15527527044E+04  0.15595786131E+04  0.12500219226E+03 0.  0.
          5    1    3    3  501    0 -0.43710606666E+02 -0.36194330497E+02 -0.26266080966E+03  0.26872171038E+03  0.10000000000E+00 0.  1.
         -5    1    3    3    0  501 -0.31115437595E+02  0.31721695949E+02 -0.12900918948E+04  0.12908569027E+04  0.10000000000E+00 0.  1.
         21    1    1    2  504  503  0.74826044261E+02  0.44726345479E+01 -0.26474926219E+03  0.27515652489E+03  0.00000000000E+00 0. -1.
<mgrwt>
<rscale>  1 0.14575490E+03</rscale>
<asrwt>0</asrwt>
<pdfrwt beam="1">  1       21 0.13256291E-02 0.14575490E+03</pdfrwt>
<pdfrwt beam="2">  1       21 0.28094121E+00 0.14575490E+03</pdfrwt>
<totfact> 0.10929935E+05</totfact>
</mgrwt>
</event>
<event>
 6    1  0.4187588E-002  0.1987665E+03  0.7546771E-02  0.1150784E+00
         21   -1    0    0  504  502  0.00000000000E+00  0.00000000000E+00  0.17662359397E+03  0.17662359397E+03  0.00000000000E+00 0.  1.
         21   -1    0    0  502  503 -0.00000000000E+00 -0.00000000000E+00 -0.23529565472E+03  0.23529565472E+03  0.00000000000E+00 0.  1.
         25    2    1    2    0    0  0.14868528555E+03  0.42155645639E+02 -0.13427653881E+03  0.23987143643E+03  0.12499481805E+03 0.  0.
          5    1    3    3  501    0  0.11434619458E+03  0.21575026180E+02 -0.19081468684E+02  0.11791796477E+03  0.10000000000E+00 0.  1.
         -5    1    3    3    0  501  0.34339090973E+02  0.20580619459E+02 -0.11519507013E+03  0.12195347165E+03  0.10000000000E+00 0.  1.
         21    1    1    2  504  503 -0.14868528555E+03 -0.42155645639E+02  0.75604478070E+02  0.17204781226E+03  0.00000000000E+00 0.  1.
<mgrwt>
<rscale>  1 0.19876649E+03</rscale>
<asrwt>0</asrwt>
<pdfrwt beam="1">  1       21 0.27172861E-01 0.19876649E+03</pdfrwt>
<pdfrwt beam="2">  1       21 0.36199331E-01 0.19876649E+03</pdfrwt>
<totfact> 0.94769746E+04</totfact>
</mgrwt>
</event>
<event>
 6    1  0.4187588E-002  0.1259781E+03  0.7546771E-02  0.1233549E+00
         21   -1    0    0  504  502  0.00000000000E+00  0.00000000000E+00  0.26492115668E+02  0.26492115668E+02  0.00000000000E+00 0. -1.
         21   -1    0    0  502  503 -0.00000000000E+00 -0.00000000000E+00 -0.50538114958E+03  0.50538114958E+03  0.00000000000E+00 0.  1.
         25    2    1    2    0    0 -0.10826319322E+02  0.11399870256E+02 -0.49415440624E+03  0.50995984872E+03  0.12499321530E+03 0.  0.
          5    1    3    3  501    0 -0.39637896221E+02 -0.28644051115E+02 -0.40605073741E+03  0.40898515356E+03  0.10000000000E+00 0. -1.
         -5    1    3    3    0  501  0.28811576899E+02  0.40043921371E+02 -0.88103668830E+02  0.10097469516E+03  0.10000000000E+00 0. -1.
         21    1    1    2  504  503  0.10826319322E+02 -0.11399870256E+02  0.15265372321E+02  0.21913416530E+02  0.00000000000E+00 0. -1.
<mgrwt>
<rscale>  1 0.12597805E+03</rscale>
<asrwt>0</asrwt>
<pdfrwt beam="1">  1       21 0.40757103E-02 0.12597805E+03</pdfrwt>
<pdfrwt beam="2">  1       21 0.77750943E-01 0.12597805E+03</pdfrwt>
<totfact> 0.56219182E+05</totfact>
</mgrwt>
</event>
<event>
 6    1  0.4187588E-002  0.1262742E+03  0.7546771E-02  0.1233091E+00
         21   -1    0    0  504  502  0.00000000000E+00  0.00000000000E+00  0.26725145004E+03  0.26725145004E+03  0.00000000000E+00 0. -1.
         21   -1    0    0  502  503 -0.00000000000E+00 -0.00000000000E+00 -0.35220603334E+02  0.35220603334E+02  0.00000000000E+00 0. -1.
         25    2    1    2    0    0 -0.14500613605E+02 -0.10480466220E+02  0.80198866330E+02  0.14958955525E+03  0.12500027565E+03 0.  0.
          5    1    3    3  501    0 -0.37997999210E+02 -0.47036374428E+02  0.86644392574E+02  0.10565760374E+03  0.10000000000E+00 0. -1.
         -5    1    3    3    0  501  0.23497385605E+02  0.36555908208E+02 -0.64455262446E+01  0.43931951513E+02  0.10000000000E+00 0. -1.
         21    1    1    2  504  503  0.14500613605E+02  0.10480466220E+02  0.15183198038E+03  0.15288249812E+03  0.00000000000E+00 0. -1.
<mgrwt>
<rscale>  1 0.12627421E+03</rscale>
<asrwt>0</asrwt>
<pdfrwt beam="1">  1       21 0.41115606E-01 0.12627421E+03</pdfrwt>
<pdfrwt beam="2">  1       21 0.54185545E-02 0.12627421E+03</pdfrwt>
<totfact> 0.13350152E+06</totfact>
</mgrwt>
</event>
<event>
 6    1  0.4187588E-002  0.1262059E+03  0.7546771E-02  0.1233197E+00
         21   -1    0    0  504  502  0.00000000000E+00  0.00000000000E+00  0.66342927609E+01  0.66342927609E+01  0.00000000000E+00 0.  1.
         21   -1    0    0  502  503 -0.00000000000E+00 -0.00000000000E+00 -0.18226937570E+04  0.18226937570E+04  0.00000000000E+00 0.  1.
         25    2    1    2    0    0 -0.29933754032E+01 -0.17142214112E+02 -0.18033954004E+04  0.18078061002E+04  0.12500043967E+03 0.  0.
          5    1    3    3  501    0  0.34156249359E+01 -0.53284603299E+01 -0.24142165589E+01  0.67747638175E+01  0.10000000000E+00 0.  1.
         -5    1    3    3    0  501 -0.64090003391E+01 -0.11813753782E+02 -0.18009811838E+04  0.18010313364E+04  0.10000000000E+00 0.  1.
         21    1    1    2  504  503  0.29933754032E+01  0.17142214112E+02 -0.12664063883E+02  0.21521949609E+02  0.00000000000E+00 0.  1.
<mgrwt>
<rscale>  1 0.12620589E+03</rscale>
<asrwt>0</asrwt>
<pdfrwt beam="1">  1       21 0.10206603E-02 0.12620589E+03</pdfrwt>
<pdfrwt beam="2">  1       21 0.28041447E+00 0.12620589E+03</pdfrwt>
<totfact> 0.16956570E+05</totfact>
</mgrwt>
</event>
<event>
 6    1  0.4187588E-002  0.1266079E+03  0.7546771E-02  0.1232578E+00
         21   -1    0    0  504  502  0.00000000000E+00  0.00000000000E+00  0.38161493541E+02  0.38161493541E+02  0.00000000000E+00 0.  1.
         21   -1    0    0  502  503 -0.00000000000E+00 -0.00000000000E+00 -0.14394295716E+03  0.14394295716E+03  0.00000000000E+00 0.  1.
         25    2    1    2    0    0  0.62765860130E+01  0.19172519346E+02 -0.99335770006E+02  0.16092597115E+03  0.12499036745E+03 0.  0.
          5    1    3    3  501    0 -0.13444236943E+02  0.56143881485E+01 -0.12499330909E+03  0.12583960497E+03  0.10000000000E+00 0. -1.
         -5    1    3    3    0  501  0.19720822956E+02  0.13558131198E+02  0.25657539084E+02  0.35086366177E+02  0.10000000000E+00 0. -1.
         21    1    1    2  504  503 -0.62765860130E+01 -0.19172519346E+02 -0.64456936116E+01  0.21178479554E+02  0.00000000000E+00 0.  1.
<mgrwt>
<rscale>  1 0.12660795E+03</rscale>
<asrwt>0</asrwt>
<pdfrwt beam="1">  1       21 0.58709990E-02 0.12660795E+03</pdfrwt>
<pdfrwt beam="2">  1       21 0.22145070E-01 0.12660795E+03</pdfrwt>
<totfact> 0.38512094E+06</totfact>
</mgrwt>
</event>
<event>
 6    1  0.4187588E-002  0.1303724E+03  0.7546771E-02  0.1226904E+00
         21   -1    0    0  504  502  0.00000000000E+00  0.00000000000E+00  0.74934873017E+02  0.74934873017E+02  0.00000000000E+00 0. -1.
         21   -1    0    0  502  503 -0.00000000000E+00 -0.00000000000E+00 -0.10531579827E+03  0.10531579827E+03  0.00000000000E+00 0. -1.
         25    2    1    2    0    0  0.17915350245E+02 -0.32423461804E+02 -0.48387629136E+02  0.13906229872E+03  0.12499887849E+03 0.  0.
          5    1    3    3  501    0  0.20755852673E+02 -0.37439919521E+02 -0.88620563849E+02  0.98418328226E+02  0.10000000000E+00 0. -1.
         -5    1    3    3    0  501 -0.28405024284E+01  0.50164577170E+01  0.40232934712E+02  0.40643970496E+02  0.10000000000E+00 0. -1.
         21    1    1    2  504  503 -0.17915350245E+02  0.32423461804E+02  0.18006703884E+02  0.41188372565E+02  0.00000000000E+00 0. -1.
<mgrwt>
<rscale>  1 0.13037239E+03</rscale>
<asrwt>0</asrwt>
<pdfrwt beam="1">  1       21 0.11528442E-01 0.13037239E+03</pdfrwt>
<pdfrwt beam="2">  1       21 0.16202430E-01 0.13037239E+03</pdfrwt>
<totfact> 0.21343942E+06</totfact>
</mgrwt>
</event>
<event>
 6    1  0.4187588E-002  0.1335470E+03  0.7546771E-02  0.1222286E+00
         21   -1    0    0  504  502  0.00000000000E+00  0.00000000000E+00  0.83256909642E+02  0.83256909642E+02  0.00000000000E+00 0. -1.
         21   -1    0    0  502  503 -0.00000000000E+00 -0.00000000000E+00 -0.28171609324E+03  0.28171609324E+03  0.00000000000E+00 0. -1.
         25    2    1    2    0    0 -0.46823330340E+02 -0.77435320535E+00 -0.25722708490E+03  0.28982854127E+03  0.12506712694E+03 0.  0.
          5    1    3    3  501    0 -0.77765884095E+02  0.30987483942E+02 -0.12566710746E+03  0.15099665158E+03  0.10000000000E+00 0. -1.
         -5    1    3    3    0  501  0.30942553754E+02 -0.31761837148E+02 -0.13155997744E+03  0.13883188969E+03  0.10000000000E+00 0. -1.
         21    1    1    2  504  503  0.46823330340E+02  0.77435320535E+00  0.58767901304E+02  0.75144461611E+02  0.00000000000E+00 0. -1.
<mgrwt>
<rscale>  1 0.13354703E+03</rscale>
<asrwt>0</asrwt>
<pdfrwt beam="1">  1       21 0.12808755E-01 0.13354703E+03</pdfrwt>
<pdfrwt beam="2">  1       21 0.43340937E-01 0.13354703E+03</pdfrwt>
<totfact> 0.27083515E+05</totfact>
</mgrwt>
</event>
<event>
 6    1  0.4187588E-002  0.1297275E+03  0.7546771E-02  0.1227861E+00
         21   -1    0    0  503  502  0.00000000000E+00  0.00000000000E+00  0.48839626151E+02  0.48839626151E+02  0.00000000000E+00 0. -1.
         21   -1    0    0  504  503 -0.00000000000E+00 -0.00000000000E+00 -0.14227207425E+03  0.14227207425E+03  0.00000000000E+00 0. -1.
         25    2    1    2    0    0 -0.15750780153E+01 -0.34666898592E+02 -0.60023114692E+02  0.14294056498E+03  0.12499982437E+03 0.  0.
          5    1    3    3  501    0 -0.22549966578E+02  0.18435877979E+01 -0.88997254185E+02  0.91828214951E+02  0.10000000000E+00 0.  1.
         -5    1    3    3    0  501  0.20974888563E+02 -0.36510486389E+02  0.28974139493E+02  0.51112350034E+02  0.10000000000E+00 0.  1.
         21    1    1    2  504  502  0.15750780153E+01  0.34666898592E+02 -0.33409333411E+02  0.48171135421E+02  0.00000000000E+00 0. -1.
<mgrwt>
<rscale>  1 0.12972753E+03</rscale>
<asrwt>0</asrwt>
<pdfrwt beam="1">  1       21 0.75137888E-02 0.12972753E+03</pdfrwt>
<pdfrwt beam="2">  1       21 0.21888011E-01 0.12972753E+03</pdfrwt>
<totfact> 0.25867845E+06</totfact>
</mgrwt>
</event>
<event>
 6    1  0.4187588E-002  0.1267163E+03  0.7546771E-02  0.1232411E+00
         21   -1    0    0  503  502  0.00000000000E+00  0.00000000000E+00  0.56015143621E+02  0.56015143621E+02  0.00000000000E+00 0.  1.
         21   -1    0    0  504  503 -0.00000000000E+00 -0.00000000000E+00 -0.98182563715E+02  0.98182563715E+02  0.00000000000E+00 0.  1.
         25    2    1    2    0    0  0.18915395251E+02 -0.86615640347E+01 -0.41654648349E+02  0.13338718587E+03  0.12499686698E+03 0.  0.
          5    1    3    3  501    0  0.39286826153E+02 -0.54578398515E+02 -0.48188633700E+02  0.82730953769E+02  0.10000000000E+00 0.  1.
         -5    1    3    3    0  501 -0.20371430901E+02  0.45916834480E+02  0.65339853510E+01  0.50656232097E+02  0.10000000000E+00 0.  1.
         21    1    1    2  504  502 -0.18915395251E+02  0.86615640347E+01 -0.51277174468E+00  0.20810521471E+02  0.00000000000E+00 0.  1.
<mgrwt>
<rscale>  1 0.12671634E+03</rscale>
<asrwt>0</asrwt>
<pdfrwt beam="1">  1       21 0.86177144E-02 0.12671634E+03</pdfrwt>
<pdfrwt beam="2">  1       21 0.15105010E-01 0.12671634E+03</pdfrwt>
<totfact> 0.40263860E+06</totfact>
</mgrwt>
</event>
<event>
 6    1  0.4187588E-002  0.1384883E+03  0.7546771E-02  0.1215378E+00
         21   -1    0    0  504  502  0.00000000000E+00  0.00000000000E+00  0.16435784287E+03  0.16435784287E+03  0.00000000000E+00 0. -1.
         21   -1    0    0  502  503 -0.00000000000E+00 -0.00000000000E+00 -0.73578514113E+02  0.73578514113E+02  0.00000000000E+00 0. -1.
         25    2    1    2    0    0  0.38341240938E+02  0.45645406818E+02  0.11806534982E+02  0.13899063410E+03  0.12500179270E+03 0.  0.
          5    1    3    3  501    0  0.76867609599E+02  0.19903524505E+02  0.35467457929E+02  0.86963959576E+02  0.10000000000E+00 0.  1.
         -5    1    3    3    0  501 -0.38526368661E+02  0.25741882313E+02 -0.23660922947E+02  0.52026674523E+02  0.10000000000E+00 0.  1.
         21    1    1    2  504  503 -0.38341240938E+02 -0.45645406818E+02  0.78972793777E+02  0.98945722885E+02  0.00000000000E+00 0. -1.
<mgrwt>
<rscale>  1 0.13848827E+03</rscale>
<asrwt>0</asrwt>
<pdfrwt beam="1">  1       21 0.25285822E-01 0.13848827E+03</pdfrwt>
<pdfrwt beam="2">  1       21 0.11319771E-01 0.13848827E+03</pdfrwt>
<totfact> 0.96702809E+05</totfact>
</mgrwt>
</event>
<event>
 6    1  0.4187588E-002  0.1289035E+03  0.7546771E-02  0.1229092E+00
         21   -1    0    0  504  502  0.00000000000E+00  0.00000000000E+00  0.52991559154E+02  0.52991559154E+02  0.00000000000E+00 0.  1.
         21   -1    0    0  502  503 -0.00000000000E+00 -0.00000000000E+00 -0.22910019729E+03  0.22910019729E+03  0.00000000000E+00 0.  1.
         25    2    1    2    0    0 -0.30131294576E+02  0.91483043278E+01 -0.20314312839E+03  0.24058934629E+03  0.12499806620E+03 0.  0.
          5    1    3    3  501    0  0.20233951941E+02 -0.46684681872E+02 -0.10745082191E+03  0.11888886180E+03  0.10000000000E+00 0. -1.
         -5    1    3    3    0  501 -0.50365246517E+02  0.55832986200E+02 -0.95692306483E+02  0.12170048449E+03  0.10000000000E+00 0. -1.
         21    1    1    2  504  503  0.30131294576E+02 -0.91483043278E+01  0.27034490254E+02  0.41502410150E+02  0.00000000000E+00 0.  1.
<mgrwt>
<rscale>  1 0.12890346E+03</rscale>
<asrwt>0</asrwt>
<pdfrwt beam="1">  1       21 0.81525474E-02 0.12890346E+03</pdfrwt>
<pdfrwt beam="2">  1       21 0.35246185E-01 0.12890346E+03</pdfrwt>
<totfact> 0.90333385E+05</totfact>
</mgrwt>
</event>
<event>
 6    1  0.4187588E-002  0.1289635E+03  0.7546771E-02  0.1229002E+00
         21   -1    0    0  504  502  0.00000000000E+00  0.00000000000E+00  0.20272312697E+02  0.20272312697E+02  0.00000000000E+00 0.  1.
         21   -1    0    0  502  503 -0.00000000000E+00 -0.00000000000E+00 -0.90178879059E+03  0.90178879059E+03  0.00000000000E+00 0.  1.
         25    2    1    2    0    0 -0.78311478016E+01  0.30742954090E+02 -0.88094157253E+03  0.89033120228E+03  0.12500055776E+03 0.  0.
          5    1    3    3  501    0 -0.45218259155E+02  0.64374656405E+02 -0.53304325891E+03  0.53881714265E+03  0.10000000000E+00 0. -1.
         -5    1    3    3    0  501  0.37387111353E+02 -0.33631702314E+02 -0.34789831362E+03  0.35151405962E+03  0.10000000000E+00 0. -1.
         21    1    1    2  504  503  0.78311478016E+01 -0.30742954090E+02 -0.57490536995E+00  0.31729901013E+02  0.00000000000E+00 0.  1.
<mgrwt>
<rscale>  1 0.12896354E+03</rscale>
<asrwt>0</asrwt>
<pdfrwt beam="1">  1       21 0.31188189E-02 0.12896354E+03</pdfrwt>
<pdfrwt beam="2">  1       21 0.13873667E+00 0.12896354E+03</pdfrwt>
<totfact> 0.22241723E+05</totfact>
</mgrwt>
</event>
<event>
 6    1  0.4187588E-002  0.1303455E+03  0.7546771E-02  0.1226944E+00
         21   -1    0    0  503  502  0.00000000000E+00  0.00000000000E+00  0.64888119244E+03  0.64888119244E+03  0.00000000000E+00 0.  1.
         21   -1    0    0  504  503 -0.00000000000E+00 -0.00000000000E+00 -0.12446450357E+03  0.12446450357E+03  0.00000000000E+00 0.  1.
         25    2    1    2    0    0 -0.35526213194E+02  0.10153617017E+02 -0.89630169483E+02  0.15818819421E+03  0.12499891897E+03 0.  0.
          5    1    3    3  501    0 -0.12430856980E+02 -0.41533054344E+02 -0.91813120936E+02  0.10153413212E+03  0.10000000000E+00 0. -1.
         -5    1    3    3    0  501 -0.23095356215E+02  0.51686671361E+02  0.21829514529E+01  0.56654062097E+02  0.10000000000E+00 0. -1.
         21    1    1    2  504  502  0.35526213194E+02 -0.10153617017E+02  0.61404685836E+03  0.61515750180E+03  0.00000000000E+00 0.  1.
<mgrwt>
<rscale>  1 0.13034545E+03</rscale>
<asrwt>0</asrwt>
<pdfrwt beam="1">  1       21 0.99827874E-01 0.13034545E+03</pdfrwt>
<pdfrwt beam="2">  1       21 0.19148385E-01 0.13034545E+03</pdfrwt>
<totfact> 0.21506347E+04</totfact>
</mgrwt>
</event>
<event>
 6    1  0.4187588E-002  0.1400994E+03  0.7546771E-02  0.1213195E+00
         21   -1    0    0  503  502  0.00000000000E+00  0.00000000000E+00  0.25518394991E+02  0.25518394991E+02  0.00000000000E+00 0.  1.
         21   -1    0    0  504  503 -0.00000000000E+00 -0.00000000000E+00 -0.56155960329E+03  0.56155960329E+03  0.00000000000E+00 0. -1.
         25    2    1    2    0    0  0.61472838807E+02  0.14972876681E+02 -0.48778480289E+03  0.50750553062E+03  0.12499901092E+03 0.  0.
          5    1    3    3  501    0  0.41264018985E+01 -0.21460044427E+02 -0.37640798354E+03  0.37704182894E+03  0.10000000000E+00 0. -1.
         -5    1    3    3    0  501  0.57346436909E+02  0.36432921108E+02 -0.11137681935E+03  0.13046370168E+03  0.10000000000E+00 0. -1.
         21    1    1    2  504  502 -0.61472838807E+02 -0.14972876681E+02 -0.48256405413E+02  0.79572467666E+02  0.00000000000E+00 0.  1.
<mgrwt>
<rscale>  1 0.14009943E+03</rscale>
<asrwt>0</asrwt>
<pdfrwt beam="1">  1       21 0.39259071E-02 0.14009943E+03</pdfrwt>
<pdfrwt beam="2">  1       21 0.86393781E-01 0.14009943E+03</pdfrwt>
<totfact> 0.47134482E+05</totfact>
</mgrwt>
</event>
<event>
 6    1  0.4187588E-002  0.1338546E+03  0.7546771E-02  0.1221846E+00
         21   -1    0    0  503  502  0.00000000000E+00  0.00000000000E+00  0.37928053342E+03  0.37928053342E+03  0.00000000000E+00 0.  1.
         21   -1    0    0  504  503 -0.00000000000E+00 -0.00000000000E+00 -0.23045401731E+02  0.23045401731E+02  0.00000000000E+00 0.  1.
         25    2    1    2    0    0 -0.36778497201E+02  0.30626693106E+02  0.21562539431E+03  0.25379395061E+03  0.12500562590E+03 0.  0.
          5    1    3    3  501    0  0.18021043148E+02  0.84920317294E+01 -0.87548057512E+01  0.21760726614E+02  0.10000000000E+00 0. -1.
         -5    1    3    3    0  501 -0.54799540348E+02  0.22134661376E+02  0.22438020006E+03  0.23203322399E+03  0.10000000000E+00 0. -1.
         21    1    1    2  504  502  0.36778497201E+02 -0.30626693106E+02  0.14060973738E+03  0.14853198455E+03  0.00000000000E+00 0.  1.
<mgrwt>
<rscale>  1 0.13385462E+03</rscale>
<asrwt>0</asrwt>
<pdfrwt beam="1">  1       21 0.58350847E-01 0.13385462E+03</pdfrwt>
<pdfrwt beam="2">  1       21 0.35454467E-02 0.13385462E+03</pdfrwt>
<totfact> 0.13192873E+06</totfact>
</mgrwt>
</event>
<event>
 6    1  0.4187588E-002  0.1276811E+03  0.7546771E-02  0.1230938E+00
         21   -1    0    0  504  502  0.00000000000E+00  0.00000000000E+00  0.25373729061E+03  0.25373729061E+03  0.00000000000E+00 0. -1.
         21   -1    0    0  502  503 -0.00000000000E+00 -0.00000000000E+00 -0.23363429817E+02  0.23363429817E+02  0.00000000000E+00 0. -1.
         25    2    1    2    0    0 -0.25923937511E+02  0.23544832865E+01  0.19733202745E+03  0.23503699641E+03  0.12499946598E+03 0.  0.
          5    1    3    3  501    0 -0.37796180106E+02 -0.55291651998E+02  0.84960190349E+02  0.10818485086E+03  0.10000000000E+00 0. -1.
         -5    1    3    3    0  501  0.11872242596E+02  0.57646135284E+02  0.11237183710E+03  0.12685214555E+03  0.10000000000E+00 0. -1.
         21    1    1    2  504  503  0.25923937511E+02 -0.23544832865E+01  0.33041833347E+02  0.42063724021E+02  0.00000000000E+00 0.  1.
<mgrwt>
<rscale>  1 0.12768109E+03</rscale>
<asrwt>0</asrwt>
<pdfrwt beam="1">  1       21 0.39036504E-01 0.12768109E+03</pdfrwt>
<pdfrwt beam="2">  1       21 0.35943740E-02 0.12768109E+03</pdfrwt>
<totfact> 0.29383869E+06</totfact>
</mgrwt>
</event>
<event>
 6    1  0.4187588E-002  0.1292681E+03  0.7546771E-02  0.1228546E+00
         21   -1    0    0  504  502  0.00000000000E+00  0.00000000000E+00  0.38974208122E+02  0.38974208122E+02  0.00000000000E+00 0.  1.
         21   -1    0    0  502  503 -0.00000000000E+00 -0.00000000000E+00 -0.20980273794E+03  0.20980273794E+03  0.00000000000E+00 0.  1.
         25    2    1    2    0    0  0.18513185337E+02  0.27240485491E+02 -0.17277783277E+03  0.21578328208E+03  0.12500185297E+03 0.  0.
          5    1    3    3  501    0  0.26414920118E+02 -0.19490545956E+02 -0.16441062845E+03  0.16765588010E+03  0.10000000000E+00 0.  1.
         -5    1    3    3    0  501 -0.79017347814E+01  0.46731031447E+02 -0.83672043203E+01  0.48127401974E+02  0.10000000000E+00 0.  1.
         21    1    1    2  504  503 -0.18513185337E+02 -0.27240485491E+02  0.19493029513E+01  0.32993663984E+02  0.00000000000E+00 0.  1.
<mgrwt>
<rscale>  1 0.12926811E+03</rscale>
<asrwt>0</asrwt>
<pdfrwt beam="1">  1       21 0.59960321E-02 0.12926811E+03</pdfrwt>
<pdfrwt beam="2">  1       21 0.32277344E-01 0.12926811E+03</pdfrwt>
<totfact> 0.18149151E+06</totfact>
</mgrwt>
</event>
<event>
 6    1  0.4187588E-002  0.1264445E+03  0.7546771E-02  0.1232829E+00
         21   -1    0    0  503  502  0.00000000000E+00  0.00000000000E+00  0.10588725106E+03  0.10588725106E+03  0.00000000000E+00 0. -1.
         21   -1    0    0  504  503 -0.00000000000E+00 -0.00000000000E+00 -0.35214378645E+03  0.35214378645E+03  0.00000000000E+00 0. -1.
         25    2    1    2    0    0 -0.53747267194E+01 -0.18252263447E+02 -0.33980450852E+03  0.36256766190E+03  0.12500469048E+03 0.  0.
          5    1    3    3  501    0  0.81309391517E+01  0.10945204727E+02 -0.32802597857E+03  0.32830924795E+03  0.10000000000E+00 0.  1.
         -5    1    3    3    0  501 -0.13505665871E+02 -0.29197468174E+02 -0.11778529949E+02  0.34258413947E+02  0.10000000000E+00 0.  1.
         21    1    1    2  504  502  0.53747267194E+01  0.18252263447E+02  0.93547973117E+02  0.95463375609E+02  0.00000000000E+00 0. -1.
<mgrwt>
<rscale>  1 0.12644448E+03</rscale>
<asrwt>0</asrwt>
<pdfrwt beam="1">  1       21 0.16290346E-01 0.12644448E+03</pdfrwt>
<pdfrwt beam="2">  1       21 0.54175968E-01 0.12644448E+03</pdfrwt>
<totfact> 0.11137384E+05</totfact>
</mgrwt>
</event>
<event>
 6    1  0.4187588E-002  0.1359896E+03  0.7546771E-02  0.1218829E+00
         21   -1    0    0  503  502  0.00000000000E+00  0.00000000000E+00  0.53726550853E+02  0.53726550853E+02  0.00000000000E+00 0. -1.
         21   -1    0    0  504  503 -0.00000000000E+00 -0.00000000000E+00 -0.38622696308E+03  0.38622696308E+03  0.00000000000E+00 0.  1.
         25    2    1    2    0    0 -0.23062310267E+02  0.48328044159E+02 -0.35628834704E+03  0.38135883969E+03  0.12500283342E+03 0.  0.
          5    1    3    3  501    0 -0.41148868927E+02  0.61372955314E+02 -0.10123884648E+03  0.12533628004E+03  0.10000000000E+00 0. -1.
         -5    1    3    3    0  501  0.18086558660E+02 -0.13044911154E+02 -0.25504950057E+03  0.25602255965E+03  0.10000000000E+00 0. -1.
         21    1    1    2  504  502  0.23062310267E+02 -0.48328044159E+02  0.23787934815E+02  0.58594674245E+02  0.00000000000E+00 0. -1.
<mgrwt>
<rscale>  1 0.13598963E+03</rscale>
<asrwt>0</asrwt>
<pdfrwt beam="1">  1       21 0.82656233E-02 0.13598963E+03</pdfrwt>
<pdfrwt beam="2">  1       21 0.59419532E-01 0.13598963E+03</pdfrwt>
<totfact> 0.30375841E+05</totfact>
</mgrwt>
</event>
<event>
 6    1  0.4187588E-002  0.1262236E+03  0.7546771E-02  0.1233169E+00
         21   -1    0    0  503  502  0.00000000000E+00  0.00000000000E+00  0.61593440387E+03  0.61593440387E+03  0.00000000000E+00 0. -1.
         21   -1    0    0  504  503 -0.00000000000E+00 -0.00000000000E+00 -0.98599345191E+02  0.98599345191E+02  0.00000000000E+00 0.  1.
         25    2    1    2    0    0 -0.17164438330E+02  0.35901302796E+01 -0.58014130204E+02  0.13891738713E+03  0.12499957665E+03 0.  0.
          5    1    3    3  501    0  0.24848323885E+02  0.54205011327E+01 -0.85151650168E+02  0.88868636530E+02  0.10000000000E+00 0. -1.
         -5    1    3    3    0  501 -0.42012762215E+02 -0.18303708531E+01  0.27137519963E+02  0.50048750596E+02  0.10000000000E+00 0. -1.
         21    1    1    2  504  502  0.17164438330E+02 -0.35901302796E+01  0.57534918888E+03  0.57561636193E+03  0.00000000000E+00 0. -1.
<mgrwt>
<rscale>  1 0.12622362E+03</rscale>
<asrwt>0</asrwt>
<pdfrwt beam="1">  1       21 0.94759137E-01 0.12622362E+03</pdfrwt>
<pdfrwt beam="2">  1       21 0.15169130E-01 0.12622362E+03</pdfrwt>
<totfact> 0.37216438E+04</totfact>
</mgrwt>
</event>
<event>
 6    1  0.4187588E-002  0.1292365E+03  0.7546771E-02  0.1228593E+00
         21   -1    0    0  504  502  0.00000000000E+00  0.00000000000E+00  0.51299683185E+01  0.51299683185E+01  0.00000000000E+00 0.  1.
         21   -1    0    0  502  503 -0.00000000000E+00 -0.00000000000E+00 -0.14634745665E+04  0.14634745665E+04  0.00000000000E+00 0.  1.
         25    2    1    2    0    0 -0.95903963322E+00 -0.32779036375E+02 -0.13249595953E+04  0.13312475402E+04  0.12500679608E+03 0.  0.
          5    1    3    3  501    0 -0.50029659680E+02  0.96225208860E+01 -0.89243418415E+03  0.89388720921E+03  0.10000000000E+00 0. -1.
         -5    1    3    3    0  501  0.49070620046E+02 -0.42401557261E+02 -0.43252541120E+03  0.43736033101E+03  0.10000000000E+00 0. -1.
         21    1    1    2  504  503  0.95903963322E+00  0.32779036375E+02 -0.13338500279E+03  0.13735699455E+03  0.00000000000E+00 0.  1.
<mgrwt>
<rscale>  1 0.12923654E+03</rscale>
<asrwt>0</asrwt>
<pdfrwt beam="1">  1       21 0.78922547E-03 0.12923654E+03</pdfrwt>
<pdfrwt beam="2">  1       21 0.22515006E+00 0.12923654E+03</pdfrwt>
<totfact> 0.52593046E+05</totfact>
</mgrwt>
</event>
<event>
 6    1  0.4187588E-002  0.1266090E+03  0.7546771E-02  0.1232576E+00
         21   -1    0    0  503  502  0.00000000000E+00  0.00000000000E+00  0.55063076716E+02  0.55063076716E+02  0.00000000000E+00 0. -1.
         21   -1    0    0  504  503 -0.00000000000E+00 -0.00000000000E+00 -0.10233333144E+03  0.10233333144E+03  0.00000000000E+00 0. -1.
         25    2    1    2    0    0 -0.59478202220E+01  0.19254021182E+02 -0.51709462229E+02  0.13676147514E+03  0.12499495470E+03 0.  0.
          5    1    3    3  501    0  0.41315591124E+02  0.53960102101E+02 -0.26874585186E+02  0.73081625718E+02  0.10000000000E+00 0.  1.
         -5    1    3    3    0  501 -0.47263411346E+02 -0.34706080919E+02 -0.24834877042E+02  0.63679849423E+02  0.10000000000E+00 0.  1.
         21    1    1    2  504  502  0.59478202220E+01 -0.19254021182E+02  0.44392075085E+01  0.20634933011E+02  0.00000000000E+00 0. -1.
<mgrwt>
<rscale>  1 0.12660898E+03</rscale>
<asrwt>0</asrwt>
<pdfrwt beam="1">  1       21 0.84712427E-02 0.12660898E+03</pdfrwt>
<pdfrwt beam="2">  1       21 0.15743589E-01 0.12660898E+03</pdfrwt>
<totfact> 0.38486152E+06</totfact>
</mgrwt>
</event>
<event>
 6    1  0.4187588E-002  0.1345404E+03  0.7546771E-02  0.1220870E+00
         21   -1    0    0  504  502  0.00000000000E+00  0.00000000000E+00  0.11305526871E+02  0.11305526871E+02  0.00000000000E+00 0.  1.
         21   -1    0    0  502  503 -0.00000000000E+00 -0.00000000000E+00 -0.21034974413E+04  0.21034974413E+04  0.00000000000E+00 0. -1.
         25    2    1    2    0    0  0.48547781251E+02 -0.10909894812E+02 -0.20331210324E+04  0.20375677303E+04  0.12500084060E+03 0.  0.
          5    1    3    3  501    0  0.40341787349E+02 -0.47578657016E+02 -0.18260386798E+04  0.18271038445E+04  0.10000000000E+00 0.  1.
         -5    1    3    3    0  501  0.82059939026E+01  0.36668762204E+02 -0.20708235257E+03  0.21046388574E+03  0.10000000000E+00 0.  1.
         21    1    1    2  504  503 -0.48547781251E+02  0.10909894812E+02 -0.59070881980E+02  0.77235237859E+02  0.00000000000E+00 0.  1.
<mgrwt>
<rscale>  1 0.13454041E+03</rscale>
<asrwt>0</asrwt>
<pdfrwt beam="1">  1       21 0.17393138E-02 0.13454041E+03</pdfrwt>
<pdfrwt beam="2">  1       21 0.32361463E+00 0.13454041E+03</pdfrwt>
<totfact> 0.41081324E+04</totfact>
</mgrwt>
</event>
<event>
 6    1  0.4187588E-002  0.1339544E+03  0.7546771E-02  0.1221703E+00
         21   -1    0    0  504  502  0.00000000000E+00  0.00000000000E+00  0.27912623527E+02  0.27912623527E+02  0.00000000000E+00 0.  1.
         21   -1    0    0  502  503 -0.00000000000E+00 -0.00000000000E+00 -0.31277052545E+03  0.31277052545E+03  0.00000000000E+00 0.  1.
         25    2    1    2    0    0  0.15684112528E+01 -0.48220989248E+02 -0.23975161947E+03  0.27463543566E+03  0.12496423393E+03 0.  0.
          5    1    3    3  501    0  0.47188977333E+02  0.90395243773E+01 -0.15680111186E+03  0.16399729041E+03  0.10000000000E+00 0.  1.
         -5    1    3    3    0  501 -0.45620566080E+02 -0.57260513625E+02 -0.82950507608E+02  0.11063814524E+03  0.10000000000E+00 0.  1.
         21    1    1    2  504  503 -0.15684112528E+01  0.48220989248E+02 -0.45106282455E+02  0.66047713320E+02  0.00000000000E+00 0.  1.
<mgrwt>
<rscale>  1 0.13395441E+03</rscale>
<asrwt>0</asrwt>
<pdfrwt beam="1">  1       21 0.42942499E-02 0.13395441E+03</pdfrwt>
<pdfrwt beam="2">  1       21 0.48118541E-01 0.13395441E+03</pdfrwt>
<totfact> 0.14342490E+06</totfact>
</mgrwt>
</event>
<event>
 6    1  0.4187588E-002  0.1270418E+03  0.7546771E-02  0.1231912E+00
         21   -1    0    0  503  502  0.00000000000E+00  0.00000000000E+00  0.25065095694E+02  0.25065095694E+02  0.00000000000E+00 0.  1.
         21   -1    0    0  504  503 -0.00000000000E+00 -0.00000000000E+00 -0.30221620758E+03  0.30221620758E+03  0.00000000000E+00 0.  1.
         25    2    1    2    0    0  0.97917058112E+01 -0.20445113459E+02 -0.27685356936E+03  0.30461042551E+03  0.12500292913E+03 0.  0.
          5    1    3    3  501    0  0.31211960491E+02  0.46591256432E+02 -0.10839682271E+03  0.12204430682E+03  0.10000000000E+00 0. -1.
         -5    1    3    3    0  501 -0.21420254680E+02 -0.67036369891E+02 -0.16845674665E+03  0.18256611868E+03  0.10000000000E+00 0. -1.
         21    1    1    2  504  502 -0.97917058112E+01  0.20445113459E+02 -0.29754251878E+00  0.22670877764E+02  0.00000000000E+00 0.  1.
<mgrwt>
<rscale>  1 0.12704177E+03</rscale>
<asrwt>0</asrwt>
<pdfrwt beam="1">  1       21 0.38561687E-02 0.12704177E+03</pdfrwt>
<pdfrwt beam="2">  1       21 0.46494800E-01 0.12704177E+03</pdfrwt>
<totfact> 0.18383497E+06</totfact>
</mgrwt>
</event>
<event>
 6    1  0.4187588E-002  0.1260529E+03  0.7546771E-02  0.1233433E+00
         21   -1    0    0  503  502  0.00000000000E+00  0.00000000000E+00  0.53340028160E+03  0.53340028160E+03  0.00000000000E+00 0.  1.
         21   -1    0    0  504  503 -0.00000000000E+00 -0.00000000000E+00 -0.99852737385E+01  0.99852737385E+01  0.00000000000E+00 0.  1.
         25    2    1    2    0    0  0.14035175257E+02  0.83683641641E+01  0.49298946569E+03  0.50884964244E+03  0.12498931821E+03 0.  0.
          5    1    3    3  501    0  0.60369299645E+02 -0.28442892308E+02  0.27329002139E+03  0.28131991799E+03  0.10000000000E+00 0.  1.
         -5    1    3    3    0  501 -0.46334124387E+02  0.36811256472E+02  0.21969944430E+03  0.22752972445E+03  0.10000000000E+00 0.  1.
         21    1    1    2  504  502 -0.14035175257E+02 -0.83683641641E+01  0.30425542167E+02  0.34535912894E+02  0.00000000000E+00 0. -1.
<mgrwt>
<rscale>  1 0.12605295E+03</rscale>
<asrwt>0</asrwt>
<pdfrwt beam="1">  1       21 0.82061559E-01 0.12605295E+03</pdfrwt>
<pdfrwt beam="2">  1       21 0.15361964E-02 0.12605295E+03</pdfrwt>
<totfact> 0.24396584E+06</totfact>
</mgrwt>
</event>
<event>
 6    1  0.4187588E-002  0.1269396E+03  0.7546771E-02  0.1232069E+00
         21   -1    0    0  504  502  0.00000000000E+00  0.00000000000E+00  0.11728551142E+02  0.11728551142E+02  0.00000000000E+00 0. -1.
         21   -1    0    0  502  503 -0.00000000000E+00 -0.00000000000E+00 -0.50505649431E+03  0.50505649431E+03  0.00000000000E+00 0. -1.
         25    2    1    2    0    0  0.13586458324E+02  0.17395913160E+02 -0.45676663306E+03  0.47407744611E+03  0.12500583264E+03 0.  0.
          5    1    3    3  501    0 -0.42005520236E+01  0.70658997004E+02 -0.25369418043E+03  0.26338391310E+03  0.10000000000E+00 0. -1.
         -5    1    3    3    0  501  0.17787010347E+02 -0.53263083844E+02 -0.20307245263E+03  0.21069353301E+03  0.10000000000E+00 0. -1.
         21    1    1    2  504  503 -0.13586458324E+02 -0.17395913160E+02 -0.36561310107E+02  0.42707599338E+02  0.00000000000E+00 0. -1.
<mgrwt>
<rscale>  1 0.12693962E+03</rscale>
<asrwt>0</asrwt>
<pdfrwt beam="1">  1       21 0.18043928E-02 0.12693962E+03</pdfrwt>
<pdfrwt beam="2">  1       21 0.77700985E-01 0.12693962E+03</pdfrwt>
<totfact> 0.21299228E+06</totfact>
</mgrwt>
</event>
<event>
 6    1  0.4187588E-002  0.1829696E+03  0.7546771E-02  0.1164960E+00
         21   -1    0    0  504  502  0.00000000000E+00  0.00000000000E+00  0.55638774929E+02  0.55638774929E+02  0.00000000000E+00 0. -1.
         21   -1    0    0  502  503 -0.00000000000E+00 -0.00000000000E+00 -0.19085970145E+04  0.19085970145E+04  0.00000000000E+00 0. -1.
         25    2    1    2    0    0 -0.13360821489E+03 -0.63583248590E+00 -0.18165675917E+04  0.18257589372E+04  0.12500528784E+03 0.  0.
          5    1    3    3  501    0 -0.79456019149E+02 -0.46231311336E+02 -0.58693981972E+03  0.59409507245E+03  0.10000000000E+00 0. -1.
         -5    1    3    3    0  501 -0.54152195742E+02  0.45595478850E+02 -0.12296277720E+04  0.12316638647E+04  0.10000000000E+00 0. -1.
         21    1    1    2  504  503  0.13360821489E+03  0.63583248590E+00 -0.36390647889E+02  0.13847685230E+03  0.00000000000E+00 0. -1.
<mgrwt>
<rscale>  1 0.18296962E+03</rscale>
<asrwt>0</asrwt>
<pdfrwt beam="1">  1       21 0.85598115E-02 0.18296962E+03</pdfrwt>
<pdfrwt beam="2">  1       21 0.29363031E+00 0.18296962E+03</pdfrwt>
<totfact> 0.40074350E+03</totfact>
</mgrwt>
</event>
<event>
 6    1  0.4187588E-002  0.1266835E+03  0.7546771E-02  0.1232462E+00
         21   -1    0    0  503  502  0.00000000000E+00  0.00000000000E+00  0.25989218578E+03  0.25989218578E+03  0.00000000000E+00 0. -1.
         21   -1    0    0  504  503 -0.00000000000E+00 -0.00000000000E+00 -0.20963927209E+02  0.20963927209E+02  0.00000000000E+00 0. -1.
         25    2    1    2    0    0 -0.20056095828E+02 -0.45913364553E+01  0.19823105631E+03  0.23525359527E+03  0.12500150020E+03 0.  0.
          5    1    3    3  501    0  0.18183078020E+02 -0.27576621977E+02  0.10082460885E+01  0.33047253534E+02  0.10000000000E+00 0. -1.
         -5    1    3    3    0  501 -0.38239173848E+02  0.22985285522E+02  0.19722281022E+03  0.20220634174E+03  0.10000000000E+00 0. -1.
         21    1    1    2  504  502  0.20056095828E+02  0.45913364553E+01  0.40697202262E+02  0.45602517719E+02  0.00000000000E+00 0. -1.
<mgrwt>
<rscale>  1 0.12668347E+03</rscale>
<asrwt>0</asrwt>
<pdfrwt beam="1">  1       21 0.39983411E-01 0.12668347E+03</pdfrwt>
<pdfrwt beam="2">  1       21 0.32252197E-02 0.12668347E+03</pdfrwt>
<totfact> 0.33481702E+06</totfact>
</mgrwt>
</event>
<event>
 6    1  0.4187588E-002  0.1313178E+03  0.7546771E-02  0.1225513E+00
         21   -1    0    0  504  502  0.00000000000E+00  0.00000000000E+00  0.12939827481E+02  0.12939827481E+02  0.00000000000E+00 0. -1.
         21   -1    0    0  502  503 -0.00000000000E+00 -0.00000000000E+00 -0.67235503178E+03  0.67235503178E+03  0.00000000000E+00 0. -1.
         25    2    1    2    0    0  0.42702517212E+01 -0.40017615486E+02 -0.59517396357E+03  0.60948864837E+03  0.12499888392E+03 0.  0.
          5    1    3    3  501    0  0.34491706688E+02 -0.52970527085E+02 -0.14578999507E+03  0.15890338962E+03  0.10000000000E+00 0.  1.
         -5    1    3    3    0  501 -0.30221454966E+02  0.12952911599E+02 -0.44938396851E+03  0.45058525876E+03  0.10000000000E+00 0.  1.
         21    1    1    2  504  503 -0.42702517212E+01  0.40017615486E+02 -0.64241240723E+02  0.75806210883E+02  0.00000000000E+00 0. -1.
<mgrwt>
<rscale>  1 0.13131780E+03</rscale>
<asrwt>0</asrwt>
<pdfrwt beam="1">  1       21 0.19907426E-02 0.13131780E+03</pdfrwt>
<pdfrwt beam="2">  1       21 0.10343924E+00 0.13131780E+03</pdfrwt>
<totfact> 0.94523007E+05</totfact>
</mgrwt>
</event>
<event>
 6    1  0.4187588E-002  0.1292772E+03  0.7546771E-02  0.1228532E+00
         21   -1    0    0  503  502  0.00000000000E+00  0.00000000000E+00  0.68714767737E+01  0.68714767737E+01  0.00000000000E+00 0.  1.
         21   -1    0    0  504  503 -0.00000000000E+00 -0.00000000000E+00 -0.10921440239E+04  0.10921440239E+04  0.00000000000E+00 0.  1.
         25    2    1    2    0    0 -0.30437315620E+01  0.32852834029E+02 -0.98516838955E+03  0.99361428925E+03  0.12499610803E+03 0.  0.
          5    1    3    3  501    0  0.57345927764E+02  0.12007296917E+02 -0.31457799807E+03  0.31998758957E+03  0.10000000000E+00 0.  1.
         -5    1    3    3    0  501 -0.60389659326E+02  0.20845537112E+02 -0.67059039149E+03  0.67362669968E+03  0.10000000000E+00 0.  1.
         21    1    1    2  504  502  0.30437315620E+01 -0.32852834029E+02 -0.10010415754E+03  0.10540121139E+03  0.00000000000E+00 0.  1.
<mgrwt>
<rscale>  1 0.12927722E+03</rscale>
<asrwt>0</asrwt>
<pdfrwt beam="1">  1       21 0.10571497E-02 0.12927722E+03</pdfrwt>
<pdfrwt beam="2">  1       21 0.16802225E+00 0.12927722E+03</pdfrwt>
<totfact> 0.76902020E+05</totfact>
</mgrwt>
</event>
<event>
 6    1  0.4187588E-002  0.1261464E+03  0.7546771E-02  0.1233288E+00
         21   -1    0    0  503  502  0.00000000000E+00  0.00000000000E+00  0.25458737788E+03  0.25458737788E+03  0.00000000000E+00 0.  1.
         21   -1    0    0  504  503 -0.00000000000E+00 -0.00000000000E+00 -0.21973812196E+02  0.21973812196E+02  0.00000000000E+00 0.  1.
         25    2    1    2    0    0  0.15035466490E+02 -0.76570201666E+01  0.16985611912E+03  0.21157509688E+03  0.12501290015E+03 0.  0.
          5    1    3    3  501    0 -0.41521204433E+02  0.32196402738E+02  0.10161889141E+03  0.11439854832E+03  0.10000000000E+00 0.  1.
         -5    1    3    3    0  501  0.56556670923E+02 -0.39853422905E+02  0.68237227713E+02  0.97176548555E+02  0.10000000000E+00 0.  1.
         21    1    1    2  504  502 -0.15035466490E+02  0.76570201666E+01  0.62757446556E+02  0.64986093194E+02  0.00000000000E+00 0.  1.
<mgrwt>
<rscale>  1 0.12614642E+03</rscale>
<asrwt>0</asrwt>
<pdfrwt beam="1">  1       21 0.39167287E-01 0.12614642E+03</pdfrwt>
<pdfrwt beam="2">  1       21 0.33805867E-02 0.12614642E+03</pdfrwt>
<totfact> 0.32282819E+06</totfact>
</mgrwt>
</event>
<event>
 6    1  0.4187588E-002  0.1264614E+03  0.7546771E-02  0.1232803E+00
         21   -1    0    0  504  502  0.00000000000E+00  0.00000000000E+00  0.70531034210E+02  0.70531034210E+02  0.00000000000E+00 0. -1.
         21   -1    0    0  502  503 -0.00000000000E+00 -0.00000000000E+00 -0.10701024048E+03  0.10701024048E+03  0.00000000000E+00 0. -1.
         25    2    1    2    0    0  0.13669451551E+02 -0.13359433504E+02 -0.65788524235E+02  0.14255035460E+03  0.12500858094E+03 0.  0.
          5    1    3    3  501    0  0.39625644360E+02 -0.12256401936E+02  0.24788782095E+02  0.48320852611E+02  0.10000000000E+00 0. -1.
         -5    1    3    3    0  501 -0.25956192809E+02 -0.11030315682E+01 -0.90577306330E+02  0.94229501993E+02  0.10000000000E+00 0. -1.
         21    1    1    2  504  503 -0.13669451551E+02  0.13359433504E+02  0.29309317963E+02  0.34990920089E+02  0.00000000000E+00 0. -1.
<mgrwt>
<rscale>  1 0.12646135E+03</rscale>
<asrwt>0</asrwt>
<pdfrwt beam="1">  1       21 0.10850928E-01 0.12646135E+03</pdfrwt>
<pdfrwt beam="2">  1       21 0.16463114E-01 0.12646135E+03</pdfrwt>
<totfact> 0.23048211E+06</totfact>
</mgrwt>
</event>
<event>
 6    1  0.4187588E-002  0.1278717E+03  0.7546771E-02  0.1230648E+00
         21   -1    0    0  503  502  0.00000000000E+00  0.00000000000E+00  0.53227943775E+01  0.53227943775E+01  0.00000000000E+00 0. -1.
         21   -1    0    0  504  503 -0.00000000000E+00 -0.00000000000E+00 -0.11508072870E+04  0.11508072870E+04  0.00000000000E+00 0. -1.
         25    2    1    2    0    0  0.82611205399E+01  0.25668624661E+02 -0.87311312824E+03  0.88242716846E+03  0.12499619404E+03 0.  0.
          5    1    3    3  501    0 -0.27533047550E+02 -0.37700759472E+02 -0.19929032776E+03  0.20468527233E+03  0.10000000000E+00 0.  1.
         -5    1    3    3    0  501  0.35794168090E+02  0.63369384134E+02 -0.67382280048E+03  0.67774189613E+03  0.10000000000E+00 0.  1.
         21    1    1    2  504  502 -0.82611205399E+01 -0.25668624661E+02 -0.27237136440E+03  0.27370291294E+03  0.00000000000E+00 0. -1.
<mgrwt>
<rscale>  1 0.12787170E+03</rscale>
<asrwt>0</asrwt>
<pdfrwt beam="1">  1       21 0.81889183E-03 0.12787170E+03</pdfrwt>
<pdfrwt beam="2">  1       21 0.17704719E+00 0.12787170E+03</pdfrwt>
<totfact> 0.99694139E+05</totfact>
</mgrwt>
</event>
<event>
 6    1  0.4187588E-002  0.1265501E+03  0.7546771E-02  0.1232666E+00
         21   -1    0    0  504  502  0.00000000000E+00  0.00000000000E+00  0.14570251431E+03  0.14570251431E+03  0.00000000000E+00 0. -1.
         21   -1    0    0  502  503 -0.00000000000E+00 -0.00000000000E+00 -0.36971999981E+02  0.36971999981E+02  0.00000000000E+00 0. -1.
         25    2    1    2    0    0  0.47361625513E+00 -0.19726105896E+02  0.99003326715E+02  0.16067538374E+03  0.12500230667E+03 0.  0.
          5    1    3    3  501    0 -0.32566329189E+02 -0.61721842344E+02  0.73880726652E+02  0.10162934315E+03  0.10000000000E+00 0. -1.
         -5    1    3    3    0  501  0.33039945445E+02  0.41995736447E+02  0.25122600063E+02  0.59046040584E+02  0.10000000000E+00 0. -1.
         21    1    1    2  504  503 -0.47361625513E+00  0.19726105896E+02  0.97271876135E+01  0.21999130552E+02  0.00000000000E+00 0. -1.
<mgrwt>
<rscale>  1 0.12655007E+03</rscale>
<asrwt>0</asrwt>
<pdfrwt beam="1">  1       21 0.22415771E-01 0.12655007E+03</pdfrwt>
<pdfrwt beam="2">  1       21 0.56880001E-02 0.12655007E+03</pdfrwt>
<totfact> 0.39718686E+06</totfact>
</mgrwt>
</event>
<event>
 6    1  0.4187588E-002  0.1291098E+03  0.7546771E-02  0.1228783E+00
         21   -1    0    0  503  502  0.00000000000E+00  0.00000000000E+00  0.14997826614E+03  0.14997826614E+03  0.00000000000E+00 0.  1.
         21   -1    0    0  504  503 -0.00000000000E+00 -0.00000000000E+00 -0.79312118804E+02  0.79312118804E+02  0.00000000000E+00 0.  1.
         25    2    1    2    0    0 -0.29367503648E+02  0.13578201107E+02 -0.22150563355E+02  0.13099613486E+03  0.12499008791E+03 0.  0.
          5    1    3    3  501    0 -0.23092560319E+02 -0.45668564619E+02 -0.44047983802E+02  0.67521248608E+02  0.10000000000E+00 0. -1.
         -5    1    3    3    0  501 -0.62749433289E+01  0.59246765726E+02  0.21897420448E+02  0.63474886254E+02  0.10000000000E+00 0. -1.
         21    1    1    2  504  502  0.29367503648E+02 -0.13578201107E+02  0.92816710693E+02  0.98294250085E+02  0.00000000000E+00 0.  1.
<mgrwt>
<rscale>  1 0.12910980E+03</rscale>
<asrwt>0</asrwt>
<pdfrwt beam="1">  1       21 0.23073579E-01 0.12910980E+03</pdfrwt>
<pdfrwt beam="2">  1       21 0.12201864E-01 0.12910980E+03</pdfrwt>
<totfact> 0.10057334E+06</totfact>
</mgrwt>
</event>
<event>
 6    1  0.4187588E-002  0.1777959E+03  0.7546771E-02  0.1169953E+00
         21   -1    0    0  504  502  0.00000000000E+00  0.00000000000E+00  0.57712662437E+02  0.57712662437E+02  0.00000000000E+00 0.  1.
         21   -1    0    0  502  503 -0.00000000000E+00 -0.00000000000E+00 -0.48115728916E+03  0.48115728916E+03  0.00000000000E+00 0.  1.
         25    2    1    2    0    0  0.10817719012E+03 -0.65447988548E+02 -0.35020831269E+03  0.39275595035E+03  0.12500252234E+03 0.  0.
          5    1    3    3  501    0  0.76127108150E+02 -0.87084743528E+02 -0.15305546159E+03  0.19184648413E+03  0.10000000000E+00 0.  1.
         -5    1    3    3    0  501  0.32050081969E+02  0.21636754979E+02 -0.19715285109E+03  0.20090946622E+03  0.10000000000E+00 0.  1.
         21    1    1    2  504  503 -0.10817719012E+03  0.65447988548E+02 -0.73236314033E+02  0.14611400125E+03  0.00000000000E+00 0.  1.
<mgrwt>
<rscale>  1 0.17779588E+03</rscale>
<asrwt>0</asrwt>
<pdfrwt beam="1">  1       21 0.88788710E-02 0.17779588E+03</pdfrwt>
<pdfrwt beam="2">  1       21 0.74024200E-01 0.17779588E+03</pdfrwt>
<totfact> 0.16455467E+05</totfact>
</mgrwt>
</event>
<event>
 6    1  0.4187588E-002  0.1260838E+03  0.7546771E-02  0.1233385E+00
         21   -1    0    0  503  502  0.00000000000E+00  0.00000000000E+00  0.58116191943E+02  0.58116191943E+02  0.00000000000E+00 0. -1.
         21   -1    0    0  504  503 -0.00000000000E+00 -0.00000000000E+00 -0.10680041361E+03  0.10680041361E+03  0.00000000000E+00 0. -1.
         25    2    1    2    0    0 -0.15765152230E+02 -0.44953991929E+01 -0.64944172257E+02  0.14182689721E+03  0.12501349776E+03 0.  0.
          5    1    3    3  501    0 -0.49379313072E+02  0.44204479454E+02 -0.41386036364E+02  0.78135565329E+02  0.10000000000E+00 0. -1.
         -5    1    3    3    0  501  0.33614160843E+02 -0.48699878647E+02 -0.23558135894E+02  0.63691331877E+02  0.10000000000E+00 0. -1.
         21    1    1    2  504  502  0.15765152230E+02  0.44953991929E+01  0.16259950586E+02  0.23089708352E+02  0.00000000000E+00 0. -1.
<mgrwt>
<rscale>  1 0.12608379E+03</rscale>
<asrwt>0</asrwt>
<pdfrwt beam="1">  1       21 0.89409526E-02 0.12608379E+03</pdfrwt>
<pdfrwt beam="2">  1       21 0.16430833E-01 0.12608379E+03</pdfrwt>
<totfact> 0.32434569E+06</totfact>
</mgrwt>
</event>
<event>
 6    1  0.4187588E-002  0.1273806E+03  0.7546771E-02  0.1231395E+00
         21   -1    0    0  504  502  0.00000000000E+00  0.00000000000E+00  0.46196620206E+01  0.46196620206E+01  0.00000000000E+00 0. -1.
         21   -1    0    0  502  503 -0.00000000000E+00 -0.00000000000E+00 -0.15259156372E+04  0.15259156372E+04  0.00000000000E+00 0. -1.
         25    2    1    2    0    0 -0.10298137002E+02 -0.22240930734E+02 -0.14400538926E+04  0.14456766720E+04  0.12500046342E+03 0.  0.
          5    1    3    3  501    0 -0.63435082807E+02  0.10253465280E+02 -0.81383007933E+03  0.81636300217E+03  0.10000000000E+00 0. -1.
         -5    1    3    3    0  501  0.53136945805E+02 -0.32494396015E+02 -0.62622381324E+03  0.62931366984E+03  0.10000000000E+00 0. -1.
         21    1    1    2  504  503  0.10298137002E+02  0.22240930734E+02 -0.81242082584E+02  0.84858627188E+02  0.00000000000E+00 0.  1.
<mgrwt>
<rscale>  1 0.12738064E+03</rscale>
<asrwt>0</asrwt>
<pdfrwt beam="1">  1       21 0.71071596E-03 0.12738064E+03</pdfrwt>
<pdfrwt beam="2">  1       21 0.23475667E+00 0.12738064E+03</pdfrwt>
<totfact> 0.54428224E+05</totfact>
</mgrwt>
</event>
<event>
 6    1  0.4187588E-002  0.1260840E+03  0.7546771E-02  0.1233385E+00
         21   -1    0    0  503  502  0.00000000000E+00  0.00000000000E+00  0.54016739251E+01  0.54016739251E+01  0.00000000000E+00 0.  1.
         21   -1    0    0  504  503 -0.00000000000E+00 -0.00000000000E+00 -0.10117221338E+04  0.10117221338E+04  0.00000000000E+00 0.  1.
         25    2    1    2    0    0 -0.14416250014E+02 -0.79788441849E+01 -0.95330768377E+03  0.96160944337E+03  0.12500276570E+03 0.  0.
          5    1    3    3  501    0  0.22738557099E+02 -0.48290264615E+02 -0.71879323577E+03  0.72077230622E+03  0.10000000000E+00 0. -1.
         -5    1    3    3    0  501 -0.37154807114E+02  0.40311420430E+02 -0.23451444800E+03  0.24083713715E+03  0.10000000000E+00 0. -1.
         21    1    1    2  504  502  0.14416250014E+02  0.79788441849E+01 -0.53012776135E+02  0.55514364380E+02  0.00000000000E+00 0.  1.
<mgrwt>
<rscale>  1 0.12608403E+03</rscale>
<asrwt>0</asrwt>
<pdfrwt beam="1">  1       21 0.83102738E-03 0.12608403E+03</pdfrwt>
<pdfrwt beam="2">  1       21 0.15564944E+00 0.12608403E+03</pdfrwt>
<totfact> 0.13766302E+06</totfact>
</mgrwt>
</event>
<event>
 6    1  0.4187588E-002  0.1342243E+03  0.7546771E-02  0.1221319E+00
         21   -1    0    0  503  502  0.00000000000E+00  0.00000000000E+00  0.38606997608E+01  0.38606997608E+01  0.00000000000E+00 0. -1.
         21   -1    0    0  504  503 -0.00000000000E+00 -0.00000000000E+00 -0.23531536554E+04  0.23531536554E+04  0.00000000000E+00 0. -1.
         25    2    1    2    0    0 -0.44067731148E+02 -0.21195752612E+02 -0.19724931277E+04  0.19770547057E+04  0.12499978314E+03 0.  0.
          5    1    3    3  501    0 -0.45242529869E+02  0.44945153626E+02 -0.72115482449E+03  0.72396909066E+03  0.10000000000E+00 0.  1.
         -5    1    3    3    0  501  0.11747987209E+01 -0.66140906239E+02 -0.12513383032E+04  0.12530856150E+04  0.10000000000E+00 0.  1.
         21    1    1    2  504  502  0.44067731148E+02  0.21195752612E+02 -0.37679982797E+03  0.37995964946E+03  0.00000000000E+00 0. -1.
<mgrwt>
<rscale>  1 0.13422433E+03</rscale>
<asrwt>0</asrwt>
<pdfrwt beam="1">  1       21 0.59395454E-03 0.13422433E+03</pdfrwt>
<pdfrwt beam="2">  1       21 0.36202319E+00 0.13422433E+03</pdfrwt>
<totfact> 0.13472059E+05</totfact>
</mgrwt>
</event>
<event>
 6    1  0.4187588E-002  0.1336770E+03  0.7546771E-02  0.1222099E+00
         21   -1    0    0  503  502  0.00000000000E+00  0.00000000000E+00  0.13618035259E+02  0.13618035259E+02  0.00000000000E+00 0. -1.
         21   -1    0    0  504  503 -0.00000000000E+00 -0.00000000000E+00 -0.63717974453E+03  0.63717974453E+03  0.00000000000E+00 0. -1.
         25    2    1    2    0    0 -0.22091228458E+02 -0.41968327652E+02 -0.51974971145E+03  0.53666498962E+03  0.12498074103E+03 0.  0.
          5    1    3    3  501    0 -0.22013196229E+02  0.60410161667E+00 -0.84363463185E+01  0.23582359640E+02  0.10000000000E+00 0.  1.
         -5    1    3    3    0  501 -0.78032228378E-01 -0.42572429269E+02 -0.51131336513E+03  0.51308262998E+03  0.10000000000E+00 0.  1.
         21    1    1    2  504  502  0.22091228458E+02  0.41968327652E+02 -0.10381199782E+03  0.11413279017E+03  0.00000000000E+00 0. -1.
<mgrwt>
<rscale>  1 0.13367703E+03</rscale>
<asrwt>0</asrwt>
<pdfrwt beam="1">  1       21 0.20950823E-02 0.13367703E+03</pdfrwt>
<pdfrwt beam="2">  1       21 0.98027657E-01 0.13367703E+03</pdfrwt>
<totfact> 0.98737187E+05</totfact>
</mgrwt>
</event>
<event>
 6    1  0.4187588E-002  0.1402415E+03  0.7546771E-02  0.1213004E+00
         21   -1    0    0  503  502  0.00000000000E+00  0.00000000000E+00  0.10469161989E+04  0.10469161989E+04  0.00000000000E+00 0.  1.
         21   -1    0    0  504  503 -0.00000000000E+00 -0.00000000000E+00 -0.14437514183E+02  0.14437514183E+02  0.00000000000E+00 0.  1.
         25    2    1    2    0    0 -0.13052205024E+02  0.62240036137E+02  0.36763942126E+03  0.39347990136E+03  0.12499402608E+03 0.  0.
          5    1    3    3  501    0  0.35834988280E+02  0.76324377979E+02  0.17527742276E+03  0.19450383540E+03  0.10000000000E+00 0. -1.
         -5    1    3    3    0  501 -0.48887193304E+02 -0.14084341842E+02  0.19236199851E+03  0.19897606596E+03  0.10000000000E+00 0. -1.
         21    1    1    2  504  502  0.13052205024E+02 -0.62240036137E+02  0.66483926343E+03  0.66787381170E+03  0.00000000000E+00 0.  1.
<mgrwt>
<rscale>  1 0.14024154E+03</rscale>
<asrwt>0</asrwt>
<pdfrwt beam="1">  1       21 0.16106397E+00 0.14024154E+03</pdfrwt>
<pdfrwt beam="2">  1       21 0.22211569E-02 0.14024154E+03</pdfrwt>
<totfact> 0.26167607E+05</totfact>
</mgrwt>
</event>
<event>
 6    1  0.4187588E-002  0.1292044E+03  0.7546771E-02  0.1228641E+00
         21   -1    0    0  504  502  0.00000000000E+00  0.00000000000E+00  0.14806653540E+02  0.14806653540E+02  0.00000000000E+00 0.  1.
         21   -1    0    0  502  503 -0.00000000000E+00 -0.00000000000E+00 -0.48997175914E+03  0.48997175914E+03  0.00000000000E+00 0.  1.
         25    2    1    2    0    0  0.66641938175E+01 -0.32005995623E+02 -0.30080146321E+03  0.32737639741E+03  0.12499996031E+03 0.  0.
          5    1    3    3  501    0  0.50295427010E+02 -0.59239303690E+02 -0.17605454456E+03  0.19244255699E+03  0.10000000000E+00 0.  1.
         -5    1    3    3    0  501 -0.43631233193E+02  0.27233308067E+02 -0.12474691865E+03  0.13493384042E+03  0.10000000000E+00 0.  1.
         21    1    1    2  504  503 -0.66641938175E+01  0.32005995623E+02 -0.17436364239E+03  0.17740201527E+03  0.00000000000E+00 0.  1.
<mgrwt>
<rscale>  1 0.12920443E+03</rscale>
<asrwt>0</asrwt>
<pdfrwt beam="1">  1       21 0.22779463E-02 0.12920443E+03</pdfrwt>
<pdfrwt beam="2">  1       21 0.75380284E-01 0.12920443E+03</pdfrwt>
<totfact> 0.15641936E+06</totfact>
</mgrwt>
</event>
<event>
 6    1  0.4187588E-002  0.1264876E+03  0.7546771E-02  0.1232763E+00
         21   -1    0    0  503  502  0.00000000000E+00  0.00000000000E+00  0.27968538894E+01  0.27968538894E+01  0.00000000000E+00 0. -1.
         21   -1    0    0  504  503 -0.00000000000E+00 -0.00000000000E+00 -0.19970165989E+04  0.19970165989E+04  0.00000000000E+00 0. -1.
         25    2    1    2    0    0  0.11112272357E+02 -0.15828061228E+02 -0.18474603446E+04  0.18517853078E+04  0.12500036382E+03 0.  0.
          5    1    3    3  501    0  0.11391847479E+02 -0.59787915446E+02 -0.15395511439E+04  0.15407537454E+04  0.10000000000E+00 0.  1.
         -5    1    3    3    0  501 -0.27957512228E+00  0.43959854218E+02 -0.30790920070E+03  0.31103156242E+03  0.10000000000E+00 0.  1.
         21    1    1    2  504  502 -0.11112272357E+02  0.15828061228E+02 -0.14675940037E+03  0.14802814502E+03  0.00000000000E+00 0. -1.
<mgrwt>
<rscale>  1 0.12648755E+03</rscale>
<asrwt>0</asrwt>
<pdfrwt beam="1">  1       21 0.43028545E-03 0.12648755E+03</pdfrwt>
<pdfrwt beam="2">  1       21 0.30723315E+00 0.12648755E+03</pdfrwt>
<totfact> 0.45977469E+05</totfact>
</mgrwt>
</event>
<event>
 6    1  0.4187588E-002  0.1282197E+03  0.7546771E-02  0.1230122E+00
         21   -1    0    0  503  502  0.00000000000E+00  0.00000000000E+00  0.35972143060E+03  0.35972143060E+03  0.00000000000E+00 0.  1.
         21   -1    0    0  504  503 -0.00000000000E+00 -0.00000000000E+00 -0.55782262505E+02  0.55782262505E+02  0.00000000000E+00 0.  1.
         25    2    1    2    0    0 -0.14034099390E+02 -0.24863831349E+02  0.19569689343E+02  0.12970452148E+03  0.12500049638E+03 0.  0.
          5    1    3    3  501    0 -0.20452948261E+02  0.20588477853E+02 -0.43137807724E+02  0.51991239340E+02  0.10000000000E+00 0.  1.
         -5    1    3    3    0  501  0.64188488705E+01 -0.45452309202E+02  0.62707497067E+02  0.77713282140E+02  0.10000000000E+00 0.  1.
         21    1    1    2  504  502  0.14034099390E+02  0.24863831349E+02  0.28436947875E+03  0.28579917162E+03  0.00000000000E+00 0.  1.
<mgrwt>
<rscale>  1 0.12821969E+03</rscale>
<asrwt>0</asrwt>
<pdfrwt beam="1">  1       21 0.55341757E-01 0.12821969E+03</pdfrwt>
<pdfrwt beam="2">  1       21 0.85818868E-02 0.12821969E+03</pdfrwt>
<totfact> 0.33116686E+05</totfact>
</mgrwt>
</event>
<event>
 6    1  0.4187588E-002  0.1346758E+03  0.7546771E-02  0.1220678E+00
         21   -1    0    0  504  502  0.00000000000E+00  0.00000000000E+00  0.28673537977E+02  0.28673537977E+02  0.00000000000E+00 0.  1.
         21   -1    0    0  502  503 -0.00000000000E+00 -0.00000000000E+00 -0.29849865312E+03  0.29849865312E+03  0.00000000000E+00 0.  1.
         25    2    1    2    0    0  0.48556930378E+02  0.12405765852E+02 -0.20385677032E+03  0.24432594174E+03  0.12500361790E+03 0.  0.
          5    1    3    3  501    0 -0.19840834664E+02 -0.11788201393E+02  0.46631032295E+01  0.23545168167E+02  0.10000000000E+00 0.  1.
         -5    1    3    3    0  501  0.68397765042E+02  0.24193967246E+02 -0.20851987355E+03  0.22078077357E+03  0.10000000000E+00 0.  1.
         21    1    1    2  504  503 -0.48556930378E+02 -0.12405765852E+02 -0.65968344826E+02  0.82846249361E+02  0.00000000000E+00 0.  1.
<mgrwt>
<rscale>  1 0.13467584E+03</rscale>
<asrwt>0</asrwt>
<pdfrwt beam="1">  1       21 0.44113135E-02 0.13467584E+03</pdfrwt>
<pdfrwt beam="2">  1       21 0.45922870E-01 0.13467584E+03</pdfrwt>
<totfact> 0.15089229E+06</totfact>
</mgrwt>
</event>
<event>
 6    1  0.4187588E-002  0.1378049E+03  0.7546771E-02  0.1216314E+00
         21   -1    0    0  504  502  0.00000000000E+00  0.00000000000E+00  0.12723580420E+03  0.12723580420E+03  0.00000000000E+00 0.  1.
         21   -1    0    0  502  503 -0.00000000000E+00 -0.00000000000E+00 -0.83364704310E+02  0.83364704310E+02  0.00000000000E+00 0.  1.
         25    2    1    2    0    0  0.35093402055E+02 -0.46199668851E+02 -0.97514307699E-01  0.13780493650E+03  0.12499693894E+03 0.  0.
          5    1    3    3  501    0  0.27544013536E+02  0.39062103412E+02 -0.16669252831E+02  0.50620100697E+02  0.10000000000E+00 0. -1.
         -5    1    3    3    0  501  0.75493885196E+01 -0.85261772263E+02  0.16571738524E+02  0.87184835804E+02  0.10000000000E+00 0. -1.
         21    1    1    2  504  503 -0.35093402055E+02  0.46199668851E+02  0.43968614201E+02  0.72795572012E+02  0.00000000000E+00 0.  1.
<mgrwt>
<rscale>  1 0.13780490E+03</rscale>
<asrwt>0</asrwt>
<pdfrwt beam="1">  1       21 0.19574739E-01 0.13780490E+03</pdfrwt>
<pdfrwt beam="2">  1       21 0.12825339E-01 0.13780490E+03</pdfrwt>
<totfact> 0.12509020E+06</totfact>
</mgrwt>
</event>
<event>
 6    1  0.4187588E-002  0.1277656E+03  0.7546771E-02  0.1230809E+00
         21   -1    0    0  504  502  0.00000000000E+00  0.00000000000E+00  0.21245859608E+03  0.21245859608E+03  0.00000000000E+00 0. -1.
         21   -1    0    0  502  503 -0.00000000000E+00 -0.00000000000E+00 -0.36193264165E+02  0.36193264165E+02  0.00000000000E+00 0. -1.
         25    2    1    2    0    0  0.25881782251E+02 -0.54645847755E+01  0.84574890393E+02  0.15322196238E+03  0.12499731730E+03 0.  0.
          5    1    3    3  501    0 -0.38465328319E+00 -0.44030849583E+02  0.95619761314E+02  0.10527113767E+03  0.10000000000E+00 0.  1.
         -5    1    3    3    0  501  0.26266435534E+02  0.38566264808E+02 -0.11044870921E+02  0.47950824712E+02  0.10000000000E+00 0.  1.
         21    1    1    2  504  503 -0.25881782251E+02  0.54645847755E+01  0.91690441523E+02  0.95429897861E+02  0.00000000000E+00 0. -1.
<mgrwt>
<rscale>  1 0.12776564E+03</rscale>
<asrwt>0</asrwt>
<pdfrwt beam="1">  1       21 0.32685937E-01 0.12776564E+03</pdfrwt>
<pdfrwt beam="2">  1       21 0.55681946E-02 0.12776564E+03</pdfrwt>
<totfact> 0.20067121E+06</totfact>
</mgrwt>
</event>
<event>
 6    1  0.4187588E-002  0.1260982E+03  0.7546771E-02  0.1233363E+00
         21   -1    0    0  503  502  0.00000000000E+00  0.00000000000E+00  0.25122333365E+03  0.25122333365E+03  0.00000000000E+00 0. -1.
         21   -1    0    0  504  503 -0.00000000000E+00 -0.00000000000E+00 -0.25834032473E+02  0.25834032473E+02  0.00000000000E+00 0. -1.
         25    2    1    2    0    0 -0.11637423760E+02  0.11864552023E+02  0.13334829249E+03  0.18352798836E+03  0.12499823268E+03 0.  0.
          5    1    3    3  501    0  0.13485637535E+02 -0.14800350003E+02 -0.18537236944E+02  0.27286478949E+02  0.10000000000E+00 0.  1.
         -5    1    3    3    0  501 -0.25123061295E+02  0.26664902025E+02  0.15188552944E+03  0.15624150941E+03  0.10000000000E+00 0.  1.
         21    1    1    2  504  502  0.11637423760E+02 -0.11864552023E+02  0.92041008684E+02  0.93529377770E+02  0.00000000000E+00 0. -1.
<mgrwt>
<rscale>  1 0.12609820E+03</rscale>
<asrwt>0</asrwt>
<pdfrwt beam="1">  1       21 0.38649742E-01 0.12609820E+03</pdfrwt>
<pdfrwt beam="2">  1       21 0.39744667E-02 0.12609820E+03</pdfrwt>
<totfact> 0.25364918E+06</totfact>
</mgrwt>
</event>
<event>
 6    1  0.4187588E-002  0.1370360E+03  0.7546771E-02  0.1217374E+00
         21   -1    0    0  503  502  0.00000000000E+00  0.00000000000E+00  0.32178160458E+02  0.32178160458E+02  0.00000000000E+00 0.  1.
         21   -1    0    0  504  503 -0.00000000000E+00 -0.00000000000E+00 -0.29072496502E+03  0.29072496502E+03  0.00000000000E+00 0.  1.
         25    2    1    2    0    0 -0.55164336194E+02  0.10551104760E+02 -0.19058693250E+03  0.23473865412E+03  0.12499770837E+03 0.  0.
          5    1    3    3  501    0  0.33894584410E+02  0.56326776261E+01 -0.14388785557E+02  0.37250732334E+02  0.10000000000E+00 0.  1.
         -5    1    3    3    0  501 -0.89058920605E+02  0.49184271338E+01 -0.17619814694E+03  0.19748792178E+03  0.10000000000E+00 0.  1.
         21    1    1    2  504  502  0.55164336194E+02 -0.10551104760E+02 -0.67959872060E+02  0.88164471358E+02  0.00000000000E+00 0.  1.
<mgrwt>
<rscale>  1 0.13703597E+03</rscale>
<asrwt>0</asrwt>
<pdfrwt beam="1">  1       21 0.49504864E-02 0.13703597E+03</pdfrwt>
<pdfrwt beam="2">  1       21 0.44726916E-01 0.13703597E+03</pdfrwt>
<totfact> 0.13126825E+06</totfact>
</mgrwt>
</event>
<event>
 6    1  0.4187588E-002  0.1297189E+03  0.7546771E-02  0.1227873E+00
         21   -1    0    0  503  502  0.00000000000E+00  0.00000000000E+00  0.86665325528E+03  0.86665325528E+03  0.00000000000E+00 0. -1.
         21   -1    0    0  504  503 -0.00000000000E+00 -0.00000000000E+00 -0.24682776878E+02  0.24682776878E+02  0.00000000000E+00 0. -1.
         25    2    1    2    0    0  0.33402681978E+02  0.92524043448E+01  0.14922828842E+03  0.19772728947E+03  0.12500261112E+03 0.  0.
          5    1    3    3  501    0  0.81071296457E+02  0.74982267059E+01  0.84742302511E+02  0.11751615356E+03  0.10000000000E+00 0.  1.
         -5    1    3    3    0  501 -0.47668614479E+02  0.17541776389E+01  0.64485985911E+02  0.80211135913E+02  0.10000000000E+00 0.  1.
         21    1    1    2  504  502 -0.33402681978E+02 -0.92524043448E+01  0.69274218998E+03  0.69360874269E+03  0.00000000000E+00 0. -1.
<mgrwt>
<rscale>  1 0.12971892E+03</rscale>
<asrwt>0</asrwt>
<pdfrwt beam="1">  1       21 0.13333125E+00 0.12971892E+03</pdfrwt>
<pdfrwt beam="2">  1       21 0.37973510E-02 0.12971892E+03</pdfrwt>
<totfact> 0.17758947E+05</totfact>
</mgrwt>
</event>
<event>
 6    1  0.4187588E-002  0.1274420E+03  0.7546771E-02  0.1231301E+00
         21   -1    0    0  504  502  0.00000000000E+00  0.00000000000E+00  0.27823497380E+02  0.27823497380E+02  0.00000000000E+00 0. -1.
         21   -1    0    0  502  503 -0.00000000000E+00 -0.00000000000E+00 -0.28113572292E+03  0.28113572292E+03  0.00000000000E+00 0. -1.
         25    2    1    2    0    0 -0.91515510318E+01 -0.23068722070E+02 -0.25394943258E+03  0.28413336972E+03  0.12500216260E+03 0.  0.
          5    1    3    3  501    0 -0.30058063572E+02 -0.16223629666E+02 -0.25926184416E+03  0.26150221258E+03  0.10000000000E+00 0. -1.
         -5    1    3    3    0  501  0.20906512540E+02 -0.68450924046E+01  0.53124115797E+01  0.22631157138E+02  0.10000000000E+00 0. -1.
         21    1    1    2  504  503  0.91515510318E+01  0.23068722070E+02  0.63720704543E+00  0.24825850581E+02  0.00000000000E+00 0. -1.
<mgrwt>
<rscale>  1 0.12744198E+03</rscale>
<asrwt>0</asrwt>
<pdfrwt beam="1">  1       21 0.42805381E-02 0.12744198E+03</pdfrwt>
<pdfrwt beam="2">  1       21 0.43251649E-01 0.12744198E+03</pdfrwt>
<totfact> 0.17900488E+06</totfact>
</mgrwt>
</event>
<event>
 6    1  0.4187588E-002  0.1260049E+03  0.7546771E-02  0.1233507E+00
         21   -1    0    0  503  502  0.00000000000E+00  0.00000000000E+00  0.20089856100E+02  0.20089856100E+02  0.00000000000E+00 0. -1.
         21   -1    0    0  504  503 -0.00000000000E+00 -0.00000000000E+00 -0.25644104798E+03  0.25644104798E+03  0.00000000000E+00 0. -1.
         25    2    1    2    0    0  0.11399334004E+02  0.11084680057E+02 -0.19437145955E+03  0.23164089546E+03  0.12499770083E+03 0.  0.
          5    1    3    3  501    0  0.57758458275E+02  0.21796419874E+02 -0.16389591781E+03  0.17513710428E+03  0.10000000000E+00 0. -1.
         -5    1    3    3    0  501 -0.46359124271E+02 -0.10711739817E+02 -0.30475541749E+02  0.56503791183E+02  0.10000000000E+00 0. -1.
         21    1    1    2  504  502 -0.11399334004E+02 -0.11084680057E+02 -0.41979732329E+02  0.44890008622E+02  0.00000000000E+00 0. -1.
<mgrwt>
<rscale>  1 0.12600492E+03</rscale>
<asrwt>0</asrwt>
<pdfrwt beam="1">  1       21 0.30907475E-02 0.12600492E+03</pdfrwt>
<pdfrwt beam="2">  1       21 0.39452464E-01 0.12600492E+03</pdfrwt>
<totfact> 0.36871761E+06</totfact>
</mgrwt>
</event>
<event>
 6    1  0.4187588E-002  0.1294545E+03  0.7546771E-02  0.1228267E+00
         21   -1    0    0  504  502  0.00000000000E+00  0.00000000000E+00  0.32451759251E+02  0.32451759251E+02  0.00000000000E+00 0. -1.
         21   -1    0    0  502  503 -0.00000000000E+00 -0.00000000000E+00 -0.26498295392E+03  0.26498295392E+03  0.00000000000E+00 0. -1.
         25    2    1    2    0    0 -0.35732896905E+01 -0.33467295536E+02 -0.22968836704E+03  0.26365735480E+03  0.12500250602E+03 0.  0.
          5    1    3    3  501    0  0.17488500444E+02  0.42110714691E+02 -0.50469195812E+02  0.68016980714E+02  0.10000000000E+00 0.  1.
         -5    1    3    3    0  501 -0.21061790135E+02 -0.75578010226E+02 -0.17921917123E+03  0.19564037408E+03  0.10000000000E+00 0.  1.
         21    1    1    2  504  503  0.35732896905E+01  0.33467295536E+02 -0.28428276207E+01  0.33777358372E+02  0.00000000000E+00 0. -1.
<mgrwt>
<rscale>  1 0.12945445E+03</rscale>
<asrwt>0</asrwt>
<pdfrwt beam="1">  1       21 0.49925783E-02 0.12945445E+03</pdfrwt>
<pdfrwt beam="2">  1       21 0.40766609E-01 0.12945445E+03</pdfrwt>
<totfact> 0.15592873E+06</totfact>
</mgrwt>
</event>
<event>
 6    1  0.4187588E-002  0.1279999E+03  0.7546771E-02  0.1230454E+00
         21   -1    0    0  503  502  0.00000000000E+00  0.00000000000E+00  0.27170729547E+03  0.27170729547E+03  0.00000000000E+00 0. -1.
         21   -1    0    0  504  503 -0.00000000000E+00 -0.00000000000E+00 -0.52061783759E+02  0.52061783759E+02  0.00000000000E+00 0. -1.
         25    2    1    2    0    0 -0.34444083829E+01  0.27322881072E+02  0.29129027160E+02  0.13127249571E+03  0.12500225649E+03 0.  0.
          5    1    3    3  501    0 -0.37649783674E+02  0.48868674463E+02  0.55520129632E+02  0.82994869412E+02  0.10000000000E+00 0.  1.
         -5    1    3    3    0  501  0.34205375291E+02 -0.21545793390E+02 -0.26391102472E+02  0.48277626302E+02  0.10000000000E+00 0.  1.
         21    1    1    2  504  502  0.34444083829E+01 -0.27322881072E+02  0.19051648455E+03  0.19249658351E+03  0.00000000000E+00 0. -1.
<mgrwt>
<rscale>  1 0.12799987E+03</rscale>
<asrwt>0</asrwt>
<pdfrwt beam="1">  1       21 0.41801122E-01 0.12799987E+03</pdfrwt>
<pdfrwt beam="2">  1       21 0.80095054E-02 0.12799987E+03</pdfrwt>
<totfact> 0.66352155E+05</totfact>
</mgrwt>
</event>
<event>
 6    1  0.4187588E-002  0.1272525E+03  0.7546771E-02  0.1231590E+00
         21   -1    0    0  503  502  0.00000000000E+00  0.00000000000E+00  0.11589024507E+04  0.11589024507E+04  0.00000000000E+00 0. -1.
         21   -1    0    0  504  503 -0.00000000000E+00 -0.00000000000E+00 -0.51343495981E+01  0.51343495981E+01  0.00000000000E+00 0. -1.
         25    2    1    2    0    0 -0.14607155291E+02 -0.18870284550E+02  0.86859587654E+03  0.87786787416E+03  0.12499500437E+03 0.  0.
          5    1    3    3  501    0 -0.66547479865E+02 -0.10374930445E+02  0.62692742122E+03  0.63053485846E+03  0.10000000000E+00 0. -1.
         -5    1    3    3    0  501  0.51940324574E+02 -0.84953541045E+01  0.24166845532E+03  0.24733301570E+03  0.10000000000E+00 0. -1.
         21    1    1    2  504  502  0.14607155291E+02  0.18870284550E+02  0.28517222457E+03  0.28616892615E+03  0.00000000000E+00 0. -1.
<mgrwt>
<rscale>  1 0.12725254E+03</rscale>
<asrwt>0</asrwt>
<pdfrwt beam="1">  1       21 0.17829248E+00 0.12725254E+03</pdfrwt>
<pdfrwt beam="2">  1       21 0.78990086E-03 0.12725254E+03</pdfrwt>
<totfact> 0.10347826E+06</totfact>
</mgrwt>
</event>
<event>
 6    1  0.4187588E-002  0.1306509E+03  0.7546771E-02  0.1226493E+00
         21   -1    0    0  503  502  0.00000000000E+00  0.00000000000E+00  0.25449273780E+03  0.25449273780E+03  0.00000000000E+00 0.  1.
         21   -1    0    0  504  503 -0.00000000000E+00 -0.00000000000E+00 -0.32259187936E+02  0.32259187936E+02  0.00000000000E+00 0.  1.
         25    2    1    2    0    0 -0.29195851071E+02 -0.24375833559E+02  0.11895120224E+03  0.17668911498E+03  0.12499230319E+03 0.  0.
          5    1    3    3  501    0 -0.45003840429E+02 -0.31414065899E+02  0.13945082655E+03  0.14986237759E+03  0.10000000000E+00 0. -1.
         -5    1    3    3    0  501  0.15807989358E+02  0.70382323397E+01 -0.20499624313E+02  0.26826737390E+02  0.10000000000E+00 0. -1.
         21    1    1    2  504  502  0.29195851071E+02  0.24375833559E+02  0.10328234763E+03  0.11006281076E+03  0.00000000000E+00 0.  1.
<mgrwt>
<rscale>  1 0.13065089E+03</rscale>
<asrwt>0</asrwt>
<pdfrwt beam="1">  1       21 0.39152728E-01 0.13065089E+03</pdfrwt>
<pdfrwt beam="2">  1       21 0.49629521E-02 0.13065089E+03</pdfrwt>
<totfact> 0.17077481E+06</totfact>
</mgrwt>
</event>
<event>
 6    1  0.4187588E-002  0.1263556E+03  0.7546771E-02  0.1232966E+00
         21   -1    0    0  503  502  0.00000000000E+00  0.00000000000E+00  0.54677053005E+02  0.54677053005E+02  0.00000000000E+00 0. -1.
         21   -1    0    0  504  503 -0.00000000000E+00 -0.00000000000E+00 -0.99359513862E+02  0.99359513862E+02  0.00000000000E+00 0. -1.
         25    2    1    2    0    0 -0.55365337095E+01 -0.17574460208E+02 -0.28537611505E+02  0.12953817880E+03  0.12500491846E+03 0.  0.
          5    1    3    3  501    0 -0.19623667051E+02  0.47252235844E+02  0.10966518310E+02  0.52327207308E+02  0.10000000000E+00 0. -1.
         -5    1    3    3    0  501  0.14087133342E+02 -0.64826696052E+02 -0.39504129814E+02  0.77210971495E+02  0.10000000000E+00 0. -1.
         21    1    1    2  504  502  0.55365337095E+01  0.17574460208E+02 -0.16144849353E+02  0.24498388064E+02  0.00000000000E+00 0.  1.
<mgrwt>
<rscale>  1 0.12635563E+03</rscale>
<asrwt>0</asrwt>
<pdfrwt beam="1">  1       21 0.84118544E-02 0.12635563E+03</pdfrwt>
<pdfrwt beam="2">  1       21 0.15286079E-01 0.12635563E+03</pdfrwt>
<totfact> 0.41085225E+06</totfact>
</mgrwt>
</event>
<event>
 6    1  0.4187588E-002  0.1316588E+03  0.7546771E-02  0.1225015E+00
         21   -1    0    0  503  502  0.00000000000E+00  0.00000000000E+00  0.21819437094E+03  0.21819437094E+03  0.00000000000E+00 0.  1.
         21   -1    0    0  504  503 -0.00000000000E+00 -0.00000000000E+00 -0.40927718236E+03  0.40927718236E+03  0.00000000000E+00 0. -1.
         25    2    1    2    0    0  0.36345621148E+02  0.19683724473E+02 -0.39657761887E+03  0.41786103573E+03  0.12500233680E+03 0.  0.
          5    1    3    3  501    0 -0.62598858541E+01  0.45658334696E+02 -0.33704824247E+03  0.34018435803E+03  0.10000000000E+00 0. -1.
         -5    1    3    3    0  501  0.42605507002E+02 -0.25974610224E+02 -0.59529376405E+02  0.77676677699E+02  0.10000000000E+00 0. -1.
         21    1    1    2  504  502 -0.36345621148E+02 -0.19683724473E+02  0.20549480745E+03  0.20961051757E+03  0.00000000000E+00 0.  1.
<mgrwt>
<rscale>  1 0.13165879E+03</rscale>
<asrwt>0</asrwt>
<pdfrwt beam="1">  1       21 0.33568365E-01 0.13165879E+03</pdfrwt>
<pdfrwt beam="2">  1       21 0.62965720E-01 0.13165879E+03</pdfrwt>
<totfact> 0.20760316E+04</totfact>
</mgrwt>
</event>
<event>
 6    1  0.4187588E-002  0.1399316E+03  0.7546771E-02  0.1213421E+00
         21   -1    0    0  504  502  0.00000000000E+00  0.00000000000E+00  0.18996251867E+03  0.18996251867E+03  0.00000000000E+00 0.  1.
         21   -1    0    0  502  503 -0.00000000000E+00 -0.00000000000E+00 -0.61368491052E+02  0.61368491052E+02  0.00000000000E+00 0.  1.
         25    2    1    2    0    0 -0.30121140764E+02  0.55209819401E+02  0.45548324697E+02  0.14715809552E+03  0.12500179165E+03 0.  0.
          5    1    3    3  501    0 -0.17601348908E+02 -0.24259410530E+02 -0.25861503796E+02  0.39587294189E+02  0.10000000000E+00 0. -1.
         -5    1    3    3    0  501 -0.12519791856E+02  0.79469229931E+02  0.71409828493E+02  0.10757080133E+03  0.10000000000E+00 0. -1.
         21    1    1    2  504  503  0.30121140764E+02 -0.55209819401E+02  0.83045702924E+02  0.10417291420E+03  0.00000000000E+00 0.  1.
<mgrwt>
<rscale>  1 0.13993161E+03</rscale>
<asrwt>0</asrwt>
<pdfrwt beam="1">  1       21 0.29225003E-01 0.13993161E+03</pdfrwt>
<pdfrwt beam="2">  1       21 0.94413064E-02 0.13993161E+03</pdfrwt>
<totfact> 0.10086282E+06</totfact>
</mgrwt>
</event>
<event>
 6    1  0.4187588E-002  0.1388601E+03  0.7546771E-02  0.1214871E+00
         21   -1    0    0  504  502  0.00000000000E+00  0.00000000000E+00  0.42709349043E+03  0.42709349043E+03  0.00000000000E+00 0.  1.
         21   -1    0    0  502  503 -0.00000000000E+00 -0.00000000000E+00 -0.32470425505E+03  0.32470425505E+03  0.00000000000E+00 0. -1.
         25    2    1    2    0    0  0.56593266663E+02  0.21294563469E+02 -0.30753841415E+03  0.33743445787E+03  0.12500352362E+03 0.  0.
          5    1    3    3  501    0 -0.19276387216E+02 -0.23636998057E+02 -0.19499513303E+02  0.36201212691E+02  0.10000000000E+00 0. -1.
         -5    1    3    3    0  501  0.75869653879E+02  0.44931561526E+02 -0.28803890085E+03  0.30123324518E+03  0.10000000000E+00 0. -1.
         21    1    1    2  504  503 -0.56593266663E+02 -0.21294563469E+02  0.40992764953E+03  0.41436328761E+03  0.00000000000E+00 0.  1.
<mgrwt>
<rscale>  1 0.13886014E+03</rscale>
<asrwt>0</asrwt>
<pdfrwt beam="1">  1       21 0.65706691E-01 0.13886014E+03</pdfrwt>
<pdfrwt beam="2">  1       21 0.49954501E-01 0.13886014E+03</pdfrwt>
<totfact> 0.84739993E+03</totfact>
</mgrwt>
</event>
<event>
 6    1  0.4187588E-002  0.1351897E+03  0.7546771E-02  0.1219952E+00
         21   -1    0    0  504  502  0.00000000000E+00  0.00000000000E+00  0.89016273395E+03  0.89016273395E+03  0.00000000000E+00 0. -1.
         21   -1    0    0  502  503 -0.00000000000E+00 -0.00000000000E+00 -0.25792027424E+02  0.25792027424E+02  0.00000000000E+00 0. -1.
         25    2    1    2    0    0  0.10080418068E+02  0.50499504863E+02  0.15898683242E+03  0.20869368888E+03  0.12499771228E+03 0.  0.
          5    1    3    3  501    0  0.48043632881E+02  0.52241041353E+01  0.13762815475E+03  0.14586638031E+03  0.10000000000E+00 0. -1.
         -5    1    3    3    0  501 -0.37963214813E+02  0.45275400727E+02  0.21358677665E+02  0.62827308565E+02  0.10000000000E+00 0. -1.
         21    1    1    2  504  503 -0.10080418068E+02 -0.50499504863E+02  0.70538387411E+03  0.70726107250E+03  0.00000000000E+00 0. -1.
<mgrwt>
<rscale>  1 0.13518966E+03</rscale>
<asrwt>0</asrwt>
<pdfrwt beam="1">  1       21 0.13694809E+00 0.13518966E+03</pdfrwt>
<pdfrwt beam="2">  1       21 0.39680049E-02 0.13518966E+03</pdfrwt>
<totfact> 0.15401660E+05</totfact>
</mgrwt>
</event>
<event>
 6    1  0.4187588E-002  0.1293207E+03  0.7546771E-02  0.1228467E+00
         21   -1    0    0  503  502  0.00000000000E+00  0.00000000000E+00  0.66369893318E+03  0.66369893318E+03  0.00000000000E+00 0. -1.
         21   -1    0    0  504  503 -0.00000000000E+00 -0.00000000000E+00 -0.16936568597E+02  0.16936568597E+02  0.00000000000E+00 0. -1.
         25    2    1    2    0    0  0.25118293836E+02  0.21669881518E+02  0.24087390684E+03  0.27339361717E+03  0.12499327367E+03 0.  0.
          5    1    3    3  501    0  0.39154394998E+02 -0.45636817112E+02  0.10126273824E+03  0.11777070043E+03  0.10000000000E+00 0. -1.
         -5    1    3    3    0  501 -0.14036101163E+02  0.67306698631E+02  0.13961116859E+03  0.15562291673E+03  0.10000000000E+00 0. -1.
         21    1    1    2  504  502 -0.25118293836E+02 -0.21669881518E+02  0.40588845775E+03  0.40724188461E+03  0.00000000000E+00 0. -1.
<mgrwt>
<rscale>  1 0.12932065E+03</rscale>
<asrwt>0</asrwt>
<pdfrwt beam="1">  1       21 0.10210751E+00 0.12932065E+03</pdfrwt>
<pdfrwt beam="2">  1       21 0.26056264E-02 0.12932065E+03</pdfrwt>
<totfact> 0.62989564E+05</totfact>
</mgrwt>
</event>
<event>
 6    1  0.4187588E-002  0.1261644E+03  0.7546771E-02  0.1233261E+00
         21   -1    0    0  503  502  0.00000000000E+00  0.00000000000E+00  0.37429110307E+03  0.37429110307E+03  0.00000000000E+00 0.  1.
         21   -1    0    0  504  503 -0.00000000000E+00 -0.00000000000E+00 -0.28144747690E+02  0.28144747690E+02  0.00000000000E+00 0.  1.
         25    2    1    2    0    0 -0.16901659983E+02  0.27199940804E+01  0.11517079157E+03  0.17082675000E+03  0.12499761120E+03 0.  0.
          5    1    3    3  501    0  0.16696910408E+01 -0.16596149689E+02 -0.23929322098E+02  0.29169204801E+02  0.10000000000E+00 0.  1.
         -5    1    3    3    0  501 -0.18571351024E+02  0.19316143769E+02  0.13910011367E+03  0.14165754520E+03  0.10000000000E+00 0.  1.
         21    1    1    2  504  502  0.16901659983E+02 -0.27199940804E+01  0.23097556381E+03  0.23160910076E+03  0.00000000000E+00 0.  1.
<mgrwt>
<rscale>  1 0.12616445E+03</rscale>
<asrwt>0</asrwt>
<pdfrwt beam="1">  1       21 0.57583243E-01 0.12616445E+03</pdfrwt>
<pdfrwt beam="2">  1       21 0.43299614E-02 0.12616445E+03</pdfrwt>
<totfact> 0.97315490E+05</totfact>
</mgrwt>
</event>
<event>
 6    1  0.4187588E-002  0.1270371E+03  0.7546771E-02  0.1231919E+00
         21   -1    0    0  504  502  0.00000000000E+00  0.00000000000E+00  0.33730905017E+02  0.33730905017E+02  0.00000000000E+00 0. -1.
         21   -1    0    0  502  503 -0.00000000000E+00 -0.00000000000E+00 -0.16906607879E+03  0.16906607879E+03  0.00000000000E+00 0. -1.
         25    2    1    2    0    0  0.16588308688E+02  0.15434232844E+02 -0.12375166244E+03  0.17734968015E+03  0.12500019026E+03 0.  0.
          5    1    3    3  501    0 -0.30782176481E+02 -0.14020321183E+02 -0.11624433294E+03  0.12106554727E+03  0.10000000000E+00 0.  1.
         -5    1    3    3    0  501  0.47370485168E+02  0.29454554027E+02 -0.75073295007E+01  0.56284132882E+02  0.10000000000E+00 0.  1.
         21    1    1    2  504  503 -0.16588308688E+02 -0.15434232844E+02 -0.11583511333E+02  0.25447303656E+02  0.00000000000E+00 0. -1.
<mgrwt>
<rscale>  1 0.12703714E+03</rscale>
<asrwt>0</asrwt>
<pdfrwt beam="1">  1       21 0.51893700E-02 0.12703714E+03</pdfrwt>
<pdfrwt beam="2">  1       21 0.26010166E-01 0.12703714E+03</pdfrwt>
<totfact> 0.35048498E+06</totfact>
</mgrwt>
</event>
<event>
 6    1  0.4187588E-002  0.1440616E+03  0.7546771E-02  0.1207966E+00
         21   -1    0    0  504  502  0.00000000000E+00  0.00000000000E+00  0.49472700286E+02  0.49472700286E+02  0.00000000000E+00 0. -1.
         21   -1    0    0  502  503 -0.00000000000E+00 -0.00000000000E+00 -0.23616754144E+03  0.23616754144E+03  0.00000000000E+00 0. -1.
         25    2    1    2    0    0 -0.48530552805E+02  0.52663384943E+02 -0.13377119773E+03  0.19659217211E+03  0.12500040849E+03 0.  0.
          5    1    3    3  501    0  0.66734072701E+01  0.59435593614E+02 -0.96540496735E+01  0.60583288356E+02  0.10000000000E+00 0. -1.
         -5    1    3    3    0  501 -0.55203960075E+02 -0.67722086714E+01 -0.12411714805E+03  0.13600888375E+03  0.10000000000E+00 0. -1.
         21    1    1    2  504  503  0.48530552805E+02 -0.52663384943E+02 -0.52923643424E+02  0.89048069617E+02  0.00000000000E+00 0. -1.
<mgrwt>
<rscale>  1 0.14406161E+03</rscale>
<asrwt>0</asrwt>
<pdfrwt beam="1">  1       21 0.76111848E-02 0.14406161E+03</pdfrwt>
<pdfrwt beam="2">  1       21 0.36333467E-01 0.14406161E+03</pdfrwt>
<totfact> 0.95822667E+05</totfact>
</mgrwt>
</event>
<event>
 6    1  0.4187588E-002  0.1290534E+03  0.7546771E-02  0.1228867E+00
         21   -1    0    0  503  502  0.00000000000E+00  0.00000000000E+00  0.18815637491E+03  0.18815637491E+03  0.00000000000E+00 0. -1.
         21   -1    0    0  504  503 -0.00000000000E+00 -0.00000000000E+00 -0.34907523511E+02  0.34907523511E+02  0.00000000000E+00 0. -1.
         25    2    1    2    0    0 -0.32098608976E+02  0.17669296613E+00  0.11260850314E+03  0.17127596715E+03  0.12499772008E+03 0.  0.
          5    1    3    3  501    0 -0.59481477700E+02 -0.22544714705E+02  0.11917881570E+03  0.13509222946E+03  0.10000000000E+00 0. -1.
         -5    1    3    3    0  501  0.27382868724E+02  0.22721407671E+02 -0.65703125538E+01  0.36183737690E+02  0.10000000000E+00 0. -1.
         21    1    1    2  504  502  0.32098608976E+02 -0.17669296613E+00  0.40640348252E+02  0.51787931264E+02  0.00000000000E+00 0. -1.
<mgrwt>
<rscale>  1 0.12905341E+03</rscale>
<asrwt>0</asrwt>
<pdfrwt beam="1">  1       21 0.28947134E-01 0.12905341E+03</pdfrwt>
<pdfrwt beam="2">  1       21 0.53703883E-02 0.12905341E+03</pdfrwt>
<totfact> 0.26987597E+06</totfact>
</mgrwt>
</event>
<event>
 6    1  0.4187588E-002  0.1328904E+03  0.7546771E-02  0.1223229E+00
         21   -1    0    0  503  502  0.00000000000E+00  0.00000000000E+00  0.50943896235E+02  0.50943896235E+02  0.00000000000E+00 0.  1.
         21   -1    0    0  504  503 -0.00000000000E+00 -0.00000000000E+00 -0.22006031807E+03  0.22006031807E+03  0.00000000000E+00 0.  1.
         25    2    1    2    0    0 -0.35880175138E+01 -0.44980448809E+02 -0.18080768880E+03  0.22439090753E+03  0.12499497754E+03 0.  0.
          5    1    3    3  501    0  0.87589319626E+01 -0.22777844824E+02 -0.19416213679E+03  0.19568979142E+03  0.10000000000E+00 0. -1.
         -5    1    3    3    0  501 -0.12346949476E+02 -0.22202603985E+02  0.13354447988E+02  0.28701116113E+02  0.10000000000E+00 0. -1.
         21    1    1    2  504  502  0.35880175138E+01  0.44980448809E+02  0.11691266966E+02  0.46613306770E+02  0.00000000000E+00 0.  1.
<mgrwt>
<rscale>  1 0.13289040E+03</rscale>
<asrwt>0</asrwt>
<pdfrwt beam="1">  1       21 0.78375225E-02 0.13289040E+03</pdfrwt>
<pdfrwt beam="2">  1       21 0.33855433E-01 0.13289040E+03</pdfrwt>
<totfact> 0.10465806E+06</totfact>
</mgrwt>
</event>
<event>
 6    1  0.4187588E-002  0.1297575E+03  0.7546771E-02  0.1227816E+00
         21   -1    0    0  503  502  0.00000000000E+00  0.00000000000E+00  0.89683533793E+03  0.89683533793E+03  0.00000000000E+00 0. -1.
         21   -1    0    0  504  503 -0.00000000000E+00 -0.00000000000E+00 -0.24740347171E+02  0.24740347171E+02  0.00000000000E+00 0. -1.
         25    2    1    2    0    0  0.13097429020E+02 -0.32280675316E+02  0.14874854353E+03  0.19739085554E+03  0.12499374386E+03 0.  0.
          5    1    3    3  501    0  0.27507955324E+02 -0.65646921549E+02  0.37698381944E+02  0.80544297850E+02  0.10000000000E+00 0.  1.
         -5    1    3    3    0  501 -0.14410526304E+02  0.33366246233E+02  0.11105016158E+03  0.11684655769E+03  0.10000000000E+00 0.  1.
         21    1    1    2  504  502 -0.13097429020E+02  0.32280675316E+02  0.72334644724E+03  0.72418482957E+03  0.00000000000E+00 0. -1.
<mgrwt>
<rscale>  1 0.12975755E+03</rscale>
<asrwt>0</asrwt>
<pdfrwt beam="1">  1       21 0.13797464E+00 0.12975755E+03</pdfrwt>
<pdfrwt beam="2">  1       21 0.38062079E-02 0.12975755E+03</pdfrwt>
<totfact> 0.16231544E+05</totfact>
</mgrwt>
</event>
<event>
 6    1  0.4187588E-002  0.1263990E+03  0.7546771E-02  0.1232899E+00
         21   -1    0    0  503  502  0.00000000000E+00  0.00000000000E+00  0.35412216230E+03  0.35412216230E+03  0.00000000000E+00 0.  1.
         21   -1    0    0  504  503 -0.00000000000E+00 -0.00000000000E+00 -0.93151577514E+02  0.93151577514E+02  0.00000000000E+00 0. -1.
         25    2    1    2    0    0  0.70682282488E+01  0.17412550512E+02 -0.49858538237E+02  0.13587704670E+03  0.12499416474E+03 0.  0.
          5    1    3    3  501    0 -0.48893210380E+02 -0.11534873177E+02  0.73548993148E+01  0.50771092803E+02  0.10000000000E+00 0. -1.
         -5    1    3    3    0  501  0.55961438629E+02  0.28947423689E+02 -0.57213437551E+02  0.85105953893E+02  0.10000000000E+00 0. -1.
         21    1    1    2  504  502 -0.70682282488E+01 -0.17412550512E+02  0.31082912303E+03  0.31139669312E+03  0.00000000000E+00 0.  1.
<mgrwt>
<rscale>  1 0.12639896E+03</rscale>
<asrwt>0</asrwt>
<pdfrwt beam="1">  1       21 0.54480332E-01 0.12639896E+03</pdfrwt>
<pdfrwt beam="2">  1       21 0.14331012E-01 0.12639896E+03</pdfrwt>
<totfact> 0.13871956E+05</totfact>
</mgrwt>
</event>
<event>
 6    1  0.4187588E-002  0.1268535E+03  0.7546771E-02  0.1232201E+00
         21   -1    0    0  504  502  0.00000000000E+00  0.00000000000E+00  0.17909036068E+02  0.17909036068E+02  0.00000000000E+00 0. -1.
         21   -1    0    0  502  503 -0.00000000000E+00 -0.00000000000E+00 -0.38625215385E+03  0.38625215385E+03  0.00000000000E+00 0. -1.
         25    2    1    2    0    0  0.14175221944E+02 -0.16267187546E+02 -0.35880710307E+03  0.38057106731E+03  0.12500496693E+03 0.  0.
          5    1    3    3  501    0  0.53668131015E+02 -0.30798430649E+02 -0.31005444066E+03  0.31616859077E+03  0.10000000000E+00 0.  1.
         -5    1    3    3    0  501 -0.39492909071E+02  0.14531243103E+02 -0.48752662409E+02  0.64402476544E+02  0.10000000000E+00 0.  1.
         21    1    1    2  504  503 -0.14175221944E+02  0.16267187546E+02 -0.95360147130E+01  0.23590122603E+02  0.00000000000E+00 0. -1.
<mgrwt>
<rscale>  1 0.12685346E+03</rscale>
<asrwt>0</asrwt>
<pdfrwt beam="1">  1       21 0.27552366E-02 0.12685346E+03</pdfrwt>
<pdfrwt beam="2">  1       21 0.59423402E-01 0.12685346E+03</pdfrwt>
<totfact> 0.19194633E+06</totfact>
</mgrwt>
</event>
<event>
 6    1  0.4187588E-002  0.1259516E+03  0.7546771E-02  0.1233589E+00
         21   -1    0    0  503  502  0.00000000000E+00  0.00000000000E+00  0.25856765083E+02  0.25856765083E+02  0.00000000000E+00 0. -1.
         21   -1    0    0  504  503 -0.00000000000E+00 -0.00000000000E+00 -0.19389719385E+03  0.19389719385E+03  0.00000000000E+00 0. -1.
         25    2    1    2    0    0  0.15062243691E+02  0.31369179586E+01 -0.15377537086E+03  0.19877293617E+03  0.12500841584E+03 0.  0.
          5    1    3    3  501    0 -0.20825280732E+02 -0.50281781766E+02 -0.38211747989E+02  0.66498853971E+02  0.10000000000E+00 0.  1.
         -5    1    3    3    0  501  0.35887524422E+02  0.53418699725E+02 -0.11556362287E+03  0.13227408220E+03  0.10000000000E+00 0.  1.
         21    1    1    2  504  502 -0.15062243691E+02 -0.31369179586E+01 -0.14265057907E+02  0.20981022768E+02  0.00000000000E+00 0. -1.
<mgrwt>
<rscale>  1 0.12595164E+03</rscale>
<asrwt>0</asrwt>
<pdfrwt beam="1">  1       21 0.39779638E-02 0.12595164E+03</pdfrwt>
<pdfrwt beam="2">  1       21 0.29830338E-01 0.12595164E+03</pdfrwt>
<totfact> 0.42037761E+06</totfact>
</mgrwt>
</event>
<event>
 6    1  0.4187588E-002  0.1297054E+03  0.7546771E-02  0.1227894E+00
         21   -1    0    0  503  502  0.00000000000E+00  0.00000000000E+00  0.69447163634E+01  0.69447163634E+01  0.00000000000E+00 0.  1.
         21   -1    0    0  504  503 -0.00000000000E+00 -0.00000000000E+00 -0.14401633522E+04  0.14401633522E+04  0.00000000000E+00 0.  1.
         25    2    1    2    0    0 -0.33955324255E+02  0.66928751375E+01 -0.13594602436E+04  0.13656337840E+04  0.12500287760E+03 0.  0.
          5    1    3    3  501    0  0.20912153005E+02 -0.17602672831E+02 -0.10529653823E+04  0.10533201216E+04  0.10000000000E+00 0.  1.
         -5    1    3    3    0  501 -0.54867477259E+02  0.24295547969E+02 -0.30649486130E+03  0.31231366239E+03  0.10000000000E+00 0.  1.
         21    1    1    2  504  502  0.33955324255E+02 -0.66928751375E+01 -0.73758392269E+02  0.81474284612E+02  0.00000000000E+00 0.  1.
<mgrwt>
<rscale>  1 0.12970535E+03</rscale>
<asrwt>0</asrwt>
<pdfrwt beam="1">  1       21 0.10684184E-02 0.12970535E+03</pdfrwt>
<pdfrwt beam="2">  1       21 0.22156349E+00 0.12970535E+03</pdfrwt>
<totfact> 0.34311610E+05</totfact>
</mgrwt>
</event>
<event>
 6    1  0.4187588E-002  0.1675133E+03  0.7546771E-02  0.1180466E+00
         21   -1    0    0  504  502  0.00000000000E+00  0.00000000000E+00  0.80935162719E+02  0.80935162719E+02  0.00000000000E+00 0. -1.
         21   -1    0    0  502  503 -0.00000000000E+00 -0.00000000000E+00 -0.84921439729E+03  0.84921439729E+03  0.00000000000E+00 0. -1.
         25    2    1    2    0    0  0.11139734355E+03 -0.51031488753E+01 -0.79747359246E+03  0.81487718340E+03  0.12500113229E+03 0.  0.
          5    1    3    3  501    0 -0.25756003244E+02  0.12646097446E+02 -0.11433218280E+03  0.11787770573E+03  0.10000000000E+00 0.  1.
         -5    1    3    3    0  501  0.13715334679E+03 -0.17749246321E+02 -0.68314140966E+03  0.69699947767E+03  0.10000000000E+00 0.  1.
         21    1    1    2  504  503 -0.11139734355E+03  0.51031488753E+01  0.29194357887E+02  0.11527237661E+03  0.00000000000E+00 0. -1.
<mgrwt>
<rscale>  1 0.16751326E+03</rscale>
<asrwt>0</asrwt>
<pdfrwt beam="1">  1       21 0.12451564E-01 0.16751326E+03</pdfrwt>
<pdfrwt beam="2">  1       21 0.13064836E+00 0.16751326E+03</pdfrwt>
<totfact> 0.23829021E+04</totfact>
</mgrwt>
</event>
<event>
 6    1  0.4187588E-002  0.1267636E+03  0.7546771E-02  0.1232339E+00
         21   -1    0    0  504  502  0.00000000000E+00  0.00000000000E+00  0.40804867880E+03  0.40804867880E+03  0.00000000000E+00 0.  1.
         21   -1    0    0  502  503 -0.00000000000E+00 -0.00000000000E+00 -0.14139354074E+02  0.14139354074E+02  0.00000000000E+00 0.  1.
         25    2    1    2    0    0  0.15600768003E+02  0.14059914036E+02  0.29514996447E+03  0.32122033317E+03  0.12501174253E+03 0.  0.
          5    1    3    3  501    0 -0.45306653667E+02 -0.18316894167E+02  0.18423254784E+03  0.19060389073E+03  0.10000000000E+00 0. -1.
         -5    1    3    3    0  501  0.60907421670E+02  0.32376808203E+02  0.11091741663E+03  0.13061644244E+03  0.10000000000E+00 0. -1.
         21    1    1    2  504  503 -0.15600768003E+02 -0.14059914036E+02  0.98759360252E+02  0.10096769970E+03  0.00000000000E+00 0.  1.
<mgrwt>
<rscale>  1 0.12676356E+03</rscale>
<asrwt>0</asrwt>
<pdfrwt beam="1">  1       21 0.62776711E-01 0.12676356E+03</pdfrwt>
<pdfrwt beam="2">  1       21 0.21752856E-02 0.12676356E+03</pdfrwt>
<totfact> 0.25076756E+06</totfact>
</mgrwt>
</event>
<event>
 6    1  0.4187588E-002  0.2068875E+03  0.7546771E-02  0.1144055E+00
         21   -1    0    0  503  502  0.00000000000E+00  0.00000000000E+00  0.85783863906E+02  0.85783863906E+02  0.00000000000E+00 0.  1.
         21   -1    0    0  504  503 -0.00000000000E+00 -0.00000000000E+00 -0.63177443195E+03  0.63177443195E+03  0.00000000000E+00 0. -1.
         25    2    1    2    0    0 -0.16247499245E+03 -0.27918598719E+02 -0.50781222820E+03  0.54833903879E+03  0.12499948413E+03 0.  0.
          5    1    3    3  501    0 -0.66138560520E+01  0.31003670741E+02 -0.36003525404E+02  0.47971184401E+02  0.10000000000E+00 0. -1.
         -5    1    3    3    0  501 -0.15586113640E+03 -0.58922269460E+02 -0.47180870279E+03  0.50036785439E+03  0.10000000000E+00 0. -1.
         21    1    1    2  504  502  0.16247499245E+03  0.27918598719E+02 -0.38178339847E+02  0.16921925706E+03  0.00000000000E+00 0.  1.
<mgrwt>
<rscale>  1 0.20688751E+03</rscale>
<asrwt>0</asrwt>
<pdfrwt beam="1">  1       21 0.13197517E-01 0.20688751E+03</pdfrwt>
<pdfrwt beam="2">  1       21 0.97196069E-01 0.20688751E+03</pdfrwt>
<totfact> 0.43108086E+04</totfact>
</mgrwt>
</event>
<event>
 6    1  0.4187588E-002  0.1260659E+03  0.7546771E-02  0.1233413E+00
         21   -1    0    0  503  502  0.00000000000E+00  0.00000000000E+00  0.18820043756E+02  0.18820043756E+02  0.00000000000E+00 0. -1.
         21   -1    0    0  504  503 -0.00000000000E+00 -0.00000000000E+00 -0.29997379338E+03  0.29997379338E+03  0.00000000000E+00 0. -1.
         25    2    1    2    0    0 -0.15881575895E+02  0.40675432524E+01 -0.27251783304E+03  0.30026417399E+03  0.12499534189E+03 0.  0.
          5    1    3    3  501    0 -0.48263866094E+02 -0.45215980518E+02 -0.12547982031E+03  0.14184174622E+03  0.10000000000E+00 0.  1.
         -5    1    3    3    0  501  0.32382290199E+02  0.49283523771E+02 -0.14703801273E+03  0.15842242778E+03  0.10000000000E+00 0.  1.
         21    1    1    2  504  502  0.15881575895E+02 -0.40675432524E+01 -0.86359165801E+01  0.18529663143E+02  0.00000000000E+00 0. -1.
<mgrwt>
<rscale>  1 0.12606588E+03</rscale>
<asrwt>0</asrwt>
<pdfrwt beam="1">  1       21 0.28953915E-02 0.12606588E+03</pdfrwt>
<pdfrwt beam="2">  1       21 0.46149811E-01 0.12606588E+03</pdfrwt>
<totfact> 0.29916011E+06</totfact>
</mgrwt>
</event>
<event>
 6    1  0.4187588E-002  0.1284885E+03  0.7546771E-02  0.1229716E+00
         21   -1    0    0  503  502  0.00000000000E+00  0.00000000000E+00  0.56944309177E+02  0.56944309177E+02  0.00000000000E+00 0. -1.
         21   -1    0    0  504  503 -0.00000000000E+00 -0.00000000000E+00 -0.36233134669E+03  0.36233134669E+03  0.00000000000E+00 0. -1.
         25    2    1    2    0    0  0.88437058730E+01 -0.28497565305E+02 -0.34588109875E+03  0.36897564238E+03  0.12497586901E+03 0.  0.
          5    1    3    3  501    0  0.16514469690E+02  0.98484656072E+01  0.16057054460E+01  0.19295291496E+02  0.10000000000E+00 0. -1.
         -5    1    3    3    0  501 -0.76707638169E+01 -0.38346030912E+02 -0.34748680419E+03  0.34968035088E+03  0.10000000000E+00 0. -1.
         21    1    1    2  504  502 -0.88437058730E+01  0.28497565305E+02  0.40494061233E+02  0.50300013489E+02  0.00000000000E+00 0. -1.
<mgrwt>
<rscale>  1 0.12848848E+03</rscale>
<asrwt>0</asrwt>
<pdfrwt beam="1">  1       21 0.87606626E-02 0.12848848E+03</pdfrwt>
<pdfrwt beam="2">  1       21 0.55743287E-01 0.12848848E+03</pdfrwt>
<totfact> 0.31472751E+05</totfact>
</mgrwt>
</event>
<event>
 6    1  0.4187588E-002  0.1260594E+03  0.7546771E-02  0.1233423E+00
         21   -1    0    0  504  502  0.00000000000E+00  0.00000000000E+00  0.38180807113E+02  0.38180807113E+02  0.00000000000E+00 0.  1.
         21   -1    0    0  502  503 -0.00000000000E+00 -0.00000000000E+00 -0.13573591001E+03  0.13573591001E+03  0.00000000000E+00 0.  1.
         25    2    1    2    0    0  0.27351729735E+01  0.16035177132E+02 -0.94046285077E+02  0.15727580731E+03  0.12500547089E+03 0.  0.
          5    1    3    3  501    0  0.38155424575E+02 -0.38251136751E+02 -0.69348386895E+02  0.87910151019E+02  0.10000000000E+00 0.  1.
         -5    1    3    3    0  501 -0.35420251602E+02  0.54286313883E+02 -0.24697898182E+02  0.69365656295E+02  0.10000000000E+00 0.  1.
         21    1    1    2  504  503 -0.27351729735E+01 -0.16035177132E+02 -0.35088178233E+01  0.16640909812E+02  0.00000000000E+00 0.  1.
<mgrwt>
<rscale>  1 0.12605941E+03</rscale>
<asrwt>0</asrwt>
<pdfrwt beam="1">  1       21 0.58739704E-02 0.12605941E+03</pdfrwt>
<pdfrwt beam="2">  1       21 0.20882448E-01 0.12605941E+03</pdfrwt>
<totfact> 0.42911786E+06</totfact>
</mgrwt>
</event>
<event>
 6    1  0.4187588E-002  0.1259184E+03  0.7546771E-02  0.1233641E+00
         21   -1    0    0  504  502  0.00000000000E+00  0.00000000000E+00  0.72309881206E+03  0.72309881206E+03  0.00000000000E+00 0. -1.
         21   -1    0    0  502  503 -0.00000000000E+00 -0.00000000000E+00 -0.85587201959E+03  0.85587201959E+03  0.00000000000E+00 0.  1.
         25    2    1    2    0    0 -0.78407466957E+01  0.13009952226E+02 -0.85115992458E+03  0.86042353927E+03  0.12499885422E+03 0.  0.
          5    1    3    3  501    0 -0.18865997655E+00  0.49195705507E+02 -0.14164447203E+03  0.14994472144E+03  0.10000000000E+00 0.  1.
         -5    1    3    3    0  501 -0.76520867192E+01 -0.36185753281E+02 -0.70951545255E+03  0.71047881783E+03  0.10000000000E+00 0.  1.
         21    1    1    2  504  503  0.78407466957E+01 -0.13009952226E+02  0.71838671704E+03  0.71854729238E+03  0.00000000000E+00 0. -1.
<mgrwt>
<rscale>  1 0.12591842E+03</rscale>
<asrwt>0</asrwt>
<pdfrwt beam="1">  1       21 0.11124597E+00 0.12591842E+03</pdfrwt>
<pdfrwt beam="2">  1       21 0.13167262E+00 0.12591842E+03</pdfrwt>
<totfact> 0.29310723E+02</totfact>
</mgrwt>
</event>
<event>
 6    1  0.4187588E-002  0.1363672E+03  0.7546771E-02  0.1218302E+00
         21   -1    0    0  503  502  0.00000000000E+00  0.00000000000E+00  0.40276367254E+03  0.40276367254E+03  0.00000000000E+00 0.  1.
         21   -1    0    0  504  503 -0.00000000000E+00 -0.00000000000E+00 -0.12017530805E+03  0.12017530805E+03  0.00000000000E+00 0. -1.
         25    2    1    2    0    0  0.52624909076E+02  0.14186957158E+02 -0.78777319589E+02  0.15748609931E+03  0.12500141833E+03 0.  0.
          5    1    3    3  501    0  0.89466149359E+02  0.66474621870E+01 -0.27374434812E+02  0.93796323573E+02  0.10000000000E+00 0. -1.
         -5    1    3    3    0  501 -0.36841240283E+02  0.75394949706E+01 -0.51402884777E+02  0.63689775737E+02  0.10000000000E+00 0. -1.
         21    1    1    2  504  502 -0.52624909076E+02 -0.14186957158E+02  0.36136568407E+03  0.36545288128E+03  0.00000000000E+00 0.  1.
<mgrwt>
<rscale>  1 0.13636717E+03</rscale>
<asrwt>0</asrwt>
<pdfrwt beam="1">  1       21 0.61963641E-01 0.13636717E+03</pdfrwt>
<pdfrwt beam="2">  1       21 0.18488509E-01 0.13636717E+03</pdfrwt>
<totfact> 0.66270574E+04</totfact>
</mgrwt>
</event>
<event>
 6    1  0.4187588E-002  0.1263336E+03  0.7546771E-02  0.1233000E+00
         21   -1    0    0  504  502  0.00000000000E+00  0.00000000000E+00  0.13750193343E+03  0.13750193343E+03  0.00000000000E+00 0.  1.
         21   -1    0    0  502  503 -0.00000000000E+00 -0.00000000000E+00 -0.12187968619E+03  0.12187968619E+03  0.00000000000E+00 0.  1.
         25    2    1    2    0    0 -0.19319123318E+01  0.18172386954E+02 -0.88127584007E+02  0.15403459585E+03  0.12500487080E+03 0.  0.
          5    1    3    3  501    0 -0.25506863148E+02 -0.48884071338E+02 -0.35247810034E+02  0.65442116487E+02  0.10000000000E+00 0.  1.
         -5    1    3    3    0  501  0.23574950816E+02  0.67056458292E+02 -0.52879773974E+02  0.88592479366E+02  0.10000000000E+00 0.  1.
         21    1    1    2  504  503  0.19319123318E+01 -0.18172386954E+02  0.10374983124E+03  0.10534702376E+03  0.00000000000E+00 0.  1.
<mgrwt>
<rscale>  1 0.12633363E+03</rscale>
<asrwt>0</asrwt>
<pdfrwt beam="1">  1       21 0.21154144E-01 0.12633363E+03</pdfrwt>
<pdfrwt beam="2">  1       21 0.18750721E-01 0.12633363E+03</pdfrwt>
<totfact> 0.54481179E+05</totfact>
</mgrwt>
</event>
<event>
 6    1  0.4187588E-002  0.1381190E+03  0.7546771E-02  0.1215883E+00
         21   -1    0    0  503  502  0.00000000000E+00  0.00000000000E+00  0.75562150610E+02  0.75562150610E+02  0.00000000000E+00 0. -1.
         21   -1    0    0  504  503 -0.00000000000E+00 -0.00000000000E+00 -0.14711472091E+03  0.14711472091E+03  0.00000000000E+00 0. -1.
         25    2    1    2    0    0  0.46514623732E+02 -0.35897701893E+02 -0.85297598959E+02  0.16233467207E+03  0.12499844057E+03 0.  0.
          5    1    3    3  501    0 -0.20554498678E+02 -0.27211282376E+02 -0.88281838751E+02  0.94639496816E+02  0.10000000000E+00 0.  1.
         -5    1    3    3    0  501  0.67069122410E+02 -0.86864195170E+01  0.29842397920E+01  0.67695175249E+02  0.10000000000E+00 0.  1.
         21    1    1    2  504  502 -0.46514623732E+02  0.35897701893E+02  0.13745028659E+02  0.60342199454E+02  0.00000000000E+00 0. -1.
<mgrwt>
<rscale>  1 0.13811903E+03</rscale>
<asrwt>0</asrwt>
<pdfrwt beam="1">  1       21 0.11624946E-01 0.13811903E+03</pdfrwt>
<pdfrwt beam="2">  1       21 0.22633034E-01 0.13811903E+03</pdfrwt>
<totfact> 0.11368836E+06</totfact>
</mgrwt>
</event>
<event>
 6    1  0.4187588E-002  0.1599261E+03  0.7546771E-02  0.1188780E+00
         21   -1    0    0  503  502  0.00000000000E+00  0.00000000000E+00  0.18496421758E+03  0.18496421758E+03  0.00000000000E+00 0.  1.
         21   -1    0    0  504  503 -0.00000000000E+00 -0.00000000000E+00 -0.94499206367E+02  0.94499206367E+02  0.00000000000E+00 0.  1.
         25    2    1    2    0    0 -0.76163190305E+02 -0.64423513493E+02  0.29708772523E+02  0.16266213462E+03  0.12500055291E+03 0.  0.
          5    1    3    3  501    0 -0.52994335396E+02  0.99543455617E+01  0.58545626613E+02  0.79593272172E+02  0.10000000000E+00 0. -1.
         -5    1    3    3    0  501 -0.23168854908E+02 -0.74377859054E+02 -0.28836854090E+02  0.83068862452E+02  0.10000000000E+00 0. -1.
         21    1    1    2  504  502  0.76163190305E+02  0.64423513493E+02  0.60756238694E+02  0.11680128933E+03  0.00000000000E+00 0.  1.
<mgrwt>
<rscale>  1 0.15992610E+03</rscale>
<asrwt>0</asrwt>
<pdfrwt beam="1">  1       21 0.28456033E-01 0.15992610E+03</pdfrwt>
<pdfrwt beam="2">  1       21 0.14538339E-01 0.15992610E+03</pdfrwt>
<totfact> 0.49304270E+05</totfact>
</mgrwt>
</event>
<event>
 6    1  0.4187588E-002  0.1267309E+03  0.7546771E-02  0.1232389E+00
         21   -1    0    0  503  502  0.00000000000E+00  0.00000000000E+00  0.14770323148E+03  0.14770323148E+03  0.00000000000E+00 0. -1.
         21   -1    0    0  504  503 -0.00000000000E+00 -0.00000000000E+00 -0.58178289367E+02  0.58178289367E+02  0.00000000000E+00 0. -1.
         25    2    1    2    0    0  0.20461762829E+02  0.47225641794E+01  0.14012189164E+02  0.12750319343E+03  0.12497894439E+03 0.  0.
          5    1    3    3  501    0  0.52918974279E+01  0.57846060533E+02  0.35666824655E+02  0.68163797418E+02  0.10000000000E+00 0.  1.
         -5    1    3    3    0  501  0.15169865401E+02 -0.53123496353E+02 -0.21654635491E+02  0.59339396014E+02  0.10000000000E+00 0.  1.
         21    1    1    2  504  502 -0.20461762829E+02 -0.47225641794E+01  0.75512752952E+02  0.78378327418E+02  0.00000000000E+00 0. -1.
<mgrwt>
<rscale>  1 0.12673091E+03</rscale>
<asrwt>0</asrwt>
<pdfrwt beam="1">  1       21 0.22723574E-01 0.12673091E+03</pdfrwt>
<pdfrwt beam="2">  1       21 0.89505061E-02 0.12673091E+03</pdfrwt>
<totfact> 0.17818535E+06</totfact>
</mgrwt>
</event>
<event>
 6    1  0.4187588E-002  0.1321812E+03  0.7546771E-02  0.1224255E+00
         21   -1    0    0  503  502  0.00000000000E+00  0.00000000000E+00  0.52997397456E+03  0.52997397456E+03  0.00000000000E+00 0. -1.
         21   -1    0    0  504  503 -0.00000000000E+00 -0.00000000000E+00 -0.15094096573E+02  0.15094096573E+02  0.00000000000E+00 0. -1.
         25    2    1    2    0    0 -0.31622714593E+02 -0.29089711024E+02  0.33516317368E+03  0.36028630479E+03  0.12500264422E+03 0.  0.
          5    1    3    3  501    0  0.47698326833E+02 -0.29868571989E+00  0.11446882410E+03  0.12400944032E+03  0.10000000000E+00 0.  1.
         -5    1    3    3    0  501 -0.79321041426E+02 -0.28791025305E+02  0.22069434958E+03  0.23627686448E+03  0.10000000000E+00 0.  1.
         21    1    1    2  504  502  0.31622714593E+02  0.29089711024E+02  0.17971670430E+03  0.18478176633E+03  0.00000000000E+00 0. -1.
<mgrwt>
<rscale>  1 0.13218120E+03</rscale>
<asrwt>0</asrwt>
<pdfrwt beam="1">  1       21 0.81534443E-01 0.13218120E+03</pdfrwt>
<pdfrwt beam="2">  1       21 0.23221691E-02 0.13218120E+03</pdfrwt>
<totfact> 0.12733523E+06</totfact>
</mgrwt>
</event>
<event>
 6    1  0.4187588E-002  0.1272874E+03  0.7546771E-02  0.1231537E+00
         21   -1    0    0  504  502  0.00000000000E+00  0.00000000000E+00  0.11164257243E+04  0.11164257243E+04  0.00000000000E+00 0.  1.
         21   -1    0    0  502  503 -0.00000000000E+00 -0.00000000000E+00 -0.51298891740E+01  0.51298891740E+01  0.00000000000E+00 0.  1.
         25    2    1    2    0    0 -0.12570314345E+02  0.20489976715E+02  0.92647257138E+03  0.93517565004E+03  0.12499687579E+03 0.  0.
          5    1    3    3  501    0 -0.40399530739E+02  0.36210871632E+01  0.97977131655E+02  0.10604132536E+03  0.10000000000E+00 0. -1.
         -5    1    3    3    0  501  0.27829216394E+02  0.16868889552E+02  0.82849543972E+03  0.82913432468E+03  0.10000000000E+00 0. -1.
         21    1    1    2  504  503  0.12570314345E+02 -0.20489976715E+02  0.18482326378E+03  0.18637996347E+03  0.00000000000E+00 0.  1.
<mgrwt>
<rscale>  1 0.12728736E+03</rscale>
<asrwt>0</asrwt>
<pdfrwt beam="1">  1       21 0.17175761E+00 0.12728736E+03</pdfrwt>
<pdfrwt beam="2">  1       21 0.78921460E-03 0.12728736E+03</pdfrwt>
<totfact> 0.11475789E+06</totfact>
</mgrwt>
</event>
<event>
 6    1  0.4187588E-002  0.1304646E+03  0.7546771E-02  0.1226768E+00
         21   -1    0    0  503  502  0.00000000000E+00  0.00000000000E+00  0.40123715530E+02  0.40123715530E+02  0.00000000000E+00 0.  1.
         21   -1    0    0  504  503 -0.00000000000E+00 -0.00000000000E+00 -0.60613934729E+03  0.60613934729E+03  0.00000000000E+00 0. -1.
         25    2    1    2    0    0  0.37353140322E+02  0.67642095127E+00 -0.58841396901E+03  0.60270390593E+03  0.12500113863E+03 0.  0.
          5    1    3    3  501    0  0.83471380709E+02  0.56974028001E+01 -0.40082371856E+03  0.40946256869E+03  0.10000000000E+00 0. -1.
         -5    1    3    3    0  501 -0.46118240386E+02 -0.50209818488E+01 -0.18759025044E+03  0.19324133724E+03  0.10000000000E+00 0. -1.
         21    1    1    2  504  502 -0.37353140322E+02 -0.67642095127E+00  0.22398337251E+02  0.43559156889E+02  0.00000000000E+00 0.  1.
<mgrwt>
<rscale>  1 0.13046455E+03</rscale>
<asrwt>0</asrwt>
<pdfrwt beam="1">  1       21 0.61728800E-02 0.13046455E+03</pdfrwt>
<pdfrwt beam="2">  1       21 0.93252197E-01 0.13046455E+03</pdfrwt>
<totfact> 0.18539858E+05</totfact>
</mgrwt>
</event>
<event>
 6    1  0.4187588E-002  0.1266269E+03  0.7546771E-02  0.1232548E+00
         21   -1    0    0  504  502  0.00000000000E+00  0.00000000000E+00  0.31732715760E+02  0.31732715760E+02  0.00000000000E+00 0.  1.
         21   -1    0    0  502  503 -0.00000000000E+00 -0.00000000000E+00 -0.26300658486E+03  0.26300658486E+03  0.00000000000E+00 0.  1.
         25    2    1    2    0    0 -0.19595520640E+02  0.50407498766E+01 -0.24103650612E+03  0.27227371204E+03  0.12499993358E+03 0.  0.
          5    1    3    3  501    0  0.33191369111E+02 -0.38695055197E+02 -0.14922796721E+03  0.15769581630E+03  0.10000000000E+00 0. -1.
         -5    1    3    3    0  501 -0.52786889750E+02  0.43735805074E+02 -0.91808538912E+02  0.11457789574E+03  0.10000000000E+00 0. -1.
         21    1    1    2  504  503  0.19595520640E+02 -0.50407498766E+01  0.97626370270E+01  0.22465588578E+02  0.00000000000E+00 0.  1.
<mgrwt>
<rscale>  1 0.12662692E+03</rscale>
<asrwt>0</asrwt>
<pdfrwt beam="1">  1       21 0.48819565E-02 0.12662692E+03</pdfrwt>
<pdfrwt beam="2">  1       21 0.40462550E-01 0.12662692E+03</pdfrwt>
<totfact> 0.16427723E+06</totfact>
</mgrwt>
</event>
<event>
 6    1  0.4187588E-002  0.1343484E+03  0.7546771E-02  0.1221142E+00
         21   -1    0    0  504  502  0.00000000000E+00  0.00000000000E+00  0.12079280836E+03  0.12079280836E+03  0.00000000000E+00 0.  1.
         21   -1    0    0  502  503 -0.00000000000E+00 -0.00000000000E+00 -0.83185716838E+02  0.83185716838E+02  0.00000000000E+00 0.  1.
         25    2    1    2    0    0 -0.49075062894E+01 -0.48950915102E+02 -0.11027865588E+02  0.13480024276E+03  0.12501686255E+03 0.  0.
          5    1    3    3  501    0 -0.60878639627E+02 -0.38412947191E+02  0.12707884175E+02  0.73097630570E+02  0.10000000000E+00 0.  1.
         -5    1    3    3    0  501  0.55971133338E+02 -0.10537967911E+02 -0.23735749763E+02  0.61702612195E+02  0.10000000000E+00 0.  1.
         21    1    1    2  504  503  0.49075062894E+01  0.48950915102E+02  0.48634957110E+02  0.69178282433E+02  0.00000000000E+00 0.  1.
<mgrwt>
<rscale>  1 0.13434840E+03</rscale>
<asrwt>0</asrwt>
<pdfrwt beam="1">  1       21 0.18583509E-01 0.13434840E+03</pdfrwt>
<pdfrwt beam="2">  1       21 0.12797803E-01 0.13434840E+03</pdfrwt>
<totfact> 0.13815005E+06</totfact>
</mgrwt>
</event>
<event>
 6    1  0.4187588E-002  0.1272480E+03  0.7546771E-02  0.1231597E+00
         21   -1    0    0  503  502  0.00000000000E+00  0.00000000000E+00  0.25585032053E+02  0.25585032053E+02  0.00000000000E+00 0.  1.
         21   -1    0    0  504  503 -0.00000000000E+00 -0.00000000000E+00 -0.10585092382E+04  0.10585092382E+04  0.00000000000E+00 0. -1.
         25    2    1    2    0    0  0.20245681752E+02  0.12586665182E+02 -0.10481249992E+04  0.10558210341E+04  0.12499492105E+03 0.  0.
          5    1    3    3  501    0  0.49540776670E+02  0.41593645619E+02 -0.31688998419E+03  0.32342478568E+03  0.10000000000E+00 0.  1.
         -5    1    3    3    0  501 -0.29295094918E+02 -0.29006980437E+02 -0.73123501506E+03  0.73239624845E+03  0.10000000000E+00 0.  1.
         21    1    1    2  504  502 -0.20245681752E+02 -0.12586665182E+02  0.15200793103E+02  0.28273236125E+02  0.00000000000E+00 0.  1.
<mgrwt>
<rscale>  1 0.12724796E+03</rscale>
<asrwt>0</asrwt>
<pdfrwt beam="1">  1       21 0.39361595E-02 0.12724796E+03</pdfrwt>
<pdfrwt beam="2">  1       21 0.16284754E+00 0.12724796E+03</pdfrwt>
<totfact> 0.10000672E+05</totfact>
</mgrwt>
</event>
<event>
 6    1  0.4187588E-002  0.1302069E+03  0.7546771E-02  0.1227149E+00
         21   -1    0    0  504  502  0.00000000000E+00  0.00000000000E+00  0.11852353788E+02  0.11852353788E+02  0.00000000000E+00 0. -1.
         21   -1    0    0  502  503 -0.00000000000E+00 -0.00000000000E+00 -0.28963710469E+04  0.28963710469E+04  0.00000000000E+00 0.  1.
         25    2    1    2    0    0  0.15054254281E+02 -0.33207030281E+02 -0.28628517226E+04  0.28658111967E+04  0.12499796904E+03 0.  0.
          5    1    3    3  501    0 -0.10625225498E+02  0.20238782110E+02 -0.22459634616E+04  0.22460797814E+04  0.10000000000E+00 0. -1.
         -5    1    3    3    0  501  0.25679479779E+02 -0.53445812391E+02 -0.61688826101E+03  0.61973141530E+03  0.10000000000E+00 0. -1.
         21    1    1    2  504  503 -0.15054254281E+02  0.33207030281E+02 -0.21666970476E+02  0.42412203924E+02  0.00000000000E+00 0. -1.
<mgrwt>
<rscale>  1 0.13020687E+03</rscale>
<asrwt>0</asrwt>
<pdfrwt beam="1">  1       21 0.18234390E-02 0.13020687E+03</pdfrwt>
<pdfrwt beam="2">  1       21 0.44559555E+00 0.13020687E+03</pdfrwt>
<totfact> 0.70520506E+03</totfact>
</mgrwt>
</event>
<event>
 6    1  0.4187588E-002  0.1261267E+03  0.7546771E-02  0.1233319E+00
         21   -1    0    0  504  502  0.00000000000E+00  0.00000000000E+00  0.99110468946E+02  0.99110468946E+02  0.00000000000E+00 0. -1.
         21   -1    0    0  502  503 -0.00000000000E+00 -0.00000000000E+00 -0.11267671311E+03  0.11267671311E+03  0.00000000000E+00 0. -1.
         25    2    1    2    0    0 -0.15118417752E+02 -0.74246570791E+01 -0.75910021335E+02  0.14720824864E+03  0.12499698013E+03 0.  0.
          5    1    3    3  501    0 -0.46067421729E+02 -0.41831738022E+02 -0.48603344679E+01  0.62415819323E+02  0.10000000000E+00 0. -1.
         -5    1    3    3    0  501  0.30949003977E+02  0.34407080943E+02 -0.71049686867E+02  0.84792429320E+02  0.10000000000E+00 0. -1.
         21    1    1    2  504  503  0.15118417752E+02  0.74246570791E+01  0.62343777174E+02  0.64578933410E+02  0.00000000000E+00 0. -1.
<mgrwt>
<rscale>  1 0.12612667E+03</rscale>
<asrwt>0</asrwt>
<pdfrwt beam="1">  1       21 0.15247764E-01 0.12612667E+03</pdfrwt>
<pdfrwt beam="2">  1       21 0.17334879E-01 0.12612667E+03</pdfrwt>
<totfact> 0.11450177E+06</totfact>
</mgrwt>
</event>
<event>
 6    1  0.4187588E-002  0.1260371E+03  0.7546771E-02  0.1233457E+00
         21   -1    0    0  503  502  0.00000000000E+00  0.00000000000E+00  0.68067968445E+02  0.68067968445E+02  0.00000000000E+00 0.  1.
         21   -1    0    0  504  503 -0.00000000000E+00 -0.00000000000E+00 -0.10705061458E+03  0.10705061458E+03  0.00000000000E+00 0.  1.
         25    2    1    2    0    0  0.49943952952E+01 -0.15307079441E+02 -0.67048911639E+02  0.14276173021E+03  0.12500441750E+03 0.  0.
          5    1    3    3  501    0 -0.31495460760E+02 -0.60163078608E+02 -0.31254449426E+02  0.74755673262E+02  0.10000000000E+00 0.  1.
         -5    1    3    3    0  501  0.36489856055E+02  0.44855999167E+02 -0.35794462213E+02  0.68006056945E+02  0.10000000000E+00 0.  1.
         21    1    1    2  504  502 -0.49943952952E+01  0.15307079441E+02  0.28066265500E+02  0.32356852821E+02  0.00000000000E+00 0.  1.
<mgrwt>
<rscale>  1 0.12603712E+03</rscale>
<asrwt>0</asrwt>
<pdfrwt beam="1">  1       21 0.10471995E-01 0.12603712E+03</pdfrwt>
<pdfrwt beam="2">  1       21 0.16469325E-01 0.12603712E+03</pdfrwt>
<totfact> 0.24513099E+06</totfact>
</mgrwt>
</event>
<event>
 6    1  0.4187588E-002  0.1272172E+03  0.7546771E-02  0.1231644E+00
         21   -1    0    0  504  502  0.00000000000E+00  0.00000000000E+00  0.17225361298E+03  0.17225361298E+03  0.00000000000E+00 0. -1.
         21   -1    0    0  502  503 -0.00000000000E+00 -0.00000000000E+00 -0.15562313320E+04  0.15562313320E+04  0.00000000000E+00 0.  1.
         25    2    1    2    0    0 -0.16389048551E+02 -0.17168582085E+02 -0.15527998697E+04  0.15580024542E+04  0.12498340229E+03 0.  0.
          5    1    3    3  501    0  0.60337762293E+01 -0.29394868488E+02 -0.87919788643E+02  0.92899752336E+02  0.10000000000E+00 0.  1.
         -5    1    3    3    0  501 -0.22422824780E+02  0.12226286403E+02 -0.14648800810E+04  0.14651027018E+04  0.10000000000E+00 0.  1.
         21    1    1    2  504  503  0.16389048551E+02  0.17168582085E+02  0.16882215065E+03  0.17048249081E+03  0.00000000000E+00 0. -1.
<mgrwt>
<rscale>  1 0.12721718E+03</rscale>
<asrwt>0</asrwt>
<pdfrwt beam="1">  1       21 0.26500555E-01 0.12721718E+03</pdfrwt>
<pdfrwt beam="2">  1       21 0.23942021E+00 0.12721718E+03</pdfrwt>
<totfact> 0.11419240E+03</totfact>
</mgrwt>
</event>
<event>
 6    1  0.4187588E-002  0.1261226E+03  0.7546771E-02  0.1233325E+00
         21   -1    0    0  504  502  0.00000000000E+00  0.00000000000E+00  0.29799652526E+03  0.29799652526E+03  0.00000000000E+00 0.  1.
         21   -1    0    0  502  503 -0.00000000000E+00 -0.00000000000E+00 -0.20903641500E+02  0.20903641500E+02  0.00000000000E+00 0.  1.
         25    2    1    2    0    0  0.47844629091E+01  0.16102129687E+02  0.17659742446E+03  0.21701048619E+03  0.12499892450E+03 0.  0.
          5    1    3    3  501    0  0.61023428358E+02 -0.43511362529E+01  0.11974146580E+03  0.13446493903E+03  0.10000000000E+00 0. -1.
         -5    1    3    3    0  501 -0.56238965448E+02  0.20453265940E+02  0.56855958656E+02  0.82545547167E+02  0.10000000000E+00 0. -1.
         21    1    1    2  504  503 -0.47844629091E+01 -0.16102129687E+02  0.10049545931E+03  0.10188968057E+03  0.00000000000E+00 0.  1.
<mgrwt>
<rscale>  1 0.12612256E+03</rscale>
<asrwt>0</asrwt>
<pdfrwt beam="1">  1       21 0.45845616E-01 0.12612256E+03</pdfrwt>
<pdfrwt beam="2">  1       21 0.32159451E-02 0.12612256E+03</pdfrwt>
<totfact> 0.25524292E+06</totfact>
</mgrwt>
</event>
<event>
 6    1  0.4187588E-002  0.1264670E+03  0.7546771E-02  0.1232794E+00
         21   -1    0    0  504  502  0.00000000000E+00  0.00000000000E+00  0.39076473282E+03  0.39076473282E+03  0.00000000000E+00 0. -1.
         21   -1    0    0  502  503 -0.00000000000E+00 -0.00000000000E+00 -0.13837925586E+02  0.13837925586E+02  0.00000000000E+00 0. -1.
         25    2    1    2    0    0 -0.46508825845E+01 -0.18658115507E+02  0.30572346510E+03  0.33084852690E+03  0.12499661858E+03 0.  0.
          5    1    3    3  501    0  0.28357583562E+02 -0.32246499274E+02  0.28765021963E+03  0.29083783817E+03  0.10000000000E+00 0.  1.
         -5    1    3    3    0  501 -0.33008466147E+02  0.13588383767E+02  0.18073245478E+02  0.40010688733E+02  0.10000000000E+00 0.  1.
         21    1    1    2  504  503  0.46508825845E+01  0.18658115507E+02  0.71203342131E+02  0.73754131502E+02  0.00000000000E+00 0. -1.
<mgrwt>
<rscale>  1 0.12646703E+03</rscale>
<asrwt>0</asrwt>
<pdfrwt beam="1">  1       21 0.60117643E-01 0.12646703E+03</pdfrwt>
<pdfrwt beam="2">  1       21 0.21289119E-02 0.12646703E+03</pdfrwt>
<totfact> 0.28473214E+06</totfact>
</mgrwt>
</event>
<event>
 6    1  0.4187588E-002  0.1433067E+03  0.7546771E-02  0.1208948E+00
         21   -1    0    0  504  502  0.00000000000E+00  0.00000000000E+00  0.36399672369E+03  0.36399672369E+03  0.00000000000E+00 0.  1.
         21   -1    0    0  502  503 -0.00000000000E+00 -0.00000000000E+00 -0.32926865668E+03  0.32926865668E+03  0.00000000000E+00 0. -1.
         25    2    1    2    0    0 -0.26197789399E+02 -0.65005348810E+02 -0.30998074328E+03  0.34150383694E+03  0.12499915959E+03 0.  0.
          5    1    3    3  501    0 -0.46435947867E+02 -0.50316662424E+02 -0.30898144668E+03  0.31647686829E+03  0.10000000000E+00 0.  1.
         -5    1    3    3    0  501  0.20238158468E+02 -0.14688686385E+02 -0.99929659704E+00  0.25026968646E+02  0.10000000000E+00 0.  1.
         21    1    1    2  504  503  0.26197789399E+02  0.65005348810E+02  0.34470881029E+03  0.35176154343E+03  0.00000000000E+00 0.  1.
<mgrwt>
<rscale>  1 0.14330670E+03</rscale>
<asrwt>0</asrwt>
<pdfrwt beam="1">  1       21 0.55999496E-01 0.14330670E+03</pdfrwt>
<pdfrwt beam="2">  1       21 0.50656717E-01 0.14330670E+03</pdfrwt>
<totfact> 0.11535793E+04</totfact>
</mgrwt>
</event>
<event>
 6    1  0.4187588E-002  0.1369447E+03  0.7546771E-02  0.1217500E+00
         21   -1    0    0  504  502  0.00000000000E+00  0.00000000000E+00  0.64235510256E+03  0.64235510256E+03  0.00000000000E+00 0.  1.
         21   -1    0    0  502  503 -0.00000000000E+00 -0.00000000000E+00 -0.14494908471E+02  0.14494908471E+02  0.00000000000E+00 0.  1.
         25    2    1    2    0    0  0.53361234936E+02 -0.16813798766E+02  0.45490681143E+03  0.47507268077E+03  0.12499487872E+03 0.  0.
          5    1    3    3  501    0  0.25807772105E+02 -0.52309171190E+02  0.88960785084E+02  0.10637820159E+03  0.10000000000E+00 0. -1.
         -5    1    3    3    0  501  0.27553462831E+02  0.35495372424E+02  0.36594602635E+03  0.36869447918E+03  0.10000000000E+00 0. -1.
         21    1    1    2  504  503 -0.53361234936E+02  0.16813798766E+02  0.17295338266E+03  0.18177733026E+03  0.00000000000E+00 0.  1.
<mgrwt>
<rscale>  1 0.13694468E+03</rscale>
<asrwt>0</asrwt>
<pdfrwt beam="1">  1       21 0.98823840E-01 0.13694468E+03</pdfrwt>
<pdfrwt beam="2">  1       21 0.22299864E-02 0.13694468E+03</pdfrwt>
<totfact> 0.87560093E+05</totfact>
</mgrwt>
</event>
<event>
 6    1  0.4187588E-002  0.1286488E+03  0.7546771E-02  0.1229475E+00
         21   -1    0    0  504  502  0.00000000000E+00  0.00000000000E+00  0.43419398831E+02  0.43419398831E+02  0.00000000000E+00 0.  1.
         21   -1    0    0  502  503 -0.00000000000E+00 -0.00000000000E+00 -0.15093034096E+03  0.15093034096E+03  0.00000000000E+00 0.  1.
         25    2    1    2    0    0 -0.30228362482E+02  0.33946243877E+01 -0.10019749317E+03  0.16306453708E+03  0.12500091296E+03 0.  0.
          5    1    3    3  501    0 -0.11866938558E+01  0.20984272776E+02 -0.12128699880E+03  0.12309465474E+03  0.10000000000E+00 0. -1.
         -5    1    3    3    0  501 -0.29041668626E+02 -0.17589648389E+02  0.21089505628E+02  0.39969882345E+02  0.10000000000E+00 0. -1.
         21    1    1    2  504  503  0.30228362482E+02 -0.33946243877E+01 -0.73134489578E+01  0.31285202712E+02  0.00000000000E+00 0.  1.
<mgrwt>
<rscale>  1 0.12864877E+03</rscale>
<asrwt>0</asrwt>
<pdfrwt beam="1">  1       21 0.66799076E-02 0.12864877E+03</pdfrwt>
<pdfrwt beam="2">  1       21 0.23220052E-01 0.12864877E+03</pdfrwt>
<totfact> 0.28320714E+06</totfact>
</mgrwt>
</event>
<event>
 6    1  0.4187588E-002  0.1319712E+03  0.7546771E-02  0.1224560E+00
         21   -1    0    0  503  502  0.00000000000E+00  0.00000000000E+00  0.26512330418E+03  0.26512330418E+03  0.00000000000E+00 0. -1.
         21   -1    0    0  504  503 -0.00000000000E+00 -0.00000000000E+00 -0.40836620325E+03  0.40836620325E+03  0.00000000000E+00 0.  1.
         25    2    1    2    0    0 -0.17080397435E+02 -0.38727788599E+02 -0.39589730344E+03  0.41731411902E+03  0.12499926990E+03 0.  0.
          5    1    3    3  501    0 -0.37861800341E+02  0.21748206203E+02 -0.53787676410E+02  0.69279322541E+02  0.10000000000E+00 0. -1.
         -5    1    3    3    0  501  0.20781402905E+02 -0.60475994802E+02 -0.34210962703E+03  0.34803479648E+03  0.10000000000E+00 0. -1.
         21    1    1    2  504  502  0.17080397435E+02  0.38727788599E+02  0.25265440437E+03  0.25617538842E+03  0.00000000000E+00 0. -1.
<mgrwt>
<rscale>  1 0.13197121E+03</rscale>
<asrwt>0</asrwt>
<pdfrwt beam="1">  1       21 0.40788201E-01 0.13197121E+03</pdfrwt>
<pdfrwt beam="2">  1       21 0.62825569E-01 0.13197121E+03</pdfrwt>
<totfact> 0.14181104E+04</totfact>
</mgrwt>
</event>
<event>
 6    1  0.4187588E-002  0.1399017E+03  0.7546771E-02  0.1213461E+00
         21   -1    0    0  503  502  0.00000000000E+00  0.00000000000E+00  0.23038872111E+04  0.23038872111E+04  0.00000000000E+00 0. -1.
         21   -1    0    0  504  503 -0.00000000000E+00 -0.00000000000E+00 -0.13824713053E+02  0.13824713053E+02  0.00000000000E+00 0. -1.
         25    2    1    2    0    0 -0.41744084214E+01 -0.62694355334E+02  0.35417429593E+03  0.38080430143E+03  0.12499790483E+03 0.  0.
          5    1    3    3  501    0  0.23248933487E+02  0.22940477173E+02  0.19731464265E+03  0.19999964151E+03  0.10000000000E+00 0.  1.
         -5    1    3    3    0  501 -0.27423341909E+02 -0.85634832507E+02  0.15685965328E+03  0.18080465992E+03  0.10000000000E+00 0.  1.
         21    1    1    2  504  502  0.41744084214E+01  0.62694355334E+02  0.19358882021E+04  0.19369076227E+04  0.00000000000E+00 0. -1.
<mgrwt>
<rscale>  1 0.13990169E+03</rscale>
<asrwt>0</asrwt>
<pdfrwt beam="1">  1       21 0.35444388E+00 0.13990169E+03</pdfrwt>
<pdfrwt beam="2">  1       21 0.21268808E-02 0.13990169E+03</pdfrwt>
<totfact> 0.19612374E+04</totfact>
</mgrwt>
</event>
<event>
 6    1  0.4187588E-002  0.1264747E+03  0.7546771E-02  0.1232782E+00
         21   -1    0    0  503  502  0.00000000000E+00  0.00000000000E+00  0.17933956985E+02  0.17933956985E+02  0.00000000000E+00 0.  1.
         21   -1    0    0  504  503 -0.00000000000E+00 -0.00000000000E+00 -0.29599418214E+03  0.29599418214E+03  0.00000000000E+00 0.  1.
         25    2    1    2    0    0  0.17392973062E+02  0.82279492706E+01 -0.24092920209E+03  0.27210795817E+03  0.12500258325E+03 0.  0.
          5    1    3    3  501    0 -0.41636399283E+02  0.27527905498E+02 -0.47309511728E+02  0.68771907246E+02  0.10000000000E+00 0. -1.
         -5    1    3    3    0  501  0.59029372345E+02 -0.19299956227E+02 -0.19361969036E+03  0.20333605093E+03  0.10000000000E+00 0. -1.
         21    1    1    2  504  502 -0.17392973062E+02 -0.82279492706E+01 -0.37131023066E+02  0.41820180954E+02  0.00000000000E+00 0.  1.
<mgrwt>
<rscale>  1 0.12647474E+03</rscale>
<asrwt>0</asrwt>
<pdfrwt beam="1">  1       21 0.27590707E-02 0.12647474E+03</pdfrwt>
<pdfrwt beam="2">  1       21 0.45537561E-01 0.12647474E+03</pdfrwt>
<totfact> 0.33266171E+06</totfact>
</mgrwt>
</event>
<event>
 6    1  0.4187588E-002  0.1265270E+03  0.7546771E-02  0.1232702E+00
         21   -1    0    0  504  502  0.00000000000E+00  0.00000000000E+00  0.92294917104E+01  0.92294917104E+01  0.00000000000E+00 0.  1.
         21   -1    0    0  502  503 -0.00000000000E+00 -0.00000000000E+00 -0.76413552449E+03  0.76413552449E+03  0.00000000000E+00 0.  1.
         25    2    1    2    0    0  0.19449709043E+01  0.19495189328E+02 -0.73355586644E+03  0.74438787139E+03  0.12500099424E+03 0.  0.
          5    1    3    3  501    0  0.16105448355E+02  0.58679619748E+02 -0.62746844401E+03  0.63041204103E+03  0.10000000000E+00 0. -1.
         -5    1    3    3    0  501 -0.14160477451E+02 -0.39184430420E+02 -0.10608742243E+03  0.11397583036E+03  0.10000000000E+00 0. -1.
         21    1    1    2  504  503 -0.19449709043E+01 -0.19495189328E+02 -0.21350166336E+02  0.28977144810E+02  0.00000000000E+00 0.  1.
<mgrwt>
<rscale>  1 0.12652705E+03</rscale>
<asrwt>0</asrwt>
<pdfrwt beam="1">  1       21 0.14199217E-02 0.12652705E+03</pdfrwt>
<pdfrwt beam="2">  1       21 0.11755932E+00 0.12652705E+03</pdfrwt>
<totfact> 0.11970623E+06</totfact>
</mgrwt>
</event>
<event>
 6    1  0.4187588E-002  0.1874274E+03  0.7546771E-02  0.1160802E+00
         21   -1    0    0  504  502  0.00000000000E+00  0.00000000000E+00  0.34073442261E+03  0.34073442261E+03  0.00000000000E+00 0.  1.
         21   -1    0    0  502  503 -0.00000000000E+00 -0.00000000000E+00 -0.16434190213E+03  0.16434190213E+03  0.00000000000E+00 0.  1.
         25    2    1    2    0    0  0.13385079123E+03  0.39850318779E+02 -0.87240849153E+02  0.20673652551E+03  0.12499977200E+03 0.  0.
          5    1    3    3  501    0  0.35336205012E+02  0.96552120976E+01 -0.96562706466E+02  0.10327747472E+03  0.10000000000E+00 0.  1.
         -5    1    3    3    0  501  0.98514586223E+02  0.30195106682E+02  0.93218573135E+01  0.10345905079E+03  0.10000000000E+00 0.  1.
         21    1    1    2  504  503 -0.13385079123E+03 -0.39850318779E+02  0.26363336964E+03  0.29833979923E+03  0.00000000000E+00 0.  1.
<mgrwt>
<rscale>  1 0.18742739E+03</rscale>
<asrwt>0</asrwt>
<pdfrwt beam="1">  1       21 0.52420680E-01 0.18742739E+03</pdfrwt>
<pdfrwt beam="2">  1       21 0.25283370E-01 0.18742739E+03</pdfrwt>
<totfact> 0.51290414E+04</totfact>
</mgrwt>
</event>
<event>
 6    1  0.4187588E-002  0.1271454E+03  0.7546771E-02  0.1231754E+00
         21   -1    0    0  503  502  0.00000000000E+00  0.00000000000E+00  0.22677979921E+02  0.22677979921E+02  0.00000000000E+00 0. -1.
         21   -1    0    0  504  503 -0.00000000000E+00 -0.00000000000E+00 -0.25000634170E+03  0.25000634170E+03  0.00000000000E+00 0. -1.
         25    2    1    2    0    0 -0.23136924561E+02 -0.18377661509E-01 -0.18566429703E+03  0.22502708810E+03  0.12502256424E+03 0.  0.
          5    1    3    3  501    0  0.15710918442E+02  0.53999241973E+02 -0.11472302916E+03  0.12776593643E+03  0.10000000000E+00 0.  1.
         -5    1    3    3    0  501 -0.38847843003E+02 -0.54017619634E+02 -0.70941267876E+02  0.97261151673E+02  0.10000000000E+00 0.  1.
         21    1    1    2  504  502  0.23136924561E+02  0.18377661509E-01 -0.41664064749E+02  0.47657233525E+02  0.00000000000E+00 0. -1.
<mgrwt>
<rscale>  1 0.12714543E+03</rscale>
<asrwt>0</asrwt>
<pdfrwt beam="1">  1       21 0.34889198E-02 0.12714543E+03</pdfrwt>
<pdfrwt beam="2">  1       21 0.38462516E-01 0.12714543E+03</pdfrwt>
<totfact> 0.31783076E+06</totfact>
</mgrwt>
</event>
<event>
 6    1  0.4187588E-002  0.1294733E+03  0.7546771E-02  0.1228239E+00
         21   -1    0    0  504  502  0.00000000000E+00  0.00000000000E+00  0.75456631509E+02  0.75456631509E+02  0.00000000000E+00 0.  1.
         21   -1    0    0  502  503 -0.00000000000E+00 -0.00000000000E+00 -0.15113363429E+03  0.15113363429E+03  0.00000000000E+00 0.  1.
         25    2    1    2    0    0  0.33495263573E+02 -0.43338617252E+01 -0.11610745138E+03  0.17390880594E+03  0.12499046955E+03 0.  0.
          5    1    3    3  501    0  0.60221176308E+02  0.27237570256E+02 -0.19646227646E+02  0.68952589292E+02  0.10000000000E+00 0.  1.
         -5    1    3    3    0  501 -0.26725912735E+02 -0.31571431981E+02 -0.96461223732E+02  0.10495621665E+03  0.10000000000E+00 0.  1.
         21    1    1    2  504  503 -0.33495263573E+02  0.43338617252E+01  0.40430448597E+02  0.52681459860E+02  0.00000000000E+00 0.  1.
<mgrwt>
<rscale>  1 0.12947329E+03</rscale>
<asrwt>0</asrwt>
<pdfrwt beam="1">  1       21 0.11608713E-01 0.12947329E+03</pdfrwt>
<pdfrwt beam="2">  1       21 0.23251328E-01 0.12947329E+03</pdfrwt>
<totfact> 0.10828422E+06</totfact>
</mgrwt>
</event>
<event>
 6    1  0.4187588E-002  0.1296523E+03  0.7546771E-02  0.1227973E+00
         21   -1    0    0  503  502  0.00000000000E+00  0.00000000000E+00  0.12243936027E+02  0.12243936027E+02  0.00000000000E+00 0.  1.
         21   -1    0    0  504  503 -0.00000000000E+00 -0.00000000000E+00 -0.15683159589E+04  0.15683159589E+04  0.00000000000E+00 0.  1.
         25    2    1    2    0    0  0.14563759244E+02 -0.31149716958E+02 -0.15344994836E+04  0.15399670088E+04  0.12500926029E+03 0.  0.
          5    1    3    3  501    0 -0.20134977569E+02 -0.12304680672E+02 -0.13891252607E+04  0.13893256718E+04  0.10000000000E+00 0. -1.
         -5    1    3    3    0  501  0.34698736813E+02 -0.18845036286E+02 -0.14537422291E+03  0.15064133701E+03  0.10000000000E+00 0. -1.
         21    1    1    2  504  502 -0.14563759244E+02  0.31149716958E+02 -0.21572539238E+02  0.40592886064E+02  0.00000000000E+00 0.  1.
<mgrwt>
<rscale>  1 0.12965232E+03</rscale>
<asrwt>0</asrwt>
<pdfrwt beam="1">  1       21 0.18836846E-02 0.12965232E+03</pdfrwt>
<pdfrwt beam="2">  1       21 0.24127911E+00 0.12965232E+03</pdfrwt>
<totfact> 0.10636970E+05</totfact>
</mgrwt>
</event>
<event>
 6    1  0.4187588E-002  0.1284755E+03  0.7546771E-02  0.1229735E+00
         21   -1    0    0  503  502  0.00000000000E+00  0.00000000000E+00  0.13713432901E+03  0.13713432901E+03  0.00000000000E+00 0. -1.
         21   -1    0    0  504  503 -0.00000000000E+00 -0.00000000000E+00 -0.27448991719E+03  0.27448991719E+03  0.00000000000E+00 0. -1.
         25    2    1    2    0    0 -0.61842977612E+01  0.29026737702E+02 -0.25755221413E+03  0.28781784116E+03  0.12500067859E+03 0.  0.
          5    1    3    3  501    0  0.47725346590E+02 -0.22152085416E+02 -0.85471575831E+02  0.10036844061E+03  0.10000000000E+00 0. -1.
         -5    1    3    3    0  501 -0.53909644351E+02  0.51178823118E+02 -0.17208063830E+03  0.18744940055E+03  0.10000000000E+00 0. -1.
         21    1    1    2  504  502  0.61842977612E+01 -0.29026737702E+02  0.12019662595E+03  0.12380640505E+03  0.00000000000E+00 0. -1.
<mgrwt>
<rscale>  1 0.12847555E+03</rscale>
<asrwt>0</asrwt>
<pdfrwt beam="1">  1       21 0.21097589E-01 0.12847555E+03</pdfrwt>
<pdfrwt beam="2">  1       21 0.42229218E-01 0.12847555E+03</pdfrwt>
<totfact> 0.11536374E+05</totfact>
</mgrwt>
</event>
<event>
 6    1  0.4187588E-002  0.1360432E+03  0.7546771E-02  0.1218755E+00
         21   -1    0    0  503  502  0.00000000000E+00  0.00000000000E+00  0.96515358083E+03  0.96515358083E+03  0.00000000000E+00 0. -1.
         21   -1    0    0  504  503 -0.00000000000E+00 -0.00000000000E+00 -0.19381641737E+02  0.19381641737E+02  0.00000000000E+00 0. -1.
         25    2    1    2    0    0  0.51954353383E+02 -0.13572070957E+02  0.23348958483E+03  0.27023163995E+03  0.12499718821E+03 0.  0.
          5    1    3    3  501    0  0.52646408667E+02 -0.15947126710E+02  0.22831055419E+02  0.59558561831E+02  0.10000000000E+00 0.  1.
         -5    1    3    3    0  501 -0.69205528377E+00  0.23750557528E+01  0.21065852941E+03  0.21067307812E+03  0.10000000000E+00 0.  1.
         21    1    1    2  504  502 -0.51954353383E+02  0.13572070957E+02  0.71228235426E+03  0.71430358262E+03  0.00000000000E+00 0. -1.
<mgrwt>
<rscale>  1 0.13604320E+03</rscale>
<asrwt>0</asrwt>
<pdfrwt beam="1">  1       21 0.14848513E+00 0.13604320E+03</pdfrwt>
<pdfrwt beam="2">  1       21 0.29817918E-02 0.13604320E+03</pdfrwt>
<totfact> 0.20064651E+05</totfact>
</mgrwt>
</event>
<event>
 6    1  0.4187588E-002  0.1279695E+03  0.7546771E-02  0.1230500E+00
         21   -1    0    0  504  502  0.00000000000E+00  0.00000000000E+00  0.41311103514E+02  0.41311103514E+02  0.00000000000E+00 0. -1.
         21   -1    0    0  502  503 -0.00000000000E+00 -0.00000000000E+00 -0.24888395327E+03  0.24888395327E+03  0.00000000000E+00 0. -1.
         25    2    1    2    0    0  0.11979977128E+02 -0.24647684428E+02 -0.22419262265E+03  0.25814439298E+03  0.12500066951E+03 0.  0.
          5    1    3    3  501    0  0.27950604676E+02  0.38056438297E+02 -0.36708764715E+02  0.59808629850E+02  0.10000000000E+00 0.  1.
         -5    1    3    3    0  501 -0.15970627548E+02 -0.62704122725E+02 -0.18748385793E+03  0.19833576313E+03  0.10000000000E+00 0.  1.
         21    1    1    2  504  503 -0.11979977128E+02  0.24647684428E+02  0.16619772888E+02  0.32050663808E+02  0.00000000000E+00 0. -1.
<mgrwt>
<rscale>  1 0.12796951E+03</rscale>
<asrwt>0</asrwt>
<pdfrwt beam="1">  1       21 0.63555543E-02 0.12796951E+03</pdfrwt>
<pdfrwt beam="2">  1       21 0.38289840E-01 0.12796951E+03</pdfrwt>
<totfact> 0.11749420E+06</totfact>
</mgrwt>
</event>
<event>
 6    1  0.4187588E-002  0.1263464E+03  0.7546771E-02  0.1232980E+00
         21   -1    0    0  503  502  0.00000000000E+00  0.00000000000E+00  0.44733307144E+03  0.44733307144E+03  0.00000000000E+00 0. -1.
         21   -1    0    0  504  503 -0.00000000000E+00 -0.00000000000E+00 -0.11710449638E+02  0.11710449638E+02  0.00000000000E+00 0. -1.
         25    2    1    2    0    0 -0.16648904243E+01 -0.18317604389E+02  0.37802621408E+03  0.39858152745E+03  0.12500043601E+03 0.  0.
          5    1    3    3  501    0 -0.67771490907E-01  0.53500154516E+02  0.13691423250E+03  0.14699587813E+03  0.10000000000E+00 0.  1.
         -5    1    3    3    0  501 -0.15971189333E+01 -0.71817758905E+02  0.24111198158E+03  0.25158564932E+03  0.10000000000E+00 0.  1.
         21    1    1    2  504  502  0.16648904243E+01  0.18317604389E+02  0.57596407719E+02  0.60461993623E+02  0.00000000000E+00 0. -1.
<mgrwt>
<rscale>  1 0.12634641E+03</rscale>
<asrwt>0</asrwt>
<pdfrwt beam="1">  1       21 0.68820460E-01 0.12634641E+03</pdfrwt>
<pdfrwt beam="2">  1       21 0.18016080E-02 0.12634641E+03</pdfrwt>
<totfact> 0.27871346E+06</totfact>
</mgrwt>
</event>
<event>
 6    1  0.4187588E-002  0.1482770E+03  0.7546771E-02  0.1202606E+00
         21   -1    0    0  503  502  0.00000000000E+00  0.00000000000E+00  0.85727785247E+03  0.85727785247E+03  0.00000000000E+00 0.  1.
         21   -1    0    0  504  503 -0.00000000000E+00 -0.00000000000E+00 -0.15164864565E+02  0.15164864565E+02  0.00000000000E+00 0.  1.
         25    2    1    2    0    0 -0.30615167127E+02 -0.73641019281E+02  0.54347406291E+03  0.56333837267E+03  0.12500310754E+03 0.  0.
          5    1    3    3  501    0 -0.47017319951E+02 -0.87005905906E+02  0.52785538063E+03  0.53704000680E+03  0.10000000000E+00 0.  1.
         -5    1    3    3    0  501  0.16402152823E+02  0.13364886625E+02  0.15618682273E+02  0.26298365875E+02  0.10000000000E+00 0.  1.
         21    1    1    2  504  502  0.30615167127E+02  0.73641019281E+02  0.29863892500E+03  0.30910434436E+03  0.00000000000E+00 0.  1.
<mgrwt>
<rscale>  1 0.14827699E+03</rscale>
<asrwt>0</asrwt>
<pdfrwt beam="1">  1       21 0.13188886E+00 0.14827699E+03</pdfrwt>
<pdfrwt beam="2">  1       21 0.23330568E-02 0.14827699E+03</pdfrwt>
<totfact> 0.40382427E+05</totfact>
</mgrwt>
</event>
<event>
 6    1  0.4187588E-002  0.1306495E+03  0.7546771E-02  0.1226495E+00
         21   -1    0    0  503  502  0.00000000000E+00  0.00000000000E+00  0.18292378264E+02  0.18292378264E+02  0.00000000000E+00 0.  1.
         21   -1    0    0  504  503 -0.00000000000E+00 -0.00000000000E+00 -0.39863692029E+03  0.39863692029E+03  0.00000000000E+00 0.  1.
         25    2    1    2    0    0  0.48521280483E+01  0.37694713956E+02 -0.31962571568E+03  0.34529683050E+03  0.12499947369E+03 0.  0.
          5    1    3    3  501    0 -0.39927979327E+02 -0.90074580523E+01 -0.36402680238E+02  0.54777212070E+02  0.10000000000E+00 0.  1.
         -5    1    3    3    0  501  0.44780107375E+02  0.46702172008E+02 -0.28322303545E+03  0.29051961843E+03  0.10000000000E+00 0.  1.
         21    1    1    2  504  502 -0.48521280483E+01 -0.37694713956E+02 -0.60718826338E+02  0.71632468048E+02  0.00000000000E+00 0.  1.
<mgrwt>
<rscale>  1 0.13064954E+03</rscale>
<asrwt>0</asrwt>
<pdfrwt beam="1">  1       21 0.28142121E-02 0.13064954E+03</pdfrwt>
<pdfrwt beam="2">  1       21 0.61328755E-01 0.13064954E+03</pdfrwt>
<totfact> 0.17348412E+06</totfact>
</mgrwt>
</event>
<event>
 6    1  0.4187588E-002  0.1282344E+03  0.7546771E-02  0.1230099E+00
         21   -1    0    0  503  502  0.00000000000E+00  0.00000000000E+00  0.13202274642E+02  0.13202274642E+02  0.00000000000E+00 0. -1.
         21   -1    0    0  504  503 -0.00000000000E+00 -0.00000000000E+00 -0.11524655299E+04  0.11524655299E+04  0.00000000000E+00 0. -1.
         25    2    1    2    0    0  0.83868293807E+01  0.27365143770E+02 -0.11274255993E+04  0.11346949116E+04  0.12499948144E+03 0.  0.
          5    1    3    3  501    0  0.23176934492E+02 -0.46858351846E+02 -0.42455664215E+03  0.42776305103E+03  0.10000000000E+00 0. -1.
         -5    1    3    3    0  501 -0.14790105111E+02  0.74223495616E+02 -0.70286895716E+03  0.70693186054E+03  0.10000000000E+00 0. -1.
         21    1    1    2  504  502 -0.83868293807E+01 -0.27365143770E+02 -0.11837655946E+02  0.30972892970E+02  0.00000000000E+00 0. -1.
<mgrwt>
<rscale>  1 0.12823440E+03</rscale>
<asrwt>0</asrwt>
<pdfrwt beam="1">  1       21 0.20311195E-02 0.12823440E+03</pdfrwt>
<pdfrwt beam="2">  1       21 0.17730236E+00 0.12823440E+03</pdfrwt>
<totfact> 0.23443456E+05</totfact>
</mgrwt>
</event>
<event>
 6    1  0.4187588E-002  0.1269674E+03  0.7546771E-02  0.1232026E+00
         21   -1    0    0  503  502  0.00000000000E+00  0.00000000000E+00  0.25558698631E+01  0.25558698631E+01  0.00000000000E+00 0.  1.
         21   -1    0    0  504  503 -0.00000000000E+00 -0.00000000000E+00 -0.22683324093E+04  0.22683324093E+04  0.00000000000E+00 0.  1.
         25    2    1    2    0    0  0.21494159497E+02  0.58103487626E+01 -0.20603966451E+04  0.20643049787E+04  0.12499980309E+03 0.  0.
          5    1    3    3  501    0  0.62501132558E+02  0.39462163131E+02 -0.11921192363E+04  0.11944086141E+04  0.10000000000E+00 0. -1.
         -5    1    3    3    0  501 -0.41006973060E+02 -0.33651814369E+02 -0.86827740877E+03  0.86989636454E+03  0.10000000000E+00 0. -1.
         21    1    1    2  504  502 -0.21494159497E+02 -0.58103487626E+01 -0.20537989429E+03  0.20658330045E+03  0.00000000000E+00 0.  1.
<mgrwt>
<rscale>  1 0.12696736E+03</rscale>
<asrwt>0</asrwt>
<pdfrwt beam="1">  1       21 0.39320888E-03 0.12696736E+03</pdfrwt>
<pdfrwt beam="2">  1       21 0.34897587E+00 0.12696736E+03</pdfrwt>
<totfact> 0.30589293E+05</totfact>
</mgrwt>
</event>
<event>
 6    1  0.4187588E-002  0.1298489E+03  0.7546771E-02  0.1227680E+00
         21   -1    0    0  503  502  0.00000000000E+00  0.00000000000E+00  0.67391494493E+03  0.67391494493E+03  0.00000000000E+00 0.  1.
         21   -1    0    0  504  503 -0.00000000000E+00 -0.00000000000E+00 -0.12420532200E+02  0.12420532200E+02  0.00000000000E+00 0.  1.
         25    2    1    2    0    0 -0.30921890916E+02  0.16806882430E+02  0.35826075333E+03  0.38106627326E+03  0.12498840990E+03 0.  0.
          5    1    3    3  501    0 -0.45724435347E+02  0.56265122609E+02  0.12912377101E+03  0.14808594211E+03  0.10000000000E+00 0. -1.
         -5    1    3    3    0  501  0.14802544431E+02 -0.39458240180E+02  0.22913698232E+03  0.23298033116E+03  0.10000000000E+00 0. -1.
         21    1    1    2  504  502  0.30921890916E+02 -0.16806882430E+02  0.30323365941E+03  0.30526920387E+03  0.00000000000E+00 0.  1.
<mgrwt>
<rscale>  1 0.12984890E+03</rscale>
<asrwt>0</asrwt>
<pdfrwt beam="1">  1       21 0.10367919E+00 0.12984890E+03</pdfrwt>
<pdfrwt beam="2">  1       21 0.19108516E-02 0.12984890E+03</pdfrwt>
<totfact> 0.10042871E+06</totfact>
</mgrwt>
</event>
<event>
 6    1  0.4187588E-002  0.1259630E+03  0.7546771E-02  0.1233572E+00
         21   -1    0    0  503  502  0.00000000000E+00  0.00000000000E+00  0.10124579537E+02  0.10124579537E+02  0.00000000000E+00 0. -1.
         21   -1    0    0  504  503 -0.00000000000E+00 -0.00000000000E+00 -0.65231514835E+03  0.65231514835E+03  0.00000000000E+00 0. -1.
         25    2    1    2    0    0  0.12533735412E+02 -0.91598590309E+01 -0.63062217186E+03  0.64307932115E+03  0.12500276843E+03 0.  0.
          5    1    3    3  501    0  0.51902618182E+02 -0.24575886221E+02 -0.15025828157E+03  0.16085837603E+03  0.10000000000E+00 0. -1.
         -5    1    3    3    0  501 -0.39368882771E+02  0.15416027190E+02 -0.48036389028E+03  0.48222094512E+03  0.10000000000E+00 0. -1.
         21    1    1    2  504  502 -0.12533735412E+02  0.91598590309E+01 -0.11568396957E+02  0.19360406736E+02  0.00000000000E+00 0. -1.
<mgrwt>
<rscale>  1 0.12596305E+03</rscale>
<asrwt>0</asrwt>
<pdfrwt beam="1">  1       21 0.15576270E-02 0.12596305E+03</pdfrwt>
<pdfrwt beam="2">  1       21 0.10035622E+00 0.12596305E+03</pdfrwt>
<totfact> 0.15051989E+06</totfact>
</mgrwt>
</event>
<event>
 6    1  0.4187588E-002  0.1900557E+03  0.7546771E-02  0.1158411E+00
         21   -1    0    0  504  502  0.00000000000E+00  0.00000000000E+00  0.68569643141E+03  0.68569643141E+03  0.00000000000E+00 0. -1.
         21   -1    0    0  502  503 -0.00000000000E+00 -0.00000000000E+00 -0.58243959933E+02  0.58243959933E+02  0.00000000000E+00 0. -1.
         25    2    1    2    0    0  0.98032636424E+02 -0.10433754506E+03  0.14042343117E+03  0.23630468809E+03  0.12499777790E+03 0.  0.
          5    1    3    3  501    0  0.12070736669E+03 -0.11287409772E+03  0.11604283407E+03  0.20193261165E+03  0.10000000000E+00 0.  1.
         -5    1    3    3    0  501 -0.22674730264E+02  0.85365526640E+01  0.24380597102E+02  0.34372076443E+02  0.10000000000E+00 0.  1.
         21    1    1    2  504  503 -0.98032636424E+02  0.10433754506E+03  0.48702904031E+03  0.50763570325E+03  0.00000000000E+00 0. -1.
<mgrwt>
<rscale>  1 0.19005569E+03</rscale>
<asrwt>0</asrwt>
<pdfrwt beam="1">  1       21 0.10549175E+00 0.19005569E+03</pdfrwt>
<pdfrwt beam="2">  1       21 0.89606097E-02 0.19005569E+03</pdfrwt>
<totfact> 0.71202620E+04</totfact>
</mgrwt>
</event>
<event>
 6    1  0.4187588E-002  0.1447745E+03  0.7546771E-02  0.1207045E+00
         21   -1    0    0  503  502  0.00000000000E+00  0.00000000000E+00  0.43209512365E+03  0.43209512365E+03  0.00000000000E+00 0.  1.
         21   -1    0    0  504  503 -0.00000000000E+00 -0.00000000000E+00 -0.34346160661E+02  0.34346160661E+02  0.00000000000E+00 0.  1.
         25    2    1    2    0    0 -0.70521222685E+02 -0.18992933675E+02  0.15133713455E+03  0.20943396229E+03  0.12500272752E+03 0.  0.
          5    1    3    3  501    0  0.18917818572E+02  0.35286645785E+02  0.45677398082E+02  0.60740974028E+02  0.10000000000E+00 0. -1.
         -5    1    3    3    0  501 -0.89439041257E+02 -0.54279579460E+02  0.10565973647E+03  0.14869298826E+03  0.10000000000E+00 0. -1.
         21    1    1    2  504  502  0.70521222685E+02  0.18992933675E+02  0.24641182844E+03  0.25700732203E+03  0.00000000000E+00 0.  1.
<mgrwt>
<rscale>  1 0.14477450E+03</rscale>
<asrwt>0</asrwt>
<pdfrwt beam="1">  1       21 0.66476169E-01 0.14477450E+03</pdfrwt>
<pdfrwt beam="2">  1       21 0.52840250E-02 0.14477450E+03</pdfrwt>
<totfact> 0.51217185E+05</totfact>
</mgrwt>
</event>
<event>
 6    1  0.4187588E-002  0.1279392E+03  0.7546771E-02  0.1230546E+00
         21   -1    0    0  503  502  0.00000000000E+00  0.00000000000E+00  0.62837643616E+03  0.62837643616E+03  0.00000000000E+00 0.  1.
         21   -1    0    0  504  503 -0.00000000000E+00 -0.00000000000E+00 -0.97015854668E+01  0.97015854668E+01  0.00000000000E+00 0.  1.
         25    2    1    2    0    0 -0.16383546955E+02 -0.21789465564E+02  0.48060718846E+03  0.49734465396E+03  0.12500093521E+03 0.  0.
          5    1    3    3  501    0  0.27063188219E+02 -0.25557533122E+02  0.42523572965E+03  0.42686185051E+03  0.10000000000E+00 0. -1.
         -5    1    3    3    0  501 -0.43446735174E+02  0.37680675576E+01  0.55371458810E+02  0.70482803442E+02  0.10000000000E+00 0. -1.
         21    1    1    2  504  502  0.16383546955E+02  0.21789465564E+02  0.13806766223E+03  0.14073336767E+03  0.00000000000E+00 0.  1.
<mgrwt>
<rscale>  1 0.12793919E+03</rscale>
<asrwt>0</asrwt>
<pdfrwt beam="1">  1       21 0.96673266E-01 0.12793919E+03</pdfrwt>
<pdfrwt beam="2">  1       21 0.14925521E-02 0.12793919E+03</pdfrwt>
<totfact> 0.17583147E+06</totfact>
</mgrwt>
</event>
<event>
 6    1  0.4187588E-002  0.1273233E+03  0.7546771E-02  0.1231482E+00
         21   -1    0    0  503  502  0.00000000000E+00  0.00000000000E+00  0.42876609156E+02  0.42876609156E+02  0.00000000000E+00 0. -1.
         21   -1    0    0  504  503 -0.00000000000E+00 -0.00000000000E+00 -0.27708915674E+03  0.27708915674E+03  0.00000000000E+00 0. -1.
         25    2    1    2    0    0 -0.15743950233E+01 -0.24199784347E+02 -0.25692283800E+03  0.28674129339E+03  0.12499246524E+03 0.  0.
          5    1    3    3  501    0 -0.16637770910E+02 -0.16571630536E+01 -0.25900952692E+03  0.25954865949E+03  0.10000000000E+00 0.  1.
         -5    1    3    3    0  501  0.15063375886E+02 -0.22542621294E+02  0.20866889132E+01  0.27192633902E+02  0.10000000000E+00 0.  1.
         21    1    1    2  504  502  0.15743950233E+01  0.24199784347E+02  0.22710290419E+02  0.33224472502E+02  0.00000000000E+00 0.  1.
<mgrwt>
<rscale>  1 0.12732331E+03</rscale>
<asrwt>0</asrwt>
<pdfrwt beam="1">  1       21 0.65964015E-02 0.12732331E+03</pdfrwt>
<pdfrwt beam="2">  1       21 0.42629101E-01 0.12732331E+03</pdfrwt>
<totfact> 0.88958282E+05</totfact>
</mgrwt>
</event>
<event>
 6    1  0.4187588E-002  0.1264318E+03  0.7546771E-02  0.1232849E+00
         21   -1    0    0  504  502  0.00000000000E+00  0.00000000000E+00  0.57757761771E+02  0.57757761771E+02  0.00000000000E+00 0. -1.
         21   -1    0    0  502  503 -0.00000000000E+00 -0.00000000000E+00 -0.17707838729E+03  0.17707838729E+03  0.00000000000E+00 0.  1.
         25    2    1    2    0    0  0.61013135329E+01 -0.17971622310E+02 -0.15159305506E+03  0.19739666531E+03  0.12499913560E+03 0.  0.
          5    1    3    3  501    0  0.11058717100E+02 -0.29717579978E+02 -0.17114358456E+03  0.17405621597E+03  0.10000000000E+00 0.  1.
         -5    1    3    3    0  501 -0.49574035671E+01  0.11745957668E+02  0.19550529501E+02  0.23340449341E+02  0.10000000000E+00 0.  1.
         21    1    1    2  504  503 -0.61013135329E+01  0.17971622310E+02  0.32272429536E+02  0.37439483750E+02  0.00000000000E+00 0. -1.
<mgrwt>
<rscale>  1 0.12643176E+03</rscale>
<asrwt>0</asrwt>
<pdfrwt beam="1">  1       21 0.88858096E-02 0.12643176E+03</pdfrwt>
<pdfrwt beam="2">  1       21 0.27242828E-01 0.12643176E+03</pdfrwt>
<totfact> 0.12811189E+06</totfact>
</mgrwt>
</event>
<event>
 6    1  0.4187588E-002  0.1266093E+03  0.7546771E-02  0.1232575E+00
         21   -1    0    0  504  502  0.00000000000E+00  0.00000000000E+00  0.20105060914E+02  0.20105060914E+02  0.00000000000E+00 0. -1.
         21   -1    0    0  502  503 -0.00000000000E+00 -0.00000000000E+00 -0.29122586196E+03  0.29122586196E+03  0.00000000000E+00 0. -1.
         25    2    1    2    0    0 -0.47289122669E+01 -0.19552882534E+02 -0.25777587471E+03  0.28719039915E+03  0.12500098382E+03 0.  0.
          5    1    3    3  501    0 -0.51016585644E+02  0.56283947284E+01 -0.20960104098E+03  0.21579383035E+03  0.10000000000E+00 0. -1.
         -5    1    3    3    0  501  0.46287673377E+02 -0.25181277263E+02 -0.48174833724E+02  0.71396568794E+02  0.10000000000E+00 0. -1.
         21    1    1    2  504  503  0.47289122669E+01  0.19552882534E+02 -0.13344926335E+02  0.24140523721E+02  0.00000000000E+00 0. -1.
<mgrwt>
<rscale>  1 0.12660934E+03</rscale>
<asrwt>0</asrwt>
<pdfrwt beam="1">  1       21 0.30930864E-02 0.12660934E+03</pdfrwt>
<pdfrwt beam="2">  1       21 0.44803977E-01 0.12660934E+03</pdfrwt>
<totfact> 0.28516042E+06</totfact>
</mgrwt>
</event>
<event>
 6    1  0.4187588E-002  0.1265564E+03  0.7546771E-02  0.1232657E+00
         21   -1    0    0  504  502  0.00000000000E+00  0.00000000000E+00  0.75119432506E+02  0.75119432506E+02  0.00000000000E+00 0. -1.
         21   -1    0    0  502  503 -0.00000000000E+00 -0.00000000000E+00 -0.56969416342E+03  0.56969416342E+03  0.00000000000E+00 0.  1.
         25    2    1    2    0    0  0.16656559640E+02  0.10703833624E+02 -0.56120811161E+03  0.57530086000E+03  0.12499808776E+03 0.  0.
          5    1    3    3  501    0 -0.37950419601E+02 -0.30814903407E+02 -0.34567271569E+03  0.34911234438E+03  0.10000000000E+00 0. -1.
         -5    1    3    3    0  501  0.54606979242E+02  0.41518737031E+02 -0.21553539592E+03  0.22618851563E+03  0.10000000000E+00 0. -1.
         21    1    1    2  504  503 -0.16656559640E+02 -0.10703833624E+02  0.66633380696E+02  0.69512735929E+02  0.00000000000E+00 0. -1.
<mgrwt>
<rscale>  1 0.12655645E+03</rscale>
<asrwt>0</asrwt>
<pdfrwt beam="1">  1       21 0.11556836E-01 0.12655645E+03</pdfrwt>
<pdfrwt beam="2">  1       21 0.87645254E-01 0.12655645E+03</pdfrwt>
<totfact> 0.72285787E+04</totfact>
</mgrwt>
</event>
<event>
 6    1  0.4187588E-002  0.1271740E+03  0.7546771E-02  0.1231710E+00
         21   -1    0    0  503  502  0.00000000000E+00  0.00000000000E+00  0.11229431733E+03  0.11229431733E+03  0.00000000000E+00 0. -1.
         21   -1    0    0  504  503 -0.00000000000E+00 -0.00000000000E+00 -0.52834559543E+03  0.52834559543E+03  0.00000000000E+00 0. -1.
         25    2    1    2    0    0  0.12494471613E+02  0.20053825213E+02 -0.51933944121E+03  0.53468373141E+03  0.12495987238E+03 0.  0.
          5    1    3    3  501    0  0.42963150865E+02  0.48334449602E+02 -0.15456579378E+03  0.16754893601E+03  0.10000000000E+00 0.  1.
         -5    1    3    3    0  501 -0.30468679253E+02 -0.28280624389E+02 -0.36477364743E+03  0.36713479540E+03  0.10000000000E+00 0.  1.
         21    1    1    2  504  502 -0.12494471613E+02 -0.20053825213E+02  0.10328816311E+03  0.10595618135E+03  0.00000000000E+00 0. -1.
<mgrwt>
<rscale>  1 0.12717404E+03</rscale>
<asrwt>0</asrwt>
<pdfrwt beam="1">  1       21 0.17276049E-01 0.12717404E+03</pdfrwt>
<pdfrwt beam="2">  1       21 0.81283939E-01 0.12717404E+03</pdfrwt>
<totfact> 0.41643291E+04</totfact>
</mgrwt>
</event>
<event>
 6    1  0.4187588E-002  0.1260196E+03  0.7546771E-02  0.1233484E+00
         21   -1    0    0  503  502  0.00000000000E+00  0.00000000000E+00  0.23913944737E+03  0.23913944737E+03  0.00000000000E+00 0. -1.
         21   -1    0    0  504  503 -0.00000000000E+00 -0.00000000000E+00 -0.43063244359E+02  0.43063244359E+02  0.00000000000E+00 0. -1.
         25    2    1    2    0    0 -0.10554684495E+02  0.11850323162E+02  0.50495906137E+02  0.13576002594E+03  0.12501646525E+03 0.  0.
          5    1    3    3  501    0  0.30708784739E+00  0.54097867638E+02  0.69588336653E+02  0.88143180021E+02  0.10000000000E+00 0.  1.
         -5    1    3    3    0  501 -0.10861772343E+02 -0.42247544477E+02 -0.19092430517E+02  0.47616845924E+02  0.10000000000E+00 0.  1.
         21    1    1    2  504  502  0.10554684495E+02 -0.11850323162E+02  0.14558029688E+03  0.14644266579E+03  0.00000000000E+00 0. -1.
<mgrwt>
<rscale>  1 0.12601963E+03</rscale>
<asrwt>0</asrwt>
<pdfrwt beam="1">  1       21 0.36790683E-01 0.12601963E+03</pdfrwt>
<pdfrwt beam="2">  1       21 0.66251147E-02 0.12601963E+03</pdfrwt>
<totfact> 0.11845962E+06</totfact>
</mgrwt>
</event>
<event>
 6    1  0.4187588E-002  0.1299376E+03  0.7546771E-02  0.1227548E+00
         21   -1    0    0  503  502  0.00000000000E+00  0.00000000000E+00  0.27337705224E+02  0.27337705224E+02  0.00000000000E+00 0. -1.
         21   -1    0    0  504  503 -0.00000000000E+00 -0.00000000000E+00 -0.28271204154E+03  0.28271204154E+03  0.00000000000E+00 0. -1.
         25    2    1    2    0    0  0.13112324450E+02  0.32962556966E+02 -0.23655381771E+03  0.26989162013E+03  0.12500125891E+03 0.  0.
          5    1    3    3  501    0 -0.32604863288E+02 -0.28873783059E+02 -0.41221591973E+02  0.59966674937E+02  0.10000000000E+00 0.  1.
         -5    1    3    3    0  501  0.45717187738E+02  0.61836340026E+02 -0.19533222574E+03  0.20992494520E+03  0.10000000000E+00 0.  1.
         21    1    1    2  504  502 -0.13112324450E+02 -0.32962556966E+02 -0.18820518605E+02  0.40158126635E+02  0.00000000000E+00 0. -1.
<mgrwt>
<rscale>  1 0.12993759E+03</rscale>
<asrwt>0</asrwt>
<pdfrwt beam="1">  1       21 0.42058009E-02 0.12993759E+03</pdfrwt>
<pdfrwt beam="2">  1       21 0.43494159E-01 0.12993759E+03</pdfrwt>
<totfact> 0.18234316E+06</totfact>
</mgrwt>
</event>
<event>
 6    1  0.4187588E-002  0.1317975E+03  0.7546771E-02  0.1224813E+00
         21   -1    0    0  503  502  0.00000000000E+00  0.00000000000E+00  0.18599478292E+04  0.18599478292E+04  0.00000000000E+00 0. -1.
         21   -1    0    0  504  503 -0.00000000000E+00 -0.00000000000E+00 -0.61833797115E+01  0.61833797115E+01  0.00000000000E+00 0. -1.
         25    2    1    2    0    0 -0.32799190420E+02  0.25920899335E+02  0.74427239488E+03  0.75585183004E+03  0.12499164482E+03 0.  0.
          5    1    3    3  501    0 -0.40013845652E+02 -0.19285708845E+02  0.93963456222E+02  0.10393357261E+03  0.10000000000E+00 0. -1.
         -5    1    3    3    0  501  0.72146552322E+01  0.45206608179E+02  0.65030893866E+03  0.65191825743E+03  0.10000000000E+00 0. -1.
         21    1    1    2  504  502  0.32799190420E+02 -0.25920899335E+02  0.11094920546E+04  0.11102793789E+04  0.00000000000E+00 0. -1.
<mgrwt>
<rscale>  1 0.13179754E+03</rscale>
<asrwt>0</asrwt>
<pdfrwt beam="1">  1       21 0.28614537E+00 0.13179754E+03</pdfrwt>
<pdfrwt beam="2">  1       21 0.95129067E-03 0.13179754E+03</pdfrwt>
<totfact> 0.17494955E+05</totfact>
</mgrwt>
</event>
<event>
 6    1  0.4187588E-002  0.1268431E+03  0.7546771E-02  0.1232217E+00
         21   -1    0    0  504  502  0.00000000000E+00  0.00000000000E+00  0.17253848628E+03  0.17253848628E+03  0.00000000000E+00 0. -1.
         21   -1    0    0  502  503 -0.00000000000E+00 -0.00000000000E+00 -0.21409256626E+03  0.21409256626E+03  0.00000000000E+00 0. -1.
         25    2    1    2    0    0 -0.16358967007E+02  0.14031554381E+02 -0.19448277314E+03  0.23219114347E+03  0.12499871094E+03 0.  0.
          5    1    3    3  501    0  0.48771595339E+02  0.33103394121E+02 -0.87780773697E+02  0.10573541245E+03  0.10000000000E+00 0. -1.
         -5    1    3    3    0  501 -0.65130562346E+02 -0.19071839740E+02 -0.10670199945E+03  0.12645573102E+03  0.10000000000E+00 0. -1.
         21    1    1    2  504  503  0.16358967007E+02 -0.14031554381E+02  0.15292869317E+03  0.15443990907E+03  0.00000000000E+00 0. -1.
<mgrwt>
<rscale>  1 0.12684312E+03</rscale>
<asrwt>0</asrwt>
<pdfrwt beam="1">  1       21 0.26544382E-01 0.12684312E+03</pdfrwt>
<pdfrwt beam="2">  1       21 0.32937318E-01 0.12684312E+03</pdfrwt>
<totfact> 0.12264432E+05</totfact>
</mgrwt>
</event>
<event>
 6    1  0.4187588E-002  0.1271066E+03  0.7546771E-02  0.1231813E+00
         21   -1    0    0  504  502  0.00000000000E+00  0.00000000000E+00  0.10832034246E+03  0.10832034246E+03  0.00000000000E+00 0.  1.
         21   -1    0    0  502  503 -0.00000000000E+00 -0.00000000000E+00 -0.53806464732E+02  0.53806464732E+02  0.00000000000E+00 0.  1.
         25    2    1    2    0    0  0.22254209467E+02  0.59773659084E+01  0.34755402466E+02  0.13177262977E+03  0.12500043686E+03 0.  0.
          5    1    3    3  501    0  0.47874824834E+02 -0.25764777891E+02 -0.24662553207E+02  0.59699867364E+02  0.10000000000E+00 0. -1.
         -5    1    3    3    0  501 -0.25620615367E+02  0.31742143800E+02  0.59417955672E+02  0.72072762407E+02  0.10000000000E+00 0. -1.
         21    1    1    2  504  503 -0.22254209467E+02 -0.59773659084E+01  0.19758475266E+02  0.30354177423E+02  0.00000000000E+00 0.  1.
<mgrwt>
<rscale>  1 0.12710660E+03</rscale>
<asrwt>0</asrwt>
<pdfrwt beam="1">  1       21 0.16664668E-01 0.12710660E+03</pdfrwt>
<pdfrwt beam="2">  1       21 0.82779177E-02 0.12710660E+03</pdfrwt>
<totfact> 0.36135386E+06</totfact>
</mgrwt>
</event>
<event>
 6    1  0.4187588E-002  0.1294928E+03  0.7546771E-02  0.1228210E+00
         21   -1    0    0  504  502  0.00000000000E+00  0.00000000000E+00  0.12541530155E+02  0.12541530155E+02  0.00000000000E+00 0.  1.
         21   -1    0    0  502  503 -0.00000000000E+00 -0.00000000000E+00 -0.55668399378E+03  0.55668399378E+03  0.00000000000E+00 0.  1.
         25    2    1    2    0    0 -0.12245200855E+02  0.31535629283E+02 -0.47370615099E+03  0.49108644923E+03  0.12499576902E+03 0.  0.
          5    1    3    3  501    0  0.27635846457E+02  0.35459157096E+02 -0.42777540252E+03  0.43013125536E+03  0.10000000000E+00 0.  1.
         -5    1    3    3    0  501 -0.39881047312E+02 -0.39235278127E+01 -0.45930748467E+02  0.60955193872E+02  0.10000000000E+00 0.  1.
         21    1    1    2  504  503  0.12245200855E+02 -0.31535629283E+02 -0.70436312639E+02  0.78139074710E+02  0.00000000000E+00 0.  1.
<mgrwt>
<rscale>  1 0.12949279E+03</rscale>
<asrwt>0</asrwt>
<pdfrwt beam="1">  1       21 0.19294663E-02 0.12949279E+03</pdfrwt>
<pdfrwt beam="2">  1       21 0.85643688E-01 0.12949279E+03</pdfrwt>
<totfact> 0.15377613E+06</totfact>
</mgrwt>
</event>
<event>
 6    1  0.4187588E-002  0.1267362E+03  0.7546771E-02  0.1232381E+00
         21   -1    0    0  503  502  0.00000000000E+00  0.00000000000E+00  0.11454949063E+02  0.11454949063E+02  0.00000000000E+00 0.  1.
         21   -1    0    0  504  503 -0.00000000000E+00 -0.00000000000E+00 -0.47812866184E+03  0.47812866184E+03  0.00000000000E+00 0.  1.
         25    2    1    2    0    0  0.11282154747E+02  0.17587584763E+02 -0.41203577715E+03  0.43108648137E+03  0.12500185046E+03 0.  0.
          5    1    3    3  501    0  0.49850362978E+02 -0.60561683285E+01 -0.35378999974E+03  0.35733612997E+03  0.10000000000E+00 0. -1.
         -5    1    3    3    0  501 -0.38568208231E+02  0.23643753092E+02 -0.58245777401E+02  0.73750351399E+02  0.10000000000E+00 0. -1.
         21    1    1    2  504  502 -0.11282154747E+02 -0.17587584763E+02 -0.54637935633E+02  0.58497129534E+02  0.00000000000E+00 0.  1.
<mgrwt>
<rscale>  1 0.12673623E+03</rscale>
<asrwt>0</asrwt>
<pdfrwt beam="1">  1       21 0.17623001E-02 0.12673623E+03</pdfrwt>
<pdfrwt beam="2">  1       21 0.73558245E-01 0.12673623E+03</pdfrwt>
<totfact> 0.24968370E+06</totfact>
</mgrwt>
</event>
<event>
 6    1  0.4187588E-002  0.1411912E+03  0.7546771E-02  0.1211735E+00
         21   -1    0    0  504  502  0.00000000000E+00  0.00000000000E+00  0.55158074794E+02  0.55158074794E+02  0.00000000000E+00 0. -1.
         21   -1    0    0  502  503 -0.00000000000E+00 -0.00000000000E+00 -0.15221519283E+04  0.15221519283E+04  0.00000000000E+00 0. -1.
         25    2    1    2    0    0 -0.59881525093E+02 -0.26896618833E+02 -0.14980505403E+04  0.15046894623E+04  0.12500292572E+03 0.  0.
          5    1    3    3  501    0  0.56268560098E+01  0.23797920180E+02 -0.68377570422E+02  0.72618900090E+02  0.10000000000E+00 0. -1.
         -5    1    3    3    0  501 -0.65508381103E+02 -0.50694539013E+02 -0.14296729699E+04  0.14320705622E+04  0.10000000000E+00 0. -1.
         21    1    1    2  504  503  0.59881525093E+02  0.26896618833E+02  0.31056686804E+02  0.72620540809E+02  0.00000000000E+00 0. -1.
<mgrwt>
<rscale>  1 0.14119121E+03</rscale>
<asrwt>0</asrwt>
<pdfrwt beam="1">  1       21 0.84858573E-02 0.14119121E+03</pdfrwt>
<pdfrwt beam="2">  1       21 0.23417723E+00 0.14119121E+03</pdfrwt>
<totfact> 0.94234726E+03</totfact>
</mgrwt>
</event>
<event>
 6    1  0.4187588E-002  0.1314173E+03  0.7546771E-02  0.1225368E+00
         21   -1    0    0  503  502  0.00000000000E+00  0.00000000000E+00  0.20002104360E+03  0.20002104360E+03  0.00000000000E+00 0. -1.
         21   -1    0    0  504  503 -0.00000000000E+00 -0.00000000000E+00 -0.12590809720E+03  0.12590809720E+03  0.00000000000E+00 0. -1.
         25    2    1    2    0    0  0.34731573041E+02  0.20958456035E+02 -0.88430889837E+02  0.15839992619E+03  0.12499990118E+03 0.  0.
          5    1    3    3  501    0  0.16168751014E+02  0.73643539489E+02 -0.54643980280E+02  0.93116990924E+02  0.10000000000E+00 0.  1.
         -5    1    3    3    0  501  0.18562822027E+02 -0.52685083454E+02 -0.33786909557E+02  0.65282935271E+02  0.10000000000E+00 0.  1.
         21    1    1    2  504  502 -0.34731573041E+02 -0.20958456035E+02  0.16254383624E+03  0.16752921460E+03  0.00000000000E+00 0. -1.
<mgrwt>
<rscale>  1 0.13141733E+03</rscale>
<asrwt>0</asrwt>
<pdfrwt beam="1">  1       21 0.30772468E-01 0.13141733E+03</pdfrwt>
<pdfrwt beam="2">  1       21 0.19370477E-01 0.13141733E+03</pdfrwt>
<totfact> 0.25208838E+05</totfact>
</mgrwt>
</event>
<event>
 6    1  0.4187588E-002  0.1364541E+03  0.7546771E-02  0.1218181E+00
         21   -1    0    0  504  502  0.00000000000E+00  0.00000000000E+00  0.73832408586E+03  0.73832408586E+03  0.00000000000E+00 0.  1.
         21   -1    0    0  502  503 -0.00000000000E+00 -0.00000000000E+00 -0.23077889751E+02  0.23077889751E+02  0.00000000000E+00 0.  1.
         25    2    1    2    0    0 -0.64091633542E+01 -0.54348578993E+02  0.19338994637E+03  0.23668415544E+03  0.12499949066E+03 0.  0.
          5    1    3    3  501    0  0.26155865364E+01  0.38464365504E+02  0.31193635195E+02  0.49592354081E+02  0.10000000000E+00 0.  1.
         -5    1    3    3    0  501 -0.90247498906E+01 -0.92812944498E+02  0.16219631117E+03  0.18709180136E+03  0.10000000000E+00 0.  1.
         21    1    1    2  504  503  0.64091633542E+01  0.54348578993E+02  0.52185624974E+03  0.52471782017E+03  0.00000000000E+00 0.  1.
<mgrwt>
<rscale>  1 0.13645409E+03</rscale>
<asrwt>0</asrwt>
<pdfrwt beam="1">  1       21 0.11358830E+00 0.13645409E+03</pdfrwt>
<pdfrwt beam="2">  1       21 0.35504451E-02 0.13645409E+03</pdfrwt>
<totfact> 0.29361181E+05</totfact>
</mgrwt>
</event>
<event>
 6    1  0.4187588E-002  0.1345077E+03  0.7546771E-02  0.1220916E+00
         21   -1    0    0  504  502  0.00000000000E+00  0.00000000000E+00  0.15263377633E+03  0.15263377633E+03  0.00000000000E+00 0.  1.
         21   -1    0    0  502  503 -0.00000000000E+00 -0.00000000000E+00 -0.24312858112E+03  0.24312858112E+03  0.00000000000E+00 0.  1.
         25    2    1    2    0    0 -0.22858932898E+02 -0.44107986248E+02 -0.21954894990E+03  0.25747635804E+03  0.12499715310E+03 0.  0.
          5    1    3    3  501    0  0.44081707637E+02  0.10388218115E+02 -0.10233233050E+03  0.11190633534E+03  0.10000000000E+00 0.  1.
         -5    1    3    3    0  501 -0.66940640536E+02 -0.54496204363E+02 -0.11721661940E+03  0.14557002270E+03  0.10000000000E+00 0.  1.
         21    1    1    2  504  503  0.22858932898E+02  0.44107986248E+02  0.12905414511E+03  0.13828599941E+03  0.00000000000E+00 0.  1.
<mgrwt>
<rscale>  1 0.13450775E+03</rscale>
<asrwt>0</asrwt>
<pdfrwt beam="1">  1       21 0.23482120E-01 0.13450775E+03</pdfrwt>
<pdfrwt beam="2">  1       21 0.37404396E-01 0.13450775E+03</pdfrwt>
<totfact> 0.12008578E+05</totfact>
</mgrwt>
</event>
<event>
 6    1  0.4187588E-002  0.1280692E+03  0.7546771E-02  0.1230349E+00
         21   -1    0    0  503  502  0.00000000000E+00  0.00000000000E+00  0.67112654352E+03  0.67112654352E+03  0.00000000000E+00 0.  1.
         21   -1    0    0  504  503 -0.00000000000E+00 -0.00000000000E+00 -0.93437130822E+01  0.93437130822E+01  0.00000000000E+00 0.  1.
         25    2    1    2    0    0  0.24678519820E+02 -0.12853028039E+02  0.49058701028E+03  0.50702793619E+03  0.12500993461E+03 0.  0.
          5    1    3    3  501    0  0.29656524299E+02  0.14258304451E+01  0.19111728360E+02  0.35310205138E+02  0.10000000000E+00 0.  1.
         -5    1    3    3    0  501 -0.49780044789E+01 -0.14278858484E+02  0.47147528192E+03  0.47171773105E+03  0.10000000000E+00 0.  1.
         21    1    1    2  504  502 -0.24678519820E+02  0.12853028039E+02  0.17119582017E+03  0.17344232042E+03  0.00000000000E+00 0.  1.
<mgrwt>
<rscale>  1 0.12806917E+03</rscale>
<asrwt>0</asrwt>
<pdfrwt beam="1">  1       21 0.10325020E+00 0.12806917E+03</pdfrwt>
<pdfrwt beam="2">  1       21 0.14374949E-02 0.12806917E+03</pdfrwt>
<totfact> 0.16003405E+06</totfact>
</mgrwt>
</event>
<event>
 6    1  0.4187588E-002  0.1304505E+03  0.7546771E-02  0.1226789E+00
         21   -1    0    0  503  502  0.00000000000E+00  0.00000000000E+00  0.34004328256E+03  0.34004328256E+03  0.00000000000E+00 0.  1.
         21   -1    0    0  504  503 -0.00000000000E+00 -0.00000000000E+00 -0.22084944134E+02  0.22084944134E+02  0.00000000000E+00 0.  1.
         25    2    1    2    0    0 -0.15667008850E+02 -0.33873698370E+02  0.20334623136E+03  0.24159268134E+03  0.12499780503E+03 0.  0.
          5    1    3    3  501    0  0.27080367822E+02 -0.59390756647E+02  0.55798877958E+02  0.85872772622E+02  0.10000000000E+00 0. -1.
         -5    1    3    3    0  501 -0.42747376672E+02  0.25517058276E+02  0.14754735340E+03  0.15571990872E+03  0.10000000000E+00 0. -1.
         21    1    1    2  504  502  0.15667008850E+02  0.33873698370E+02  0.11461210707E+03  0.12053554535E+03  0.00000000000E+00 0.  1.
<mgrwt>
<rscale>  1 0.13045050E+03</rscale>
<asrwt>0</asrwt>
<pdfrwt beam="1">  1       21 0.52314347E-01 0.13045050E+03</pdfrwt>
<pdfrwt beam="2">  1       21 0.33976840E-02 0.13045050E+03</pdfrwt>
<totfact> 0.17787911E+06</totfact>
</mgrwt>
</event>
<event>
 6    1  0.4187588E-002  0.1264186E+03  0.7546771E-02  0.1232869E+00
         21   -1    0    0  503  502  0.00000000000E+00  0.00000000000E+00  0.15232884348E+03  0.15232884348E+03  0.00000000000E+00 0. -1.
         21   -1    0    0  504  503 -0.00000000000E+00 -0.00000000000E+00 -0.39041837647E+02  0.39041837647E+02  0.00000000000E+00 0. -1.
         25    2    1    2    0    0  0.10989996343E+02 -0.15394249882E+02  0.70871771196E+02  0.14492915791E+03  0.12499555957E+03 0.  0.
          5    1    3    3  501    0  0.61776751299E+00  0.54723707353E+02  0.39060933055E+02  0.67237134637E+02  0.10000000000E+00 0. -1.
         -5    1    3    3    0  501  0.10372228830E+02 -0.70117957235E+02  0.31810838142E+02  0.77692023277E+02  0.10000000000E+00 0. -1.
         21    1    1    2  504  502 -0.10989996343E+02  0.15394249882E+02  0.42415234636E+02  0.46441523212E+02  0.00000000000E+00 0. -1.
<mgrwt>
<rscale>  1 0.12641856E+03</rscale>
<asrwt>0</asrwt>
<pdfrwt beam="1">  1       21 0.23435206E-01 0.12641856E+03</pdfrwt>
<pdfrwt beam="2">  1       21 0.60064366E-02 0.12641856E+03</pdfrwt>
<totfact> 0.33325649E+06</totfact>
</mgrwt>
</event>
<event>
 6    1  0.4187588E-002  0.1307385E+03  0.7546771E-02  0.1226364E+00
         21   -1    0    0  504  502  0.00000000000E+00  0.00000000000E+00  0.13523900304E+02  0.13523900304E+02  0.00000000000E+00 0.  1.
         21   -1    0    0  502  503 -0.00000000000E+00 -0.00000000000E+00 -0.52951608455E+03  0.52951608455E+03  0.00000000000E+00 0.  1.
         25    2    1    2    0    0 -0.29857600338E+02 -0.23982746963E+02 -0.41010145322E+03  0.43043671950E+03  0.12500367641E+03 0.  0.
          5    1    3    3  501    0  0.20618705327E+02  0.33048485975E+02 -0.25147815748E+03  0.25447712495E+03  0.10000000000E+00 0.  1.
         -5    1    3    3    0  501 -0.50476305665E+02 -0.57031232938E+02 -0.15862329574E+03  0.17595959455E+03  0.10000000000E+00 0.  1.
         21    1    1    2  504  503  0.29857600338E+02  0.23982746963E+02 -0.10589073103E+03  0.11260326535E+03  0.00000000000E+00 0.  1.
<mgrwt>
<rscale>  1 0.13073855E+03</rscale>
<asrwt>0</asrwt>
<pdfrwt beam="1">  1       21 0.20805997E-02 0.13073855E+03</pdfrwt>
<pdfrwt beam="2">  1       21 0.81464027E-01 0.13073855E+03</pdfrwt>
<totfact> 0.15241977E+06</totfact>
</mgrwt>
</event>
<event>
 6    1  0.4187588E-002  0.1305772E+03  0.7546771E-02  0.1226602E+00
         21   -1    0    0  504  502  0.00000000000E+00  0.00000000000E+00  0.23816302944E+03  0.23816302944E+03  0.00000000000E+00 0.  1.
         21   -1    0    0  502  503 -0.00000000000E+00 -0.00000000000E+00 -0.62392865542E+02  0.62392865542E+02  0.00000000000E+00 0.  1.
         25    2    1    2    0    0 -0.34787064915E+02 -0.14717758860E+02  0.10471413140E+02  0.13099637943E+03  0.12499459436E+03 0.  0.
          5    1    3    3  501    0 -0.41633265404E+02 -0.97276417708E+01  0.63908817880E+02  0.76891500215E+02  0.10000000000E+00 0.  1.
         -5    1    3    3    0  501  0.68462004890E+01 -0.49901170888E+01 -0.53437404740E+02  0.54104879216E+02  0.10000000000E+00 0.  1.
         21    1    1    2  504  503  0.34787064915E+02  0.14717758860E+02  0.16529875076E+03  0.16955951555E+03  0.00000000000E+00 0.  1.
<mgrwt>
<rscale>  1 0.13057718E+03</rscale>
<asrwt>0</asrwt>
<pdfrwt beam="1">  1       21 0.36640466E-01 0.13057718E+03</pdfrwt>
<pdfrwt beam="2">  1       21 0.95989025E-02 0.13057718E+03</pdfrwt>
<totfact> 0.63031351E+05</totfact>
</mgrwt>
</event>
<event>
 6    1  0.4187588E-002  0.1543554E+03  0.7546771E-02  0.1195221E+00
         21   -1    0    0  503  502  0.00000000000E+00  0.00000000000E+00  0.28041550544E+03  0.28041550544E+03  0.00000000000E+00 0.  1.
         21   -1    0    0  504  503 -0.00000000000E+00 -0.00000000000E+00 -0.70423503019E+02  0.70423503019E+02  0.00000000000E+00 0.  1.
         25    2    1    2    0    0 -0.71704231252E+02  0.55162584669E+02  0.41888885280E+02  0.15993833921E+03  0.12506472769E+03 0.  0.
          5    1    3    3  501    0  0.11574546511E+02 -0.27561404460E+02  0.29341636600E+02  0.41887262754E+02  0.10000000000E+00 0.  1.
         -5    1    3    3    0  501 -0.83278777763E+02  0.82723989129E+02  0.12547248681E+02  0.11805107646E+03  0.10000000000E+00 0.  1.
         21    1    1    2  504  502  0.71704231252E+02 -0.55162584669E+02  0.16810311714E+03  0.19090066925E+03  0.00000000000E+00 0.  1.
<mgrwt>
<rscale>  1 0.15435541E+03</rscale>
<asrwt>0</asrwt>
<pdfrwt beam="1">  1       21 0.43140847E-01 0.15435541E+03</pdfrwt>
<pdfrwt beam="2">  1       21 0.10834385E-01 0.15435541E+03</pdfrwt>
<totfact> 0.36658883E+05</totfact>
</mgrwt>
</event>
<event>
 6    1  0.4187588E-002  0.1264303E+03  0.7546771E-02  0.1232851E+00
         21   -1    0    0  504  502  0.00000000000E+00  0.00000000000E+00  0.13794111945E+02  0.13794111945E+02  0.00000000000E+00 0.  1.
         21   -1    0    0  502  503 -0.00000000000E+00 -0.00000000000E+00 -0.38577141944E+03  0.38577141944E+03  0.00000000000E+00 0.  1.
         25    2    1    2    0    0  0.18910989809E+02  0.15919633874E+01 -0.31147645263E+03  0.33615801352E+03  0.12499787848E+03 0.  0.
          5    1    3    3  501    0 -0.15118438643E+02  0.13075509159E+02  0.24908227470E+01  0.20143245139E+02  0.10000000000E+00 0.  1.
         -5    1    3    3    0  501  0.34029428452E+02 -0.11483545772E+02 -0.31396727538E+03  0.31601476838E+03  0.10000000000E+00 0.  1.
         21    1    1    2  504  503 -0.18910989809E+02 -0.15919633874E+01 -0.60500854866E+02  0.63407517870E+02  0.00000000000E+00 0.  1.
<mgrwt>
<rscale>  1 0.12643033E+03</rscale>
<asrwt>0</asrwt>
<pdfrwt beam="1">  1       21 0.21221709E-02 0.12643033E+03</pdfrwt>
<pdfrwt beam="2">  1       21 0.59349453E-01 0.12643033E+03</pdfrwt>
<totfact> 0.29410768E+06</totfact>
</mgrwt>
</event>
<event>
 6    1  0.4187588E-002  0.1330548E+03  0.7546771E-02  0.1222992E+00
         21   -1    0    0  504  502  0.00000000000E+00  0.00000000000E+00  0.17493480547E+03  0.17493480547E+03  0.00000000000E+00 0.  1.
         21   -1    0    0  502  503 -0.00000000000E+00 -0.00000000000E+00 -0.46596734869E+02  0.46596734869E+02  0.00000000000E+00 0.  1.
         25    2    1    2    0    0 -0.43102973028E+02  0.15321377476E+02  0.81348770250E+02  0.15595254035E+03  0.12494383350E+03 0.  0.
          5    1    3    3  501    0 -0.55983895601E+02  0.56241382075E+02  0.80509717526E+02  0.11304474442E+03  0.10000000000E+00 0.  1.
         -5    1    3    3    0  501  0.12880922573E+02 -0.40920004599E+02  0.83905272438E+00  0.42907795937E+02  0.10000000000E+00 0.  1.
         21    1    1    2  504  503  0.43102973028E+02 -0.15321377476E+02  0.46989300350E+02  0.65578999985E+02  0.00000000000E+00 0.  1.
<mgrwt>
<rscale>  1 0.13305477E+03</rscale>
<asrwt>0</asrwt>
<pdfrwt beam="1">  1       21 0.26913047E-01 0.13305477E+03</pdfrwt>
<pdfrwt beam="2">  1       21 0.71687285E-02 0.13305477E+03</pdfrwt>
<totfact> 0.19007334E+06</totfact>
</mgrwt>
</event>
<event>
 6    1  0.4187588E-002  0.1306328E+03  0.7546771E-02  0.1226520E+00
         21   -1    0    0  503  502  0.00000000000E+00  0.00000000000E+00  0.35766716733E+03  0.35766716733E+03  0.00000000000E+00 0.  1.
         21   -1    0    0  504  503 -0.00000000000E+00 -0.00000000000E+00 -0.20940141075E+02  0.20940141075E+02  0.00000000000E+00 0.  1.
         25    2    1    2    0    0  0.32088925288E+02  0.20251087988E+02  0.29242274823E+03  0.32027485824E+03  0.12500046179E+03 0.  0.
          5    1    3    3  501    0  0.75526512762E+02  0.35503048990E+02  0.20795304315E+03  0.22407409215E+03  0.10000000000E+00 0. -1.
         -5    1    3    3    0  501 -0.43437587473E+02 -0.15251961002E+02  0.84469705078E+02  0.96200766088E+02  0.10000000000E+00 0. -1.
         21    1    1    2  504  502 -0.32088925288E+02 -0.20251087988E+02  0.44304278024E+02  0.58332450164E+02  0.00000000000E+00 0.  1.
<mgrwt>
<rscale>  1 0.13063277E+03</rscale>
<asrwt>0</asrwt>
<pdfrwt beam="1">  1       21 0.55025713E-01 0.13063277E+03</pdfrwt>
<pdfrwt beam="2">  1       21 0.32215604E-02 0.13063277E+03</pdfrwt>
<totfact> 0.17476367E+06</totfact>
</mgrwt>
</event>
<event>
 6    1  0.4187588E-002  0.1264263E+03  0.7546771E-02  0.1232857E+00
         21   -1    0    0  503  502  0.00000000000E+00  0.00000000000E+00  0.15021339531E+03  0.15021339531E+03  0.00000000000E+00 0.  1.
         21   -1    0    0  504  503 -0.00000000000E+00 -0.00000000000E+00 -0.12874465884E+03  0.12874465884E+03  0.00000000000E+00 0. -1.
         25    2    1    2    0    0  0.18174545561E+02  0.52853701736E+01 -0.96772063192E+02  0.15921192290E+03  0.12500141973E+03 0.  0.
          5    1    3    3  501    0  0.25011597603E+02  0.46082737990E+02 -0.10469759824E+03  0.11709310754E+03  0.10000000000E+00 0. -1.
         -5    1    3    3    0  501 -0.68370520422E+01 -0.40797367817E+02  0.79255350485E+01  0.42118815358E+02  0.10000000000E+00 0. -1.
         21    1    1    2  504  502 -0.18174545561E+02 -0.52853701736E+01  0.11824079966E+03  0.11974613125E+03  0.00000000000E+00 0.  1.
<mgrwt>
<rscale>  1 0.12642628E+03</rscale>
<asrwt>0</asrwt>
<pdfrwt beam="1">  1       21 0.23109753E-01 0.12642628E+03</pdfrwt>
<pdfrwt beam="2">  1       21 0.19806871E-01 0.12642628E+03</pdfrwt>
<totfact> 0.41761234E+05</totfact>
</mgrwt>
</event>
<event>
 6    1  0.4187588E-002  0.1366587E+03  0.7546771E-02  0.1217897E+00
         21   -1    0    0  503  502  0.00000000000E+00  0.00000000000E+00  0.51353436010E+03  0.51353436010E+03  0.00000000000E+00 0. -1.
         21   -1    0    0  504  503 -0.00000000000E+00 -0.00000000000E+00 -0.19807769778E+03  0.19807769778E+03  0.00000000000E+00 0.  1.
         25    2    1    2    0    0 -0.29769676363E+02  0.46522825234E+02 -0.17276273730E+03  0.22027837384E+03  0.12499996674E+03 0.  0.
          5    1    3    3  501    0 -0.49191975263E+02  0.58649170964E+02 -0.18053898463E+03  0.19609668701E+03  0.10000000000E+00 0.  1.
         -5    1    3    3    0  501  0.19422298900E+02 -0.12126345730E+02  0.77762473317E+01  0.24181686829E+02  0.10000000000E+00 0.  1.
         21    1    1    2  504  502  0.29769676363E+02 -0.46522825234E+02  0.48821939962E+03  0.49133368403E+03  0.00000000000E+00 0. -1.
<mgrwt>
<rscale>  1 0.13665869E+03</rscale>
<asrwt>0</asrwt>
<pdfrwt beam="1">  1       21 0.79005286E-01 0.13665869E+03</pdfrwt>
<pdfrwt beam="2">  1       21 0.30473492E-01 0.13665869E+03</pdfrwt>
<totfact> 0.15200813E+04</totfact>
</mgrwt>
</event>
<event>
 6    1  0.4187588E-002  0.1306642E+03  0.7546771E-02  0.1226474E+00
         21   -1    0    0  504  502  0.00000000000E+00  0.00000000000E+00  0.25865025761E+03  0.25865025761E+03  0.00000000000E+00 0. -1.
         21   -1    0    0  502  503 -0.00000000000E+00 -0.00000000000E+00 -0.29030557875E+02  0.29030557875E+02  0.00000000000E+00 0. -1.
         25    2    1    2    0    0  0.32401082679E+02 -0.20014896034E+02  0.14682530833E+03  0.19654719123E+03  0.12499080363E+03 0.  0.
          5    1    3    3  501    0  0.30004634479E+02  0.50891201237E+02  0.76448424609E+02  0.96615547811E+02  0.10000000000E+00 0. -1.
         -5    1    3    3    0  501  0.23964482001E+01 -0.70906097271E+02  0.70376883723E+02  0.99931643421E+02  0.10000000000E+00 0. -1.
         21    1    1    2  504  503 -0.32401082679E+02  0.20014896034E+02  0.82794391403E+02  0.91133624255E+02  0.00000000000E+00 0. -1.
<mgrwt>
<rscale>  1 0.13066418E+03</rscale>
<asrwt>0</asrwt>
<pdfrwt beam="1">  1       21 0.39792346E-01 0.13066418E+03</pdfrwt>
<pdfrwt beam="2">  1       21 0.44662399E-02 0.13066418E+03</pdfrwt>
<totfact> 0.19728518E+06</totfact>
</mgrwt>
</event>
<event>
 6    1  0.4187588E-002  0.1270425E+03  0.7546771E-02  0.1231911E+00
         21   -1    0    0  504  502  0.00000000000E+00  0.00000000000E+00  0.16099774152E+03  0.16099774152E+03  0.00000000000E+00 0.  1.
         21   -1    0    0  502  503 -0.00000000000E+00 -0.00000000000E+00 -0.72228399401E+02  0.72228399401E+02  0.00000000000E+00 0.  1.
         25    2    1    2    0    0 -0.19972092138E+02 -0.10775240956E+02 -0.14155969530E+02  0.12782874978E+03  0.12499923005E+03 0.  0.
          5    1    3    3  501    0  0.37081195936E+02  0.75916731337E+01 -0.46311140905E+02  0.59811206015E+02  0.10000000000E+00 0.  1.
         -5    1    3    3    0  501 -0.57053288074E+02 -0.18366914089E+02  0.32155171375E+02  0.68017543762E+02  0.10000000000E+00 0.  1.
         21    1    1    2  504  503  0.19972092138E+02  0.10775240956E+02  0.10292531165E+03  0.10539739114E+03  0.00000000000E+00 0.  1.
<mgrwt>
<rscale>  1 0.12704250E+03</rscale>
<asrwt>0</asrwt>
<pdfrwt beam="1">  1       21 0.24768883E-01 0.12704250E+03</pdfrwt>
<pdfrwt beam="2">  1       21 0.11112061E-01 0.12704250E+03</pdfrwt>
<totfact> 0.10382620E+06</totfact>
</mgrwt>
</event>
<event>
 6    1  0.4187588E-002  0.1300664E+03  0.7546771E-02  0.1227357E+00
         21   -1    0    0  504  502  0.00000000000E+00  0.00000000000E+00  0.31237789846E+02  0.31237789846E+02  0.00000000000E+00 0.  1.
         21   -1    0    0  502  503 -0.00000000000E+00 -0.00000000000E+00 -0.23948272703E+03  0.23948272703E+03  0.00000000000E+00 0.  1.
         25    2    1    2    0    0 -0.34509803566E+02  0.10078830743E+02 -0.12658395509E+03  0.18149593860E+03  0.12499907469E+03 0.  0.
          5    1    3    3  501    0 -0.56831714673E+02 -0.34468665329E+02 -0.11083765336E+03  0.12923980844E+03  0.10000000000E+00 0. -1.
         -5    1    3    3    0  501  0.22321911107E+02  0.44547496073E+02 -0.15746301727E+02  0.52256130166E+02  0.10000000000E+00 0. -1.
         21    1    1    2  504  503  0.34509803566E+02 -0.10078830743E+02 -0.81660982096E+02  0.89224578274E+02  0.00000000000E+00 0.  1.
<mgrwt>
<rscale>  1 0.13006644E+03</rscale>
<asrwt>0</asrwt>
<pdfrwt beam="1">  1       21 0.48058137E-02 0.13006644E+03</pdfrwt>
<pdfrwt beam="2">  1       21 0.36843498E-01 0.13006644E+03</pdfrwt>
<totfact> 0.20334599E+06</totfact>
</mgrwt>
</event>
<event>
 6    1  0.4187588E-002  0.1267935E+03  0.7546771E-02  0.1232293E+00
         21   -1    0    0  504  502  0.00000000000E+00  0.00000000000E+00  0.93346286439E+01  0.93346286439E+01  0.00000000000E+00 0.  1.
         21   -1    0    0  502  503 -0.00000000000E+00 -0.00000000000E+00 -0.20269324868E+04  0.20269324868E+04  0.00000000000E+00 0.  1.
         25    2    1    2    0    0 -0.17833855275E+02  0.11479416939E+02 -0.20096065463E+04  0.20136025071E+04  0.12500704861E+03 0.  0.
          5    1    3    3  501    0  0.46950191160E+02 -0.22762726860E+02 -0.98327109344E+03  0.98465451574E+03  0.10000000000E+00 0. -1.
         -5    1    3    3    0  501 -0.64784046434E+02  0.34242143799E+02 -0.10263354529E+04  0.10289479914E+04  0.10000000000E+00 0. -1.
         21    1    1    2  504  503  0.17833855275E+02 -0.11479416939E+02 -0.79913118682E+01  0.22664608371E+02  0.00000000000E+00 0.  1.
<mgrwt>
<rscale>  1 0.12679348E+03</rscale>
<asrwt>0</asrwt>
<pdfrwt beam="1">  1       21 0.14360949E-02 0.12679348E+03</pdfrwt>
<pdfrwt beam="2">  1       21 0.31183617E+00 0.12679348E+03</pdfrwt>
<totfact> 0.65716834E+04</totfact>
</mgrwt>
</event>
<event>
 6    1  0.4187588E-002  0.1264350E+03  0.7546771E-02  0.1232844E+00
         21   -1    0    0  503  502  0.00000000000E+00  0.00000000000E+00  0.13723319965E+02  0.13723319965E+02  0.00000000000E+00 0.  1.
         21   -1    0    0  504  503 -0.00000000000E+00 -0.00000000000E+00 -0.40420725127E+03  0.40420725127E+03  0.00000000000E+00 0.  1.
         25    2    1    2    0    0 -0.29024668872E+01  0.18750038114E+02 -0.36413796079E+03  0.38546368956E+03  0.12500325291E+03 0.  0.
          5    1    3    3  501    0 -0.70123999971E+01  0.71352064760E+02 -0.17534360729E+03  0.18943516442E+03  0.10000000000E+00 0. -1.
         -5    1    3    3    0  501  0.41099331099E+01 -0.52602026646E+02 -0.18879435350E+03  0.19602852514E+03  0.10000000000E+00 0. -1.
         21    1    1    2  504  502  0.29024668872E+01 -0.18750038114E+02 -0.26345970514E+02  0.32466881674E+02  0.00000000000E+00 0.  1.
<mgrwt>
<rscale>  1 0.12643497E+03</rscale>
<asrwt>0</asrwt>
<pdfrwt beam="1">  1       21 0.21112801E-02 0.12643497E+03</pdfrwt>
<pdfrwt beam="2">  1       21 0.62185727E-01 0.12643497E+03</pdfrwt>
<totfact> 0.26853139E+06</totfact>
</mgrwt>
</event>
<event>
 6    1  0.4187588E-002  0.1265055E+03  0.7546771E-02  0.1232735E+00
         21   -1    0    0  504  502  0.00000000000E+00  0.00000000000E+00  0.38310679636E+02  0.38310679636E+02  0.00000000000E+00 0.  1.
         21   -1    0    0  502  503 -0.00000000000E+00 -0.00000000000E+00 -0.14145888536E+03  0.14145888536E+03  0.00000000000E+00 0.  1.
         25    2    1    2    0    0 -0.18795260242E+02 -0.51406302072E+01 -0.96746549111E+02  0.15925934574E+03  0.12499582615E+03 0.  0.
          5    1    3    3  501    0 -0.11694013360E+02  0.11806558296E+02  0.28327848467E+02  0.32842377595E+02  0.10000000000E+00 0. -1.
         -5    1    3    3    0  501 -0.71012468816E+01 -0.16947188503E+02 -0.12507439758E+03  0.12641696815E+03  0.10000000000E+00 0. -1.
         21    1    1    2  504  503  0.18795260242E+02  0.51406302072E+01 -0.64016566106E+01  0.20510219254E+02  0.00000000000E+00 0.  1.
<mgrwt>
<rscale>  1 0.12650551E+03</rscale>
<asrwt>0</asrwt>
<pdfrwt beam="1">  1       21 0.58939507E-02 0.12650551E+03</pdfrwt>
<pdfrwt beam="2">  1       21 0.21762905E-01 0.12650551E+03</pdfrwt>
<totfact> 0.39519205E+06</totfact>
</mgrwt>
</event>
<event>
 6    1  0.4187588E-002  0.1415857E+03  0.7546771E-02  0.1211211E+00
         21   -1    0    0  503  502  0.00000000000E+00  0.00000000000E+00  0.28135669456E+02  0.28135669456E+02  0.00000000000E+00 0. -1.
         21   -1    0    0  504  503 -0.00000000000E+00 -0.00000000000E+00 -0.76700526375E+03  0.76700526375E+03  0.00000000000E+00 0.  1.
         25    2    1    2    0    0 -0.34015697713E+02 -0.57131512455E+02 -0.70766811399E+03  0.72169292588E+03  0.12500176922E+03 0.  0.
          5    1    3    3  501    0 -0.58298256395E+02 -0.27906670191E+02 -0.15793986513E+03  0.17065309823E+03  0.10000000000E+00 0. -1.
         -5    1    3    3    0  501  0.24282558683E+02 -0.29224842264E+02 -0.54972824886E+03  0.55103982765E+03  0.10000000000E+00 0. -1.
         21    1    1    2  504  502  0.34015697713E+02  0.57131512455E+02 -0.31201480303E+02  0.73448007321E+02  0.00000000000E+00 0. -1.
<mgrwt>
<rscale>  1 0.14158573E+03</rscale>
<asrwt>0</asrwt>
<pdfrwt beam="1">  1       21 0.43285641E-02 0.14158573E+03</pdfrwt>
<pdfrwt beam="2">  1       21 0.11800082E+00 0.14158573E+03</pdfrwt>
<totfact> 0.19233096E+05</totfact>
</mgrwt>
</event>
<event>
 6    1  0.4187588E-002  0.1259246E+03  0.7546771E-02  0.1233631E+00
         21   -1    0    0  503  502  0.00000000000E+00  0.00000000000E+00  0.11607774860E+03  0.11607774860E+03  0.00000000000E+00 0.  1.
         21   -1    0    0  504  503 -0.00000000000E+00 -0.00000000000E+00 -0.15601908341E+03  0.15601908341E+03  0.00000000000E+00 0.  1.
         25    2    1    2    0    0 -0.16047124427E+01 -0.15157213220E+02 -0.12986413503E+03  0.18089142529E+03  0.12499879185E+03 0.  0.
          5    1    3    3  501    0 -0.30873504942E+02 -0.44610488775E+02 -0.12834528479E+03  0.13934055814E+03  0.10000000000E+00 0. -1.
         -5    1    3    3    0  501  0.29268792499E+02  0.29453275555E+02 -0.15188502426E+01  0.41550867155E+02  0.10000000000E+00 0. -1.
         21    1    1    2  504  502  0.16047124427E+01  0.15157213220E+02  0.89922800222E+02  0.91205406717E+02  0.00000000000E+00 0.  1.
<mgrwt>
<rscale>  1 0.12592464E+03</rscale>
<asrwt>0</asrwt>
<pdfrwt beam="1">  1       21 0.17858115E-01 0.12592464E+03</pdfrwt>
<pdfrwt beam="2">  1       21 0.24002936E-01 0.12592464E+03</pdfrwt>
<totfact> 0.47044540E+05</totfact>
</mgrwt>
</event>
<event>
 6    1  0.4187588E-002  0.1298415E+03  0.7546771E-02  0.1227691E+00
         21   -1    0    0  503  502  0.00000000000E+00  0.00000000000E+00  0.17946492564E+03  0.17946492564E+03  0.00000000000E+00 0.  1.
         21   -1    0    0  504  503 -0.00000000000E+00 -0.00000000000E+00 -0.44940293690E+02  0.44940293690E+02  0.00000000000E+00 0.  1.
         25    2    1    2    0    0  0.12049934634E+02  0.32997110280E+02  0.62136251108E+02  0.14394350239E+03  0.12499923187E+03 0.  0.
          5    1    3    3  501    0 -0.49035785565E+02 -0.15947611629E+02  0.25065816818E+02  0.57333583138E+02  0.10000000000E+00 0.  1.
         -5    1    3    3    0  501  0.61085720199E+02  0.48944721909E+02  0.37070434290E+02  0.86609919255E+02  0.10000000000E+00 0.  1.
         21    1    1    2  504  502 -0.12049934634E+02 -0.32997110280E+02  0.72388380844E+02  0.80461716939E+02  0.00000000000E+00 0.  1.
<mgrwt>
<rscale>  1 0.12984151E+03</rscale>
<asrwt>0</asrwt>
<pdfrwt beam="1">  1       21 0.27609988E-01 0.12984151E+03</pdfrwt>
<pdfrwt beam="2">  1       21 0.69138914E-02 0.12984151E+03</pdfrwt>
<totfact> 0.19247179E+06</totfact>
</mgrwt>
</event>
<event>
 6    1  0.4187588E-002  0.1295689E+03  0.7546771E-02  0.1228097E+00
         21   -1    0    0  504  502  0.00000000000E+00  0.00000000000E+00  0.15714947333E+03  0.15714947333E+03  0.00000000000E+00 0.  1.
         21   -1    0    0  502  503 -0.00000000000E+00 -0.00000000000E+00 -0.43143664537E+02  0.43143664537E+02  0.00000000000E+00 0.  1.
         25    2    1    2    0    0  0.18767281027E+02 -0.28486370621E+02  0.98822507808E+02  0.16295392554E+03  0.12499763858E+03 0.  0.
          5    1    3    3  501    0 -0.24749880779E+02 -0.54897346542E+02  0.94248719830E+02  0.11184411672E+03  0.10000000000E+00 0.  1.
         -5    1    3    3    0  501  0.43517161805E+02  0.26410975921E+02  0.45737879783E+01  0.51109808816E+02  0.10000000000E+00 0.  1.
         21    1    1    2  504  503 -0.18767281027E+02  0.28486370621E+02  0.15183300981E+02  0.37339212324E+02  0.00000000000E+00 0.  1.
<mgrwt>
<rscale>  1 0.12956888E+03</rscale>
<asrwt>0</asrwt>
<pdfrwt beam="1">  1       21 0.24176842E-01 0.12956888E+03</pdfrwt>
<pdfrwt beam="2">  1       21 0.66374869E-02 0.12956888E+03</pdfrwt>
<totfact> 0.26544595E+06</totfact>
</mgrwt>
</event>
<event>
 6    1  0.4187588E-002  0.1271690E+03  0.7546771E-02  0.1231718E+00
         21   -1    0    0  503  502  0.00000000000E+00  0.00000000000E+00  0.38619188127E+03  0.38619188127E+03  0.00000000000E+00 0.  1.
         21   -1    0    0  504  503 -0.00000000000E+00 -0.00000000000E+00 -0.15459056396E+02  0.15459056396E+02  0.00000000000E+00 0.  1.
         25    2    1    2    0    0  0.19267016691E+02 -0.13441604901E+02  0.27348353894E+03  0.30160435706E+03  0.12498018826E+03 0.  0.
          5    1    3    3  501    0  0.35023907807E+02  0.43817993900E+02  0.70402609761E+02  0.90017932484E+02  0.10000000000E+00 0.  1.
         -5    1    3    3    0  501 -0.15756891115E+02 -0.57259598801E+02  0.20308092917E+03  0.21158642458E+03  0.10000000000E+00 0.  1.
         21    1    1    2  504  502 -0.19267016691E+02  0.13441604901E+02  0.97249285939E+02  0.10004658060E+03  0.00000000000E+00 0.  1.
<mgrwt>
<rscale>  1 0.12716895E+03</rscale>
<asrwt>0</asrwt>
<pdfrwt beam="1">  1       21 0.59414129E-01 0.12716895E+03</pdfrwt>
<pdfrwt beam="2">  1       21 0.23783166E-02 0.12716895E+03</pdfrwt>
<totfact> 0.24400238E+06</totfact>
</mgrwt>
</event>
<event>
 6    1  0.4187588E-002  0.1353065E+03  0.7546771E-02  0.1219788E+00
         21   -1    0    0  503  502  0.00000000000E+00  0.00000000000E+00  0.59783664335E+03  0.59783664335E+03  0.00000000000E+00 0. -1.
         21   -1    0    0  504  503 -0.00000000000E+00 -0.00000000000E+00 -0.18538738209E+02  0.18538738209E+02  0.00000000000E+00 0. -1.
         25    2    1    2    0    0 -0.29724749674E+02 -0.42425455563E+02  0.26199340527E+03  0.29487013174E+03  0.12499748063E+03 0.  0.
          5    1    3    3  501    0 -0.29066551371E+02 -0.30739971128E+02  0.11146113882E+02  0.43749926722E+02  0.10000000000E+00 0. -1.
         -5    1    3    3    0  501 -0.65819830354E+00 -0.11685484435E+02  0.25084729139E+03  0.25112020502E+03  0.10000000000E+00 0. -1.
         21    1    1    2  504  502  0.29724749674E+02  0.42425455563E+02  0.31730449987E+03  0.32150524982E+03  0.00000000000E+00 0. -1.
<mgrwt>
<rscale>  1 0.13530650E+03</rscale>
<asrwt>0</asrwt>
<pdfrwt beam="1">  1       21 0.91974853E-01 0.13530650E+03</pdfrwt>
<pdfrwt beam="2">  1       21 0.28521140E-02 0.13530650E+03</pdfrwt>
<totfact> 0.69255126E+05</totfact>
</mgrwt>
</event>
<event>
 6    1  0.4187588E-002  0.1261164E+03  0.7546771E-02  0.1233335E+00
         21   -1    0    0  504  502  0.00000000000E+00  0.00000000000E+00  0.71690536258E+02  0.71690536258E+02  0.00000000000E+00 0. -1.
         21   -1    0    0  502  503 -0.00000000000E+00 -0.00000000000E+00 -0.27173413223E+03  0.27173413223E+03  0.00000000000E+00 0. -1.
         25    2    1    2    0    0  0.14604877616E+02 -0.84151170976E+01 -0.25578717069E+03  0.28518840171E+03  0.12498492364E+03 0.  0.
          5    1    3    3  501    0  0.29433829402E+02  0.14840800734E+02 -0.25548739146E+03  0.25760515693E+03  0.10000000000E+00 0. -1.
         -5    1    3    3    0  501 -0.14828951786E+02 -0.23255917832E+02 -0.29977922614E+00  0.27583244785E+02  0.10000000000E+00 0. -1.
         21    1    1    2  504  503 -0.14604877616E+02  0.84151170976E+01  0.55743574715E+02  0.58236266776E+02  0.00000000000E+00 0. -1.
<mgrwt>
<rscale>  1 0.12611641E+03</rscale>
<asrwt>0</asrwt>
<pdfrwt beam="1">  1       21 0.11029313E-01 0.12611641E+03</pdfrwt>
<pdfrwt beam="2">  1       21 0.41805251E-01 0.12611641E+03</pdfrwt>
<totfact> 0.38005851E+05</totfact>
</mgrwt>
</event>
<event>
 6    1  0.4187588E-002  0.1381268E+03  0.7546771E-02  0.1215872E+00
         21   -1    0    0  504  502  0.00000000000E+00  0.00000000000E+00  0.56811687724E+03  0.56811687724E+03  0.00000000000E+00 0. -1.
         21   -1    0    0  502  503 -0.00000000000E+00 -0.00000000000E+00 -0.17254890962E+02  0.17254890962E+02  0.00000000000E+00 0. -1.
         25    2    1    2    0    0  0.52113694440E+02 -0.27161291744E+02  0.35665538816E+03  0.38246840285E+03  0.12500176143E+03 0.  0.
          5    1    3    3  501    0  0.62698546504E+02  0.29562980650E+02  0.11725914953E+03  0.13621598918E+03  0.10000000000E+00 0.  1.
         -5    1    3    3    0  501 -0.10584852064E+02 -0.56724272393E+02  0.23939623863E+03  0.24625241368E+03  0.10000000000E+00 0.  1.
         21    1    1    2  504  503 -0.52113694440E+02  0.27161291744E+02  0.19420659812E+03  0.20290336535E+03  0.00000000000E+00 0. -1.
<mgrwt>
<rscale>  1 0.13812680E+03</rscale>
<asrwt>0</asrwt>
<pdfrwt beam="1">  1       21 0.87402582E-01 0.13812680E+03</pdfrwt>
<pdfrwt beam="2">  1       21 0.26545990E-02 0.13812680E+03</pdfrwt>
<totfact> 0.87509156E+05</totfact>
</mgrwt>
</event>
<event>
 6    1  0.4187588E-002  0.1591231E+03  0.7546771E-02  0.1189690E+00
         21   -1    0    0  504  502  0.00000000000E+00  0.00000000000E+00  0.34349101992E+03  0.34349101992E+03  0.00000000000E+00 0. -1.
         21   -1    0    0  502  503 -0.00000000000E+00 -0.00000000000E+00 -0.15396075682E+03  0.15396075682E+03  0.00000000000E+00 0.  1.
         25    2    1    2    0    0 -0.98097716356E+02  0.85412778386E+01 -0.10249225383E+03  0.18927444828E+03  0.12499615712E+03 0.  0.
          5    1    3    3  501    0  0.10306793575E+02  0.43858994315E+02 -0.26772214912E+02  0.52408042011E+02  0.10000000000E+00 0.  1.
         -5    1    3    3    0  501 -0.10840450993E+03 -0.35317716476E+02 -0.75720038918E+02  0.13686640627E+03  0.10000000000E+00 0.  1.
         21    1    1    2  504  503  0.98097716356E+02 -0.85412778386E+01  0.29202251694E+03  0.30817732846E+03  0.00000000000E+00 0. -1.
<mgrwt>
<rscale>  1 0.15912308E+03</rscale>
<asrwt>0</asrwt>
<pdfrwt beam="1">  1       21 0.52844772E-01 0.15912308E+03</pdfrwt>
<pdfrwt beam="2">  1       21 0.23686270E-01 0.15912308E+03</pdfrwt>
<totfact> 0.57879050E+04</totfact>
</mgrwt>
</event>
<event>
 6    1  0.4187588E-002  0.1309018E+03  0.7546771E-02  0.1226124E+00
         21   -1    0    0  504  502  0.00000000000E+00  0.00000000000E+00  0.32555501943E+03  0.32555501943E+03  0.00000000000E+00 0. -1.
         21   -1    0    0  502  503 -0.00000000000E+00 -0.00000000000E+00 -0.22830066892E+02  0.22830066892E+02  0.00000000000E+00 0. -1.
         25    2    1    2    0    0  0.38237273091E+02 -0.68716975514E+01  0.25674644836E+03  0.28819096596E+03  0.12500393926E+03 0.  0.
          5    1    3    3  501    0  0.79495914255E+02 -0.95110585526E+01  0.11212050388E+03  0.13777183314E+03  0.10000000000E+00 0. -1.
         -5    1    3    3    0  501 -0.41258641165E+02  0.26393610012E+01  0.14462594449E+03  0.15041913281E+03  0.10000000000E+00 0. -1.
         21    1    1    2  504  503 -0.38237273091E+02  0.68716975514E+01  0.45978504176E+02  0.60194120369E+02  0.00000000000E+00 0. -1.
<mgrwt>
<rscale>  1 0.13090185E+03</rscale>
<asrwt>0</asrwt>
<pdfrwt beam="1">  1       21 0.50085384E-01 0.13090185E+03</pdfrwt>
<pdfrwt beam="2">  1       21 0.35123182E-02 0.13090185E+03</pdfrwt>
<totfact> 0.18430252E+06</totfact>
</mgrwt>
</event>
<event>
 6    1  0.4187588E-002  0.1261618E+03  0.7546771E-02  0.1233265E+00
         21   -1    0    0  503  502  0.00000000000E+00  0.00000000000E+00  0.71944709231E+01  0.71944709231E+01  0.00000000000E+00 0.  1.
         21   -1    0    0  504  503 -0.00000000000E+00 -0.00000000000E+00 -0.73563672797E+03  0.73563672797E+03  0.00000000000E+00 0.  1.
         25    2    1    2    0    0  0.16197707656E+02 -0.54270597257E+01 -0.58993517183E+03  0.60327464632E+03  0.12499989288E+03 0.  0.
          5    1    3    3  501    0 -0.28604799814E+02 -0.41464005904E+02 -0.43690477285E+03  0.43979914608E+03  0.10000000000E+00 0.  1.
         -5    1    3    3    0  501  0.44802507470E+02  0.36036946179E+02 -0.15303039899E+03  0.16347550024E+03  0.10000000000E+00 0.  1.
         21    1    1    2  504  502 -0.16197707656E+02  0.54270597257E+01 -0.13850708522E+03  0.13955655257E+03  0.00000000000E+00 0.  1.
<mgrwt>
<rscale>  1 0.12616177E+03</rscale>
<asrwt>0</asrwt>
<pdfrwt beam="1">  1       21 0.11068423E-02 0.12616177E+03</pdfrwt>
<pdfrwt beam="2">  1       21 0.11317482E+00 0.12616177E+03</pdfrwt>
<totfact> 0.19473400E+06</totfact>
</mgrwt>
</event>
<event>
 6    1  0.4187588E-002  0.1274830E+03  0.7546771E-02  0.1231239E+00
         21   -1    0    0  504  502  0.00000000000E+00  0.00000000000E+00  0.96405803126E+02  0.96405803126E+02  0.00000000000E+00 0.  1.
         21   -1    0    0  502  503 -0.00000000000E+00 -0.00000000000E+00 -0.11025791619E+03  0.11025791619E+03  0.00000000000E+00 0.  1.
         25    2    1    2    0    0 -0.24935187896E+02 -0.14850345884E+01 -0.69837268267E+02  0.14535869075E+03  0.12501174351E+03 0.  0.
          5    1    3    3  501    0  0.19554438212E+02 -0.51848923491E+02 -0.12004381893E+02  0.56699224912E+02  0.10000000000E+00 0.  1.
         -5    1    3    3    0  501 -0.44489626108E+02  0.50363888903E+02 -0.57832886373E+02  0.88659465839E+02  0.10000000000E+00 0.  1.
         21    1    1    2  504  503  0.24935187896E+02  0.14850345884E+01  0.55985155207E+02  0.61305028560E+02  0.00000000000E+00 0.  1.
<mgrwt>
<rscale>  1 0.12748296E+03</rscale>
<asrwt>0</asrwt>
<pdfrwt beam="1">  1       21 0.14831662E-01 0.12748296E+03</pdfrwt>
<pdfrwt beam="2">  1       21 0.16962756E-01 0.12748296E+03</pdfrwt>
<totfact> 0.12523066E+06</totfact>
</mgrwt>
</event>
<event>
 6    1  0.4187588E-002  0.1772446E+03  0.7546771E-02  0.1170497E+00
         21   -1    0    0  503  502  0.00000000000E+00  0.00000000000E+00  0.68231160605E+02  0.68231160605E+02  0.00000000000E+00 0.  1.
         21   -1    0    0  504  503 -0.00000000000E+00 -0.00000000000E+00 -0.40520581865E+03  0.40520581865E+03  0.00000000000E+00 0.  1.
         25    2    1    2    0    0  0.73517878223E+02  0.10190355542E+03 -0.28882208424E+03  0.33887144359E+03  0.12500578349E+03 0.  0.
          5    1    3    3  501    0  0.90189654882E+02  0.12090274279E+03 -0.25954751229E+03  0.30019421746E+03  0.10000000000E+00 0.  1.
         -5    1    3    3    0  501 -0.16671776659E+02 -0.18999187367E+02 -0.29274571954E+02  0.38677226125E+02  0.10000000000E+00 0.  1.
         21    1    1    2  504  502 -0.73517878223E+02 -0.10190355542E+03 -0.48152573804E+02  0.13456553567E+03  0.00000000000E+00 0.  1.
<mgrwt>
<rscale>  1 0.17724463E+03</rscale>
<asrwt>0</asrwt>
<pdfrwt beam="1">  1       21 0.10497102E-01 0.17724463E+03</pdfrwt>
<pdfrwt beam="2">  1       21 0.62339356E-01 0.17724463E+03</pdfrwt>
<totfact> 0.17855669E+05</totfact>
</mgrwt>
</event>
<event>
 6    1  0.4187588E-002  0.1275091E+03  0.7546771E-02  0.1231199E+00
         21   -1    0    0  504  502  0.00000000000E+00  0.00000000000E+00  0.41278161963E+03  0.41278161963E+03  0.00000000000E+00 0. -1.
         21   -1    0    0  502  503 -0.00000000000E+00 -0.00000000000E+00 -0.14910772624E+03  0.14910772624E+03  0.00000000000E+00 0. -1.
         25    2    1    2    0    0 -0.33473424327E+01 -0.24916694618E+02 -0.12136284557E+03  0.17603271871E+03  0.12500612544E+03 0.  0.
          5    1    3    3  501    0 -0.34193450754E+02 -0.66733921670E+02 -0.79706449779E+02  0.10943370830E+03  0.10000000000E+00 0.  1.
         -5    1    3    3    0  501  0.30846108321E+02  0.41817227052E+02 -0.41656395794E+02  0.66599010409E+02  0.10000000000E+00 0.  1.
         21    1    1    2  504  503  0.33473424327E+01  0.24916694618E+02  0.38503673896E+03  0.38585662716E+03  0.00000000000E+00 0. -1.
<mgrwt>
<rscale>  1 0.12750913E+03</rscale>
<asrwt>0</asrwt>
<pdfrwt beam="1">  1       21 0.63504864E-01 0.12750913E+03</pdfrwt>
<pdfrwt beam="2">  1       21 0.22939650E-01 0.12750913E+03</pdfrwt>
<totfact> 0.42338203E+04</totfact>
</mgrwt>
</event>
<event>
 6    1  0.4187588E-002  0.1649082E+03  0.7546771E-02  0.1183264E+00
         21   -1    0    0  503  502  0.00000000000E+00  0.00000000000E+00  0.10235632302E+04  0.10235632302E+04  0.00000000000E+00 0. -1.
         21   -1    0    0  504  503 -0.00000000000E+00 -0.00000000000E+00 -0.28218306373E+02  0.28218306373E+02  0.00000000000E+00 0. -1.
         25    2    1    2    0    0  0.95270505163E+02  0.49969253971E+02  0.25510522956E+03  0.30376535997E+03  0.12498528022E+03 0.  0.
          5    1    3    3  501    0  0.12596792161E+03  0.37077880246E+02  0.19583660554E+03  0.23578522547E+03  0.10000000000E+00 0.  1.
         -5    1    3    3    0  501 -0.30697416451E+02  0.12891373725E+02  0.59268624025E+02  0.67980134504E+02  0.10000000000E+00 0.  1.
         21    1    1    2  504  502 -0.95270505163E+02 -0.49969253971E+02  0.74023969427E+03  0.74801617661E+03  0.00000000000E+00 0. -1.
<mgrwt>
<rscale>  1 0.16490820E+03</rscale>
<asrwt>0</asrwt>
<pdfrwt beam="1">  1       21 0.15747124E+00 0.16490820E+03</pdfrwt>
<pdfrwt beam="2">  1       21 0.43412787E-02 0.16490820E+03</pdfrwt>
<totfact> 0.91013966E+04</totfact>
</mgrwt>
</event>
<event>
 6    1  0.4187588E-002  0.1320774E+03  0.7546771E-02  0.1224405E+00
         21   -1    0    0  503  502  0.00000000000E+00  0.00000000000E+00  0.89681189201E+03  0.89681189201E+03  0.00000000000E+00 0.  1.
         21   -1    0    0  504  503 -0.00000000000E+00 -0.00000000000E+00 -0.51174708149E+02  0.51174708149E+02  0.00000000000E+00 0.  1.
         25    2    1    2    0    0 -0.29840239221E+02  0.30335341317E+02  0.35543906071E+02  0.13677652162E+03  0.12503509426E+03 0.  0.
          5    1    3    3  501    0 -0.42165225014E+00  0.25743018506E+02 -0.44479242899E+02  0.51393519448E+02  0.10000000000E+00 0.  1.
         -5    1    3    3    0  501 -0.29418586971E+02  0.45923228116E+01  0.80023148969E+02  0.85383002168E+02  0.10000000000E+00 0.  1.
         21    1    1    2  504  502  0.29840239221E+02 -0.30335341317E+02  0.81009327779E+03  0.81121007854E+03  0.00000000000E+00 0.  1.
<mgrwt>
<rscale>  1 0.13207743E+03</rscale>
<asrwt>0</asrwt>
<pdfrwt beam="1">  1       21 0.13797105E+00 0.13207743E+03</pdfrwt>
<pdfrwt beam="2">  1       21 0.78730327E-02 0.13207743E+03</pdfrwt>
<totfact> 0.47505551E+04</totfact>
</mgrwt>
</event>
<event>
 6    1  0.4187588E-002  0.1355757E+03  0.7546771E-02  0.1219409E+00
         21   -1    0    0  503  502  0.00000000000E+00  0.00000000000E+00  0.24279315203E+04  0.24279315203E+04  0.00000000000E+00 0. -1.
         21   -1    0    0  504  503 -0.00000000000E+00 -0.00000000000E+00 -0.36734490015E+01  0.36734490015E+01  0.00000000000E+00 0. -1.
         25    2    1    2    0    0 -0.15526092907E+02  0.50153960058E+02  0.16424886780E+04  0.16480745848E+04  0.12499720060E+03 0.  0.
          5    1    3    3  501    0  0.48497878571E+02 -0.45786679228E+01  0.76621478067E+03  0.76776175247E+03  0.10000000000E+00 0.  1.
         -5    1    3    3    0  501 -0.64023971478E+02  0.54732627981E+02  0.87627389736E+03  0.88031283229E+03  0.10000000000E+00 0.  1.
         21    1    1    2  504  502  0.15526092907E+02 -0.50153960058E+02  0.78176939325E+03  0.78353038454E+03  0.00000000000E+00 0. -1.
<mgrwt>
<rscale>  1 0.13557573E+03</rscale>
<asrwt>0</asrwt>
<pdfrwt beam="1">  1       21 0.37352664E+00 0.13557573E+03</pdfrwt>
<pdfrwt beam="2">  1       21 0.56514794E-03 0.13557573E+03</pdfrwt>
<totfact> 0.12429787E+05</totfact>
</mgrwt>
</event>
<event>
 6    1  0.4187588E-002  0.1260207E+03  0.7546771E-02  0.1233483E+00
         21   -1    0    0  504  502  0.00000000000E+00  0.00000000000E+00  0.40997890647E+03  0.40997890647E+03  0.00000000000E+00 0. -1.
         21   -1    0    0  502  503 -0.00000000000E+00 -0.00000000000E+00 -0.50061113650E+02  0.50061113650E+02  0.00000000000E+00 0. -1.
         25    2    1    2    0    0 -0.13675186006E+02  0.83729096993E+01  0.29752009319E+02  0.12948509136E+03  0.12499636194E+03 0.  0.
          5    1    3    3  501    0  0.49710812596E+01  0.64919736918E+02  0.25033581593E+02  0.69756534445E+02  0.10000000000E+00 0. -1.
         -5    1    3    3    0  501 -0.18646267266E+02 -0.56546827219E+02  0.47184277254E+01  0.59728556919E+02  0.10000000000E+00 0. -1.
         21    1    1    2  504  503  0.13675186006E+02 -0.83729096993E+01  0.33016578350E+03  0.33055492876E+03  0.00000000000E+00 0. -1.
<mgrwt>
<rscale>  1 0.12602066E+03</rscale>
<asrwt>0</asrwt>
<pdfrwt beam="1">  1       21 0.63073676E-01 0.12602066E+03</pdfrwt>
<pdfrwt beam="2">  1       21 0.77017101E-02 0.12602066E+03</pdfrwt>
<totfact> 0.30271355E+05</totfact>
</mgrwt>
</event>
<event>
 6    1  0.4187588E-002  0.1273601E+03  0.7546771E-02  0.1231426E+00
         21   -1    0    0  504  502  0.00000000000E+00  0.00000000000E+00  0.42447750459E+03  0.42447750459E+03  0.00000000000E+00 0.  1.
         21   -1    0    0  502  503 -0.00000000000E+00 -0.00000000000E+00 -0.14837551354E+02  0.14837551354E+02  0.00000000000E+00 0.  1.
         25    2    1    2    0    0  0.66975776944E+01  0.23473449216E+02  0.28291288363E+03  0.31025843838E+03  0.12499895399E+03 0.  0.
          5    1    3    3  501    0  0.48000086876E+02  0.35981820658E+02  0.66395656444E+02  0.89482361125E+02  0.10000000000E+00 0. -1.
         -5    1    3    3    0  501 -0.41302509182E+02 -0.12508371442E+02  0.21651722718E+03  0.22077607725E+03  0.10000000000E+00 0. -1.
         21    1    1    2  504  503 -0.66975776944E+01 -0.23473449216E+02  0.12672706961E+03  0.12905661756E+03  0.00000000000E+00 0.  1.
<mgrwt>
<rscale>  1 0.12736011E+03</rscale>
<asrwt>0</asrwt>
<pdfrwt beam="1">  1       21 0.65304222E-01 0.12736011E+03</pdfrwt>
<pdfrwt beam="2">  1       21 0.22827005E-02 0.12736011E+03</pdfrwt>
<totfact> 0.21312081E+06</totfact>
</mgrwt>
</event>
<event>
 6    1  0.4187588E-002  0.1278584E+03  0.7546771E-02  0.1230669E+00
         21   -1    0    0  504  502  0.00000000000E+00  0.00000000000E+00  0.10051758097E+03  0.10051758097E+03  0.00000000000E+00 0. -1.
         21   -1    0    0  502  503 -0.00000000000E+00 -0.00000000000E+00 -0.80419081772E+02  0.80419081772E+02  0.00000000000E+00 0. -1.
         25    2    1    2    0    0 -0.22809597020E+02  0.14137122986E+02 -0.23248951132E+02  0.12995492667E+03  0.12501053266E+03 0.  0.
          5    1    3    3  501    0  0.47093539232E+02  0.30345234195E+02 -0.12434323981E+02  0.57386906944E+02  0.10000000000E+00 0.  1.
         -5    1    3    3    0  501 -0.69903136252E+02 -0.16208111209E+02 -0.10814627151E+02  0.72568019728E+02  0.10000000000E+00 0.  1.
         21    1    1    2  504  503  0.22809597020E+02 -0.14137122986E+02  0.43347450325E+02  0.50981736065E+02  0.00000000000E+00 0. -1.
<mgrwt>
<rscale>  1 0.12785840E+03</rscale>
<asrwt>0</asrwt>
<pdfrwt beam="1">  1       21 0.15464243E-01 0.12785840E+03</pdfrwt>
<pdfrwt beam="2">  1       21 0.12372166E-01 0.12785840E+03</pdfrwt>
<totfact> 0.20481713E+06</totfact>
</mgrwt>
</event>
<event>
 6    1  0.4187588E-002  0.1336040E+03  0.7546771E-02  0.1222204E+00
         21   -1    0    0  503  502  0.00000000000E+00  0.00000000000E+00  0.93764319626E+03  0.93764319626E+03  0.00000000000E+00 0.  1.
         21   -1    0    0  504  503 -0.00000000000E+00 -0.00000000000E+00 -0.33340645500E+02  0.33340645500E+02  0.00000000000E+00 0. -1.
         25    2    1    2    0    0  0.35496045270E+02 -0.31058995009E+02  0.10404632515E+03  0.16933887231E+03  0.12500154199E+03 0.  0.
          5    1    3    3  501    0  0.43300819865E+02 -0.17097254521E+02  0.13042771161E+03  0.13848709351E+03  0.10000000000E+00 0. -1.
         -5    1    3    3    0  501 -0.78047745951E+01 -0.13961740488E+02 -0.26381386461E+02  0.30851778807E+02  0.10000000000E+00 0. -1.
         21    1    1    2  504  502 -0.35496045270E+02  0.31058995009E+02  0.80025622562E+03  0.80164496945E+03  0.00000000000E+00 0.  1.
<mgrwt>
<rscale>  1 0.13360395E+03</rscale>
<asrwt>0</asrwt>
<pdfrwt beam="1">  1       21 0.14425278E+00 0.13360395E+03</pdfrwt>
<pdfrwt beam="2">  1       21 0.51293308E-02 0.13360395E+03</pdfrwt>
<totfact> 0.87869482E+04</totfact>
</mgrwt>
</event>
<event>
 6    1  0.4187588E-002  0.1263118E+03  0.7546771E-02  0.1233033E+00
         21   -1    0    0  503  502  0.00000000000E+00  0.00000000000E+00  0.35402463765E+02  0.35402463765E+02  0.00000000000E+00 0. -1.
         21   -1    0    0  504  503 -0.00000000000E+00 -0.00000000000E+00 -0.41722678741E+03  0.41722678741E+03  0.00000000000E+00 0. -1.
         25    2    1    2    0    0 -0.18078827715E+01  0.18088430304E+02 -0.40438675680E+03  0.42365472546E+03  0.12499687025E+03 0.  0.
          5    1    3    3  501    0  0.17843912917E+02  0.68186085910E+02 -0.26580683859E+03  0.27499278714E+03  0.10000000000E+00 0. -1.
         -5    1    3    3    0  501 -0.19651795688E+02 -0.50097655606E+02 -0.13857991821E+03  0.14866193831E+03  0.10000000000E+00 0. -1.
         21    1    1    2  504  502  0.18078827715E+01 -0.18088430304E+02  0.22562433154E+02  0.28974525722E+02  0.00000000000E+00 0. -1.
<mgrwt>
<rscale>  1 0.12631183E+03</rscale>
<asrwt>0</asrwt>
<pdfrwt beam="1">  1       21 0.54465328E-02 0.12631183E+03</pdfrwt>
<pdfrwt beam="2">  1       21 0.64188737E-01 0.12631183E+03</pdfrwt>
<totfact> 0.52581360E+05</totfact>
</mgrwt>
</event>
<event>
 6    1  0.4187588E-002  0.1267785E+03  0.7546771E-02  0.1232316E+00
         21   -1    0    0  504  502  0.00000000000E+00  0.00000000000E+00  0.64065764070E+03  0.64065764070E+03  0.00000000000E+00 0.  1.
         21   -1    0    0  502  503 -0.00000000000E+00 -0.00000000000E+00 -0.14410789956E+02  0.14410789956E+02  0.00000000000E+00 0.  1.
         25    2    1    2    0    0  0.61171952448E+01  0.20138381212E+02  0.27089061282E+03  0.29908945613E+03  0.12501921523E+03 0.  0.
          5    1    3    3  501    0 -0.16381755367E+02 -0.35265417883E+02  0.25458074839E+02  0.46477254457E+02  0.10000000000E+00 0. -1.
         -5    1    3    3    0  501  0.22498950611E+02  0.55403799095E+02  0.24543253798E+03  0.25261220167E+03  0.10000000000E+00 0. -1.
         21    1    1    2  504  503 -0.61171952448E+01 -0.20138381212E+02  0.35535623792E+03  0.35597897453E+03  0.00000000000E+00 0.  1.
<mgrwt>
<rscale>  1 0.12677846E+03</rscale>
<asrwt>0</asrwt>
<pdfrwt beam="1">  1       21 0.98562692E-01 0.12677846E+03</pdfrwt>
<pdfrwt beam="2">  1       21 0.22170451E-02 0.12677846E+03</pdfrwt>
<totfact> 0.88979538E+05</totfact>
</mgrwt>
</event>
<event>
 6    1  0.4187588E-002  0.1274561E+03  0.7546771E-02  0.1231280E+00
         21   -1    0    0  504  502  0.00000000000E+00  0.00000000000E+00  0.24636693096E+03  0.24636693096E+03  0.00000000000E+00 0. -1.
         21   -1    0    0  502  503 -0.00000000000E+00 -0.00000000000E+00 -0.29631581802E+02  0.29631581802E+02  0.00000000000E+00 0. -1.
         25    2    1    2    0    0  0.46299172725E+01 -0.24592580451E+02  0.11646712220E+03  0.17265467655E+03  0.12497526008E+03 0.  0.
          5    1    3    3  501    0  0.54376521655E+02  0.20674252566E+02  0.69427299472E+02  0.90578091934E+02  0.10000000000E+00 0. -1.
         -5    1    3    3    0  501 -0.49746604383E+02 -0.45266833016E+02  0.47039822731E+02  0.82076584611E+02  0.10000000000E+00 0. -1.
         21    1    1    2  504  503 -0.46299172725E+01  0.24592580451E+02  0.10026822696E+03  0.10334383622E+03  0.00000000000E+00 0. -1.
<mgrwt>
<rscale>  1 0.12745606E+03</rscale>
<asrwt>0</asrwt>
<pdfrwt beam="1">  1       21 0.37902603E-01 0.12745606E+03</pdfrwt>
<pdfrwt beam="2">  1       21 0.45587051E-02 0.12745606E+03</pdfrwt>
<totfact> 0.20989513E+06</totfact>
</mgrwt>
</event>
<event>
 6    1  0.4187588E-002  0.1287594E+03  0.7546771E-02  0.1229308E+00
         21   -1    0    0  503  502  0.00000000000E+00  0.00000000000E+00  0.14836686941E+04  0.14836686941E+04  0.00000000000E+00 0. -1.
         21   -1    0    0  504  503 -0.00000000000E+00 -0.00000000000E+00 -0.50057883015E+01  0.50057883015E+01  0.00000000000E+00 0. -1.
         25    2    1    2    0    0  0.78827319397E+01  0.29890940148E+02  0.13588929772E+04  0.13649795287E+04  0.12499353832E+03 0.  0.
          5    1    3    3  501    0  0.82612001157E+01 -0.41148171892E+02  0.86344367045E+03  0.86446307123E+03  0.10000000000E+00 0. -1.
         -5    1    3    3    0  501 -0.37846817592E+00  0.71039112040E+02  0.49544930671E+03  0.50051645747E+03  0.10000000000E+00 0. -1.
         21    1    1    2  504  502 -0.78827319397E+01 -0.29890940148E+02  0.11976992862E+03  0.12369495369E+03  0.00000000000E+00 0.  1.
<mgrwt>
<rscale>  1 0.12875943E+03</rscale>
<asrwt>0</asrwt>
<pdfrwt beam="1">  1       21 0.22825637E+00 0.12875943E+03</pdfrwt>
<pdfrwt beam="2">  1       21 0.77012246E-03 0.12875943E+03</pdfrwt>
<totfact> 0.52394466E+05</totfact>
</mgrwt>
</event>
<event>
 6    1  0.4187588E-002  0.1640323E+03  0.7546771E-02  0.1184218E+00
         21   -1    0    0  503  502  0.00000000000E+00  0.00000000000E+00  0.43077710056E+03  0.43077710056E+03  0.00000000000E+00 0. -1.
         21   -1    0    0  504  503 -0.00000000000E+00 -0.00000000000E+00 -0.55095862464E+03  0.55095862464E+03  0.00000000000E+00 0. -1.
         25    2    1    2    0    0 -0.77005640460E+02 -0.73153265004E+02 -0.53185796616E+03  0.55657838748E+03  0.12500134560E+03 0.  0.
          5    1    3    3  501    0  0.85486282975E+01 -0.72604251124E+02 -0.31682787840E+03  0.32515284231E+03  0.10000000000E+00 0. -1.
         -5    1    3    3    0  501 -0.85554268758E+02 -0.54901387928E+00 -0.21503008776E+03  0.23142554517E+03  0.10000000000E+00 0. -1.
         21    1    1    2  504  502  0.77005640460E+02  0.73153265004E+02  0.41167644209E+03  0.42515733772E+03  0.00000000000E+00 0. -1.
<mgrwt>
<rscale>  1 0.16403233E+03</rscale>
<asrwt>0</asrwt>
<pdfrwt beam="1">  1       21 0.66273400E-01 0.16403233E+03</pdfrwt>
<pdfrwt beam="2">  1       21 0.84762865E-01 0.16403233E+03</pdfrwt>
<totfact> 0.25873229E+03</totfact>
</mgrwt>
</event>
<event>
 6    1  0.4187588E-002  0.1268304E+03  0.7546771E-02  0.1232236E+00
         21   -1    0    0  503  502  0.00000000000E+00  0.00000000000E+00  0.13088140677E+03  0.13088140677E+03  0.00000000000E+00 0. -1.
         21   -1    0    0  504  503 -0.00000000000E+00 -0.00000000000E+00 -0.59545561457E+03  0.59545561457E+03  0.00000000000E+00 0. -1.
         25    2    1    2    0    0  0.90740514077E+01 -0.19450110588E+02 -0.58776359793E+03  0.60129194525E+03  0.12500124461E+03 0.  0.
          5    1    3    3  501    0 -0.56683188317E+02 -0.91862948200E+00 -0.21677533695E+03  0.22406558064E+03  0.10000000000E+00 0. -1.
         -5    1    3    3    0  501  0.65757239725E+02 -0.18531481106E+02 -0.37098826098E+03  0.37722636460E+03  0.10000000000E+00 0. -1.
         21    1    1    2  504  502 -0.90740514077E+01  0.19450110588E+02  0.12318939014E+03  0.12504507609E+03  0.00000000000E+00 0. -1.
<mgrwt>
<rscale>  1 0.12683042E+03</rscale>
<asrwt>0</asrwt>
<pdfrwt beam="1">  1       21 0.20135601E-01 0.12683042E+03</pdfrwt>
<pdfrwt beam="2">  1       21 0.91608556E-01 0.12683042E+03</pdfrwt>
<totfact> 0.23978303E+04</totfact>
</mgrwt>
</event>
<event>
 6    1  0.4187588E-002  0.1274664E+03  0.7546771E-02  0.1231264E+00
         21   -1    0    0  504  502  0.00000000000E+00  0.00000000000E+00  0.13422044735E+04  0.13422044735E+04  0.00000000000E+00 0. -1.
         21   -1    0    0  502  503 -0.00000000000E+00 -0.00000000000E+00 -0.72005052076E+01  0.72005052076E+01  0.00000000000E+00 0. -1.
         25    2    1    2    0    0 -0.49169537840E+01  0.24486681303E+02  0.57363168277E+03  0.58762316536E+03  0.12499561187E+03 0.  0.
          5    1    3    3  501    0  0.57201465560E+01 -0.45171442792E+02  0.11631443536E+03  0.12490891559E+03  0.10000000000E+00 0.  1.
         -5    1    3    3    0  501 -0.10637100340E+02  0.69658124095E+02  0.45731724741E+03  0.46271424977E+03  0.10000000000E+00 0.  1.
         21    1    1    2  504  503  0.49169537840E+01 -0.24486681303E+02  0.76137228547E+03  0.76178181331E+03  0.00000000000E+00 0. -1.
<mgrwt>
<rscale>  1 0.12746638E+03</rscale>
<asrwt>0</asrwt>
<pdfrwt beam="1">  1       21 0.20649280E+00 0.12746638E+03</pdfrwt>
<pdfrwt beam="2">  1       21 0.11077711E-02 0.12746638E+03</pdfrwt>
<totfact> 0.40061855E+05</totfact>
</mgrwt>
</event>
<event>
 6    1  0.4187588E-002  0.1283485E+03  0.7546771E-02  0.1229927E+00
         21   -1    0    0  504  502  0.00000000000E+00  0.00000000000E+00  0.84835619521E+02  0.84835619521E+02  0.00000000000E+00 0. -1.
         21   -1    0    0  502  503 -0.00000000000E+00 -0.00000000000E+00 -0.23712692429E+03  0.23712692429E+03  0.00000000000E+00 0. -1.
         25    2    1    2    0    0 -0.13770909861E+02 -0.25643233244E+02 -0.21637522063E+03  0.25157815888E+03  0.12500448213E+03 0.  0.
          5    1    3    3  501    0  0.32217511553E+02 -0.48297046560E+02 -0.17887616982E+03  0.18806186983E+03  0.10000000000E+00 0.  1.
         -5    1    3    3    0  501 -0.45988421414E+02  0.22653813316E+02 -0.37499050815E+02  0.63516289044E+02  0.10000000000E+00 0.  1.
         21    1    1    2  504  503  0.13770909861E+02  0.25643233244E+02  0.64083915865E+02  0.70384384931E+02  0.00000000000E+00 0. -1.
<mgrwt>
<rscale>  1 0.12834849E+03</rscale>
<asrwt>0</asrwt>
<pdfrwt beam="1">  1       21 0.13051634E-01 0.12834849E+03</pdfrwt>
<pdfrwt beam="2">  1       21 0.36481065E-01 0.12834849E+03</pdfrwt>
<totfact> 0.36989389E+05</totfact>
</mgrwt>
</event>
<event>
 6    1  0.4187588E-002  0.1350061E+03  0.7546771E-02  0.1220211E+00
         21   -1    0    0  504  502  0.00000000000E+00  0.00000000000E+00  0.95431001172E+02  0.95431001172E+02  0.00000000000E+00 0.  1.
         21   -1    0    0  502  503 -0.00000000000E+00 -0.00000000000E+00 -0.93378547604E+02  0.93378547604E+02  0.00000000000E+00 0.  1.
         25    2    1    2    0    0  0.40936383337E+02  0.30425367013E+02 -0.12998576174E+02  0.13563038053E+03  0.12500058681E+03 0.  0.
          5    1    3    3  501    0  0.62190790980E+02  0.54249019975E+02 -0.41909740815E+02  0.92558559983E+02  0.10000000000E+00 0.  1.
         -5    1    3    3    0  501 -0.21254407643E+02 -0.23823652962E+02  0.28911164641E+02  0.43071820552E+02  0.10000000000E+00 0.  1.
         21    1    1    2  504  503 -0.40936383337E+02 -0.30425367013E+02  0.15051029741E+02  0.53179168241E+02  0.00000000000E+00 0.  1.
<mgrwt>
<rscale>  1 0.13500606E+03</rscale>
<asrwt>0</asrwt>
<pdfrwt beam="1">  1       21 0.14681693E-01 0.13500606E+03</pdfrwt>
<pdfrwt beam="2">  1       21 0.14365930E-01 0.13500606E+03</pdfrwt>
<totfact> 0.17246755E+06</totfact>
</mgrwt>
</event>
<event>
 6    1  0.4187588E-002  0.1265236E+03  0.7546771E-02  0.1232707E+00
         21   -1    0    0  504  502  0.00000000000E+00  0.00000000000E+00  0.24111033951E+03  0.24111033951E+03  0.00000000000E+00 0. -1.
         21   -1    0    0  502  503 -0.00000000000E+00 -0.00000000000E+00 -0.25751790318E+02  0.25751790318E+02  0.00000000000E+00 0. -1.
         25    2    1    2    0    0 -0.11297645850E+02 -0.15927777063E+02  0.13862818018E+03  0.18768586815E+03  0.12500752730E+03 0.  0.
          5    1    3    3  501    0  0.14102599400E+02  0.51468906037E+02  0.71578646709E+02  0.89282944974E+02  0.10000000000E+00 0. -1.
         -5    1    3    3    0  501 -0.25400245250E+02 -0.67396683100E+02  0.67049533472E+02  0.98402923180E+02  0.10000000000E+00 0. -1.
         21    1    1    2  504  503  0.11297645850E+02  0.15927777063E+02  0.76730369016E+02  0.79176261677E+02  0.00000000000E+00 0. -1.
<mgrwt>
<rscale>  1 0.12652357E+03</rscale>
<asrwt>0</asrwt>
<pdfrwt beam="1">  1       21 0.37093897E-01 0.12652357E+03</pdfrwt>
<pdfrwt beam="2">  1       21 0.39618140E-02 0.12652357E+03</pdfrwt>
<totfact> 0.27666783E+06</totfact>
</mgrwt>
</event>
<event>
 6    1  0.4187588E-002  0.2210268E+03  0.7546771E-02  0.1133120E+00
         21   -1    0    0  503  502  0.00000000000E+00  0.00000000000E+00  0.49903824898E+02  0.49903824898E+02  0.00000000000E+00 0. -1.
         21   -1    0    0  504  503 -0.00000000000E+00 -0.00000000000E+00 -0.12296088688E+04  0.12296088688E+04  0.00000000000E+00 0. -1.
         25    2    1    2    0    0  0.22105095065E+02  0.18091612689E+03 -0.99787688361E+03  0.10220621935E+04  0.12503428449E+03 0.  0.
          5    1    3    3  501    0  0.32117412191E+02  0.11499521246E+03 -0.33128197746E+03  0.35214086051E+03  0.10000000000E+00 0. -1.
         -5    1    3    3    0  501 -0.10012317126E+02  0.65920914428E+02 -0.66659490615E+03  0.66992133296E+03  0.10000000000E+00 0. -1.
         21    1    1    2  504  502 -0.22105095065E+02 -0.18091612689E+03 -0.18182816034E+03  0.25745050027E+03  0.00000000000E+00 0. -1.
<mgrwt>
<rscale>  1 0.22102681E+03</rscale>
<asrwt>0</asrwt>
<pdfrwt beam="1">  1       21 0.76775118E-02 0.22102681E+03</pdfrwt>
<pdfrwt beam="2">  1       21 0.18917059E+00 0.22102681E+03</pdfrwt>
<totfact> 0.19952088E+04</totfact>
</mgrwt>
</event>
<event>
 6    1  0.4187588E-002  0.1391810E+03  0.7546771E-02  0.1214435E+00
         21   -1    0    0  503  502  0.00000000000E+00  0.00000000000E+00  0.18924709034E+03  0.18924709034E+03  0.00000000000E+00 0.  1.
         21   -1    0    0  504  503 -0.00000000000E+00 -0.00000000000E+00 -0.87051104753E+02  0.87051104753E+02  0.00000000000E+00 0.  1.
         25    2    1    2    0    0 -0.60849830578E+02 -0.65874009759E+01 -0.19050898397E+02  0.14047882015E+03  0.12500106579E+03 0.  0.
          5    1    3    3  501    0  0.76814896227E+01 -0.10905278401E+02 -0.59369592369E+02  0.60849723728E+02  0.10000000000E+00 0. -1.
         -5    1    3    3    0  501 -0.68531320201E+02  0.43178774247E+01  0.40318693972E+02  0.79629096425E+02  0.10000000000E+00 0. -1.
         21    1    1    2  504  502  0.60849830578E+02  0.65874009759E+01  0.12124688398E+03  0.13581937494E+03  0.00000000000E+00 0.  1.
<mgrwt>
<rscale>  1 0.13918104E+03</rscale>
<asrwt>0</asrwt>
<pdfrwt beam="1">  1       21 0.29114937E-01 0.13918104E+03</pdfrwt>
<pdfrwt beam="2">  1       21 0.13392478E-01 0.13918104E+03</pdfrwt>
<totfact> 0.54772875E+05</totfact>
</mgrwt>
</event>
<event>
 6    1  0.4187588E-002  0.1362276E+03  0.7546771E-02  0.1218497E+00
         21   -1    0    0  503  502  0.00000000000E+00  0.00000000000E+00  0.13471296437E+02  0.13471296437E+02  0.00000000000E+00 0.  1.
         21   -1    0    0  504  503 -0.00000000000E+00 -0.00000000000E+00 -0.99558338280E+03  0.99558338280E+03  0.00000000000E+00 0.  1.
         25    2    1    2    0    0 -0.46755299168E+02  0.27316829895E+02 -0.90279855955E+03  0.91301873424E+03  0.12500281097E+03 0.  0.
          5    1    3    3  501    0  0.12336761321E+02  0.38556283718E+02 -0.70772325382E+03  0.70888010037E+03  0.10000000000E+00 0.  1.
         -5    1    3    3    0  501 -0.59092060489E+02 -0.11239453823E+02 -0.19507530573E+03  0.20413863388E+03  0.10000000000E+00 0.  1.
         21    1    1    2  504  502  0.46755299168E+02 -0.27316829895E+02 -0.79313526806E+02  0.96035944991E+02  0.00000000000E+00 0.  1.
<mgrwt>
<rscale>  1 0.13622764E+03</rscale>
<asrwt>0</asrwt>
<pdfrwt beam="1">  1       21 0.20725067E-02 0.13622764E+03</pdfrwt>
<pdfrwt beam="2">  1       21 0.15316671E+00 0.13622764E+03</pdfrwt>
<totfact> 0.33479817E+05</totfact>
</mgrwt>
</event>
<event>
 6    1  0.4187588E-002  0.1264910E+03  0.7546771E-02  0.1232757E+00
         21   -1    0    0  504  502  0.00000000000E+00  0.00000000000E+00  0.44278243552E+02  0.44278243552E+02  0.00000000000E+00 0.  1.
         21   -1    0    0  502  503 -0.00000000000E+00 -0.00000000000E+00 -0.12297286005E+03  0.12297286005E+03  0.00000000000E+00 0.  1.
         25    2    1    2    0    0  0.14389843721E+02  0.12935515013E+02 -0.76382341073E+02  0.14776413953E+03  0.12500233499E+03 0.  0.
          5    1    3    3  501    0  0.30680848009E+02  0.26831411174E+01  0.27998930558E+02  0.41622875840E+02  0.10000000000E+00 0. -1.
         -5    1    3    3    0  501 -0.16291004288E+02  0.10252373896E+02 -0.10438127163E+03  0.10614126369E+03  0.10000000000E+00 0. -1.
         21    1    1    2  504  503 -0.14389843721E+02 -0.12935515013E+02 -0.23122754268E+01  0.19486964069E+02  0.00000000000E+00 0.  1.
<mgrwt>
<rscale>  1 0.12649102E+03</rscale>
<asrwt>0</asrwt>
<pdfrwt beam="1">  1       21 0.68120375E-02 0.12649102E+03</pdfrwt>
<pdfrwt beam="2">  1       21 0.18918901E-01 0.12649102E+03</pdfrwt>
<totfact> 0.40037867E+06</totfact>
</mgrwt>
</event>
<event>
 6    1  0.4187588E-002  0.2063253E+03  0.7546771E-02  0.1144509E+00
         21   -1    0    0  504  502  0.00000000000E+00  0.00000000000E+00  0.66904218168E+03  0.66904218168E+03  0.00000000000E+00 0.  1.
         21   -1    0    0  502  503 -0.00000000000E+00 -0.00000000000E+00 -0.52455709874E+03  0.52455709874E+03  0.00000000000E+00 0.  1.
         25    2    1    2    0    0 -0.15316887034E+03 -0.59024647376E+02 -0.49346872336E+03  0.53486589671E+03  0.12500213876E+03 0.  0.
          5    1    3    3  501    0 -0.49421405287E+02 -0.13201369862E+02 -0.33563385676E+02  0.61182205950E+02  0.10000000000E+00 0. -1.
         -5    1    3    3    0  501 -0.10374746505E+03 -0.45823277514E+02 -0.45990533768E+03  0.47368369076E+03  0.10000000000E+00 0. -1.
         21    1    1    2  504  503  0.15316887034E+03  0.59024647376E+02  0.63795380630E+03  0.65873338370E+03  0.00000000000E+00 0.  1.
<mgrwt>
<rscale>  1 0.20632534E+03</rscale>
<asrwt>0</asrwt>
<pdfrwt beam="1">  1       21 0.10292957E+00 0.20632534E+03</pdfrwt>
<pdfrwt beam="2">  1       21 0.80701092E-01 0.20632534E+03</pdfrwt>
<totfact> 0.10194820E+03</totfact>
</mgrwt>
</event>
<event>
 6    1  0.4187588E-002  0.1269761E+03  0.7546771E-02  0.1232013E+00
         21   -1    0    0  504  502  0.00000000000E+00  0.00000000000E+00  0.29768173365E+03  0.29768173365E+03  0.00000000000E+00 0. -1.
         21   -1    0    0  502  503 -0.00000000000E+00 -0.00000000000E+00 -0.17742184176E+04  0.17742184176E+04  0.00000000000E+00 0. -1.
         25    2    1    2    0    0 -0.97117111406E+01  0.20097938976E+02 -0.17715243847E+04  0.17760691386E+04  0.12499878008E+03 0.  0.
          5    1    3    3  501    0  0.28368126233E+02 -0.81890657517E+01 -0.15092893256E+04  0.15095781164E+04  0.10000000000E+00 0. -1.
         -5    1    3    3    0  501 -0.38079837373E+02  0.28287004728E+02 -0.26223505916E+03  0.26649102218E+03  0.10000000000E+00 0. -1.
         21    1    1    2  504  503  0.97117111406E+01 -0.20097938976E+02  0.29498770072E+03  0.29583101267E+03  0.00000000000E+00 0. -1.
<mgrwt>
<rscale>  1 0.12697614E+03</rscale>
<asrwt>0</asrwt>
<pdfrwt beam="1">  1       21 0.45797189E-01 0.12697614E+03</pdfrwt>
<pdfrwt beam="2">  1       21 0.27295668E+00 0.12697614E+03</pdfrwt>
<totfact> 0.25099678E+02</totfact>
</mgrwt>
</event>
<event>
 6    1  0.4187588E-002  0.1405849E+03  0.7546771E-02  0.1212544E+00
         21   -1    0    0  503  502  0.00000000000E+00  0.00000000000E+00  0.55290201528E+02  0.55290201528E+02  0.00000000000E+00 0. -1.
         21   -1    0    0  504  503 -0.00000000000E+00 -0.00000000000E+00 -0.19803921324E+03  0.19803921324E+03  0.00000000000E+00 0. -1.
         25    2    1    2    0    0 -0.12330281475E+02 -0.63143729874E+02 -0.72885443995E+02  0.15835528904E+03  0.12499977263E+03 0.  0.
          5    1    3    3  501    0 -0.83016447488E+01 -0.22959470041E+02 -0.10434447979E+03  0.10716265690E+03  0.10000000000E+00 0. -1.
         -5    1    3    3    0  501 -0.40286367260E+01 -0.40184259832E+02  0.31459035800E+02  0.51192632142E+02  0.10000000000E+00 0. -1.
         21    1    1    2  504  502  0.12330281475E+02  0.63143729874E+02 -0.69863567722E+02  0.94974125731E+02  0.00000000000E+00 0.  1.
<mgrwt>
<rscale>  1 0.14058488E+03</rscale>
<asrwt>0</asrwt>
<pdfrwt beam="1">  1       21 0.85061848E-02 0.14058488E+03</pdfrwt>
<pdfrwt beam="2">  1       21 0.30467571E-01 0.14058488E+03</pdfrwt>
<totfact> 0.11159272E+06</totfact>
</mgrwt>
</event>
<event>
 6    1  0.4187588E-002  0.1566631E+03  0.7546771E-02  0.1192516E+00
         21   -1    0    0  504  502  0.00000000000E+00  0.00000000000E+00  0.45997097081E+03  0.45997097081E+03  0.00000000000E+00 0. -1.
         21   -1    0    0  502  503 -0.00000000000E+00 -0.00000000000E+00 -0.14534529650E+03  0.14534529650E+03  0.00000000000E+00 0. -1.
         25    2    1    2    0    0 -0.88052370818E+02  0.34127435946E+02 -0.96156573567E+02  0.18381898730E+03  0.12500172623E+03 0.  0.
          5    1    3    3  501    0 -0.93969720845E+02  0.67684177893E+02 -0.49257294919E+02  0.12584811272E+03  0.10000000000E+00 0.  1.
         -5    1    3    3    0  501  0.59173500275E+01 -0.33556741947E+02 -0.46899278648E+02  0.57970874577E+02  0.10000000000E+00 0.  1.
         21    1    1    2  504  503  0.88052370818E+02 -0.34127435946E+02  0.41078224788E+03  0.42149728002E+03  0.00000000000E+00 0. -1.
<mgrwt>
<rscale>  1 0.15666312E+03</rscale>
<asrwt>0</asrwt>
<pdfrwt beam="1">  1       21 0.70764764E-01 0.15666312E+03</pdfrwt>
<pdfrwt beam="2">  1       21 0.22360815E-01 0.15666312E+03</pdfrwt>
<totfact> 0.34545034E+04</totfact>
</mgrwt>
</event>
<event>
 6    1  0.4187588E-002  0.1326852E+03  0.7546771E-02  0.1223525E+00
         21   -1    0    0  504  502  0.00000000000E+00  0.00000000000E+00  0.60646989911E+03  0.60646989911E+03  0.00000000000E+00 0. -1.
         21   -1    0    0  502  503 -0.00000000000E+00 -0.00000000000E+00 -0.14513831491E+02  0.14513831491E+02  0.00000000000E+00 0. -1.
         25    2    1    2    0    0  0.44354620129E+02 -0.37726484609E+01  0.33717015176E+03  0.36233835924E+03  0.12499524047E+03 0.  0.
          5    1    3    3  501    0 -0.76029436139E+01 -0.56884165940E+02  0.12529081818E+03  0.13780933280E+03  0.10000000000E+00 0.  1.
         -5    1    3    3    0  501  0.51957563743E+02  0.53111517479E+02  0.21187933357E+03  0.22452902644E+03  0.10000000000E+00 0.  1.
         21    1    1    2  504  503 -0.44354620129E+02  0.37726484609E+01  0.25478591586E+03  0.25864537136E+03  0.00000000000E+00 0. -1.
<mgrwt>
<rscale>  1 0.13268525E+03</rscale>
<asrwt>0</asrwt>
<pdfrwt beam="1">  1       21 0.93303042E-01 0.13268525E+03</pdfrwt>
<pdfrwt beam="2">  1       21 0.22328976E-02 0.13268525E+03</pdfrwt>
<totfact> 0.99863699E+05</totfact>
</mgrwt>
</event>
<event>
 6    1  0.4187588E-002  0.1513689E+03  0.7546771E-02  0.1198801E+00
         21   -1    0    0  504  502  0.00000000000E+00  0.00000000000E+00  0.52004770978E+03  0.52004770978E+03  0.00000000000E+00 0. -1.
         21   -1    0    0  502  503 -0.00000000000E+00 -0.00000000000E+00 -0.11927767220E+03  0.11927767220E+03  0.00000000000E+00 0. -1.
         25    2    1    2    0    0  0.34897120469E+02  0.77914976733E+02  0.49177504910E+03  0.51454371371E+03  0.12499592707E+03 0.  0.
          5    1    3    3  501    0 -0.92789699984E+01  0.10104653420E+03  0.32478482179E+03  0.34026708895E+03  0.10000000000E+00 0. -1.
         -5    1    3    3    0  501  0.44176090468E+02 -0.23131557468E+02  0.16699022730E+03  0.17427662475E+03  0.10000000000E+00 0. -1.
         21    1    1    2  504  503 -0.34897120469E+02 -0.77914976733E+02 -0.91005011518E+02  0.12478166828E+03  0.00000000000E+00 0. -1.
<mgrwt>
<rscale>  1 0.15136887E+03</rscale>
<asrwt>0</asrwt>
<pdfrwt beam="1">  1       21 0.80007339E-01 0.15136887E+03</pdfrwt>
<pdfrwt beam="2">  1       21 0.18350411E-01 0.15136887E+03</pdfrwt>
<totfact> 0.38097121E+04</totfact>
</mgrwt>
</event>
<event>
 6    1  0.4187588E-002  0.1261654E+03  0.7546771E-02  0.1233259E+00
         21   -1    0    0  504  502  0.00000000000E+00  0.00000000000E+00  0.55910951129E+01  0.55910951129E+01  0.00000000000E+00 0. -1.
         21   -1    0    0  502  503 -0.00000000000E+00 -0.00000000000E+00 -0.10404628888E+04  0.10404628888E+04  0.00000000000E+00 0. -1.
         25    2    1    2    0    0  0.92088157971E+01  0.14414849692E+02 -0.99043990301E+03  0.99844323839E+03  0.12500043452E+03 0.  0.
          5    1    3    3  501    0 -0.40943454473E+02  0.37096032078E+01 -0.12714028762E+03  0.13362181842E+03  0.10000000000E+00 0.  1.
         -5    1    3    3    0  501  0.50152270270E+02  0.10705246484E+02 -0.86329961539E+03  0.86482141998E+03  0.10000000000E+00 0.  1.
         21    1    1    2  504  503 -0.92088157971E+01 -0.14414849692E+02 -0.44431890649E+02  0.47610745496E+02  0.00000000000E+00 0. -1.
<mgrwt>
<rscale>  1 0.12616536E+03</rscale>
<asrwt>0</asrwt>
<pdfrwt beam="1">  1       21 0.86016797E-03 0.12616536E+03</pdfrwt>
<pdfrwt beam="2">  1       21 0.16007131E+00 0.12616536E+03</pdfrwt>
<totfact> 0.12113775E+06</totfact>
</mgrwt>
</event>
<event>
 6    1  0.4187588E-002  0.1274054E+03  0.7546771E-02  0.1231357E+00
         21   -1    0    0  504  502  0.00000000000E+00  0.00000000000E+00  0.51082913753E+02  0.51082913753E+02  0.00000000000E+00 0. -1.
         21   -1    0    0  502  503 -0.00000000000E+00 -0.00000000000E+00 -0.14939486159E+03  0.14939486159E+03  0.00000000000E+00 0. -1.
         25    2    1    2    0    0  0.29254772973E+01 -0.24347199270E+02 -0.11433398328E+03  0.17118528228E+03  0.12502318428E+03 0.  0.
          5    1    3    3  501    0  0.97902890608E+01 -0.42281770197E+02 -0.13569175082E+03  0.14246353601E+03  0.10000000000E+00 0.  1.
         -5    1    3    3    0  501 -0.68648117636E+01  0.17934570926E+02  0.21357767538E+02  0.28721746275E+02  0.10000000000E+00 0.  1.
         21    1    1    2  504  503 -0.29254772973E+01  0.24347199270E+02  0.16022035448E+02  0.29292493059E+02  0.00000000000E+00 0. -1.
<mgrwt>
<rscale>  1 0.12740542E+03</rscale>
<asrwt>0</asrwt>
<pdfrwt beam="1">  1       21 0.78589099E-02 0.12740542E+03</pdfrwt>
<pdfrwt beam="2">  1       21 0.22983825E-01 0.12740542E+03</pdfrwt>
<totfact> 0.21842771E+06</totfact>
</mgrwt>
</event>
<event>
 6    1  0.4187588E-002  0.1614561E+03  0.7546771E-02  0.1187063E+00
         21   -1    0    0  504  502  0.00000000000E+00  0.00000000000E+00  0.96562996927E+03  0.96562996927E+03  0.00000000000E+00 0. -1.
         21   -1    0    0  502  503 -0.00000000000E+00 -0.00000000000E+00 -0.24836911069E+02  0.24836911069E+02  0.00000000000E+00 0.  1.
         25    2    1    2    0    0 -0.97746324043E+02 -0.29811140252E+02  0.29190734359E+03  0.33358354323E+03  0.12500014050E+03 0.  0.
          5    1    3    3  501    0 -0.60800818972E+01 -0.38300396126E+02  0.14671123969E+02  0.41462508581E+02  0.10000000000E+00 0. -1.
         -5    1    3    3    0  501 -0.91666242145E+02  0.84892558745E+01  0.27723621962E+03  0.29212103464E+03  0.10000000000E+00 0. -1.
         21    1    1    2  504  503  0.97746324043E+02  0.29811140252E+02  0.64888571462E+03  0.65688333712E+03  0.00000000000E+00 0. -1.
<mgrwt>
<rscale>  1 0.16145613E+03</rscale>
<asrwt>0</asrwt>
<pdfrwt beam="1">  1       21 0.14855843E+00 0.16145613E+03</pdfrwt>
<pdfrwt beam="2">  1       21 0.38210640E-02 0.16145613E+03</pdfrwt>
<totfact> 0.13157334E+05</totfact>
</mgrwt>
</event>
<event>
 6    1  0.4187588E-002  0.1344245E+03  0.7546771E-02  0.1221034E+00
         21   -1    0    0  503  502  0.00000000000E+00  0.00000000000E+00  0.87910295517E+03  0.87910295517E+03  0.00000000000E+00 0. -1.
         21   -1    0    0  504  503 -0.00000000000E+00 -0.00000000000E+00 -0.32878456693E+03  0.32878456693E+03  0.00000000000E+00 0.  1.
         25    2    1    2    0    0  0.12790997671E+02 -0.47762484312E+02 -0.31430868882E+03  0.34184777306E+03  0.12500033419E+03 0.  0.
          5    1    3    3  501    0  0.13431352186E+01 -0.24769291694E+02  0.16368836598E+01  0.24859831281E+02  0.10000000000E+00 0. -1.
         -5    1    3    3    0  501  0.11447862452E+02 -0.22993192618E+02 -0.31594557248E+03  0.31698794177E+03  0.10000000000E+00 0. -1.
         21    1    1    2  504  502 -0.12790997671E+02  0.47762484312E+02  0.86462707706E+03  0.86603974904E+03  0.00000000000E+00 0. -1.
<mgrwt>
<rscale>  1 0.13442451E+03</rscale>
<asrwt>0</asrwt>
<pdfrwt beam="1">  1       21 0.13524661E+00 0.13442451E+03</pdfrwt>
<pdfrwt beam="2">  1       21 0.50582241E-01 0.13442451E+03</pdfrwt>
<totfact> 0.15519424E+03</totfact>
</mgrwt>
</event>
<event>
 6    1  0.4187588E-002  0.1261739E+03  0.7546771E-02  0.1233246E+00
         21   -1    0    0  503  502  0.00000000000E+00  0.00000000000E+00  0.67927978909E+03  0.67927978909E+03  0.00000000000E+00 0. -1.
         21   -1    0    0  504  503 -0.00000000000E+00 -0.00000000000E+00 -0.90838418282E+01  0.90838418282E+01  0.00000000000E+00 0. -1.
         25    2    1    2    0    0  0.11044118680E+01  0.17214127765E+02  0.44596602072E+03  0.46347119913E+03  0.12498925899E+03 0.  0.
          5    1    3    3  501    0  0.40485804614E+02 -0.12918225471E+02  0.55664483819E+02  0.70032318849E+02  0.10000000000E+00 0.  1.
         -5    1    3    3    0  501 -0.39381392747E+02  0.30132353236E+02  0.39030153690E+03  0.39343888028E+03  0.10000000000E+00 0.  1.
         21    1    1    2  504  502 -0.11044118680E+01 -0.17214127765E+02  0.22422992654E+03  0.22489243179E+03  0.00000000000E+00 0. -1.
<mgrwt>
<rscale>  1 0.12617393E+03</rscale>
<asrwt>0</asrwt>
<pdfrwt beam="1">  1       21 0.10450454E+00 0.12617393E+03</pdfrwt>
<pdfrwt beam="2">  1       21 0.13975147E-02 0.12617393E+03</pdfrwt>
<totfact> 0.16266079E+06</totfact>
</mgrwt>
</event>
<event>
 6    1  0.4187588E-002  0.1270426E+03  0.7546771E-02  0.1231911E+00
         21   -1    0    0  504  502  0.00000000000E+00  0.00000000000E+00  0.38832786089E+03  0.38832786089E+03  0.00000000000E+00 0.  1.
         21   -1    0    0  502  503 -0.00000000000E+00 -0.00000000000E+00 -0.95302037709E+02  0.95302037709E+02  0.00000000000E+00 0.  1.
         25    2    1    2    0    0 -0.34973600473E+01 -0.22417847754E+02 -0.52425330405E+02  0.13743444666E+03  0.12500008175E+03 0.  0.
          5    1    3    3  501    0  0.30159266816E+02  0.11786084511E+02 -0.76992803415E+02  0.83524816316E+02  0.10000000000E+00 0. -1.
         -5    1    3    3    0  501 -0.33656626864E+02 -0.34203932265E+02  0.24567473009E+02  0.53909630348E+02  0.10000000000E+00 0. -1.
         21    1    1    2  504  503  0.34973600473E+01  0.22417847754E+02  0.34545115359E+03  0.34619545193E+03  0.00000000000E+00 0.  1.
<mgrwt>
<rscale>  1 0.12704256E+03</rscale>
<asrwt>0</asrwt>
<pdfrwt beam="1">  1       21 0.59742747E-01 0.12704256E+03</pdfrwt>
<pdfrwt beam="2">  1       21 0.14661852E-01 0.12704256E+03</pdfrwt>
<totfact> 0.10963063E+05</totfact>
</mgrwt>
</event>
<event>
 6    1  0.4187588E-002  0.1369436E+03  0.7546771E-02  0.1217502E+00
         21   -1    0    0  504  502  0.00000000000E+00  0.00000000000E+00  0.89866025173E+02  0.89866025173E+02  0.00000000000E+00 0.  1.
         21   -1    0    0  502  503 -0.00000000000E+00 -0.00000000000E+00 -0.11603361968E+03  0.11603361968E+03  0.00000000000E+00 0.  1.
         25    2    1    2    0    0 -0.17658756359E+02 -0.53083551053E+02 -0.49041980415E+02  0.14546014949E+03  0.12499537663E+03 0.  0.
          5    1    3    3  501    0 -0.70162843828E+02 -0.18056432800E+02 -0.36446166814E+02  0.81099892077E+02  0.10000000000E+00 0. -1.
         -5    1    3    3    0  501  0.52504087469E+02 -0.35027118253E+02 -0.12595813601E+02  0.64360257413E+02  0.10000000000E+00 0. -1.
         21    1    1    2  504  503  0.17658756359E+02  0.53083551053E+02  0.22874385910E+02  0.60439495360E+02  0.00000000000E+00 0.  1.
<mgrwt>
<rscale>  1 0.13694356E+03</rscale>
<asrwt>0</asrwt>
<pdfrwt beam="1">  1       21 0.13825542E-01 0.13694356E+03</pdfrwt>
<pdfrwt beam="2">  1       21 0.17851326E-01 0.13694356E+03</pdfrwt>
<totfact> 0.12956875E+06</totfact>
</mgrwt>
</event>
<event>
 6    1  0.4187588E-002  0.1261068E+03  0.7546771E-02  0.1233350E+00
         21   -1    0    0  504  502  0.00000000000E+00  0.00000000000E+00  0.19160362794E+02  0.19160362794E+02  0.00000000000E+00 0.  1.
         21   -1    0    0  502  503 -0.00000000000E+00 -0.00000000000E+00 -0.26665398192E+03  0.26665398192E+03  0.00000000000E+00 0.  1.
         25    2    1    2    0    0  0.16174543419E+02 -0.42193730503E+01 -0.22233914131E+03  0.25561224681E+03  0.12499403184E+03 0.  0.
          5    1    3    3  501    0 -0.53240043146E+02 -0.15784259859E+02 -0.90879574241E+02  0.10650235710E+03  0.10000000000E+00 0.  1.
         -5    1    3    3    0  501  0.69414586565E+02  0.11564886808E+02 -0.13145956707E+03  0.14910988971E+03  0.10000000000E+00 0.  1.
         21    1    1    2  504  503 -0.16174543419E+02  0.42193730503E+01 -0.25154477815E+02  0.30202097906E+02  0.00000000000E+00 0. -1.
<mgrwt>
<rscale>  1 0.12610681E+03</rscale>
<asrwt>0</asrwt>
<pdfrwt beam="1">  1       21 0.29477480E-02 0.12610681E+03</pdfrwt>
<pdfrwt beam="2">  1       21 0.41023692E-01 0.12610681E+03</pdfrwt>
<totfact> 0.36857410E+06</totfact>
</mgrwt>
</event>
<event>
 6    1  0.4187588E-002  0.1901707E+03  0.7546771E-02  0.1158307E+00
         21   -1    0    0  503  502  0.00000000000E+00  0.00000000000E+00  0.20866999135E+03  0.20866999135E+03  0.00000000000E+00 0.  1.
         21   -1    0    0  504  503 -0.00000000000E+00 -0.00000000000E+00 -0.90651148731E+03  0.90651148731E+03  0.00000000000E+00 0. -1.
         25    2    1    2    0    0  0.11423540615E+03  0.86544947325E+02 -0.87036339309E+03  0.89089692521E+03  0.12500055753E+03 0.  0.
          5    1    3    3  501    0  0.21272338093E+01 -0.25580222153E+02 -0.61539707228E+02  0.66678470699E+02  0.10000000000E+00 0. -1.
         -5    1    3    3    0  501  0.11210817234E+03  0.11212516948E+03 -0.80882368587E+03  0.82421845451E+03  0.10000000000E+00 0. -1.
         21    1    1    2  504  502 -0.11423540615E+03 -0.86544947325E+02  0.17252189714E+03  0.22428455345E+03  0.00000000000E+00 0.  1.
<mgrwt>
<rscale>  1 0.19017070E+03</rscale>
<asrwt>0</asrwt>
<pdfrwt beam="1">  1       21 0.32103075E-01 0.19017070E+03</pdfrwt>
<pdfrwt beam="2">  1       21 0.13946331E+00 0.19017070E+03</pdfrwt>
<totfact> 0.33804604E+03</totfact>
</mgrwt>
</event>
<event>
 6    1  0.4187588E-002  0.1281837E+03  0.7546771E-02  0.1230176E+00
         21   -1    0    0  503  502  0.00000000000E+00  0.00000000000E+00  0.58725183668E+03  0.58725183668E+03  0.00000000000E+00 0. -1.
         21   -1    0    0  504  503 -0.00000000000E+00 -0.00000000000E+00 -0.13521562600E+02  0.13521562600E+02  0.00000000000E+00 0. -1.
         25    2    1    2    0    0  0.27918777273E+00  0.28346418055E+02  0.30904134841E+03  0.33457079836E+03  0.12500986652E+03 0.  0.
          5    1    3    3  501    0  0.26730475258E+02 -0.25382438411E+02  0.24152410380E+03  0.24432087345E+03  0.10000000000E+00 0. -1.
         -5    1    3    3    0  501 -0.26451287485E+02  0.53728856466E+02  0.67517244603E+02  0.90249924906E+02  0.10000000000E+00 0. -1.
         21    1    1    2  504  502 -0.27918777273E+00 -0.28346418055E+02  0.26468892568E+03  0.26620260092E+03  0.00000000000E+00 0. -1.
<mgrwt>
<rscale>  1 0.12818371E+03</rscale>
<asrwt>0</asrwt>
<pdfrwt beam="1">  1       21 0.90346417E-01 0.12818371E+03</pdfrwt>
<pdfrwt beam="2">  1       21 0.20802409E-02 0.12818371E+03</pdfrwt>
<totfact> 0.12058469E+06</totfact>
</mgrwt>
</event>
<event>
 6    1  0.4187588E-002  0.1284465E+03  0.7546771E-02  0.1229779E+00
         21   -1    0    0  504  502  0.00000000000E+00  0.00000000000E+00  0.52726595370E+02  0.52726595370E+02  0.00000000000E+00 0.  1.
         21   -1    0    0  502  503 -0.00000000000E+00 -0.00000000000E+00 -0.14432008227E+03  0.14432008227E+03  0.00000000000E+00 0.  1.
         25    2    1    2    0    0  0.11790220489E+01  0.29590747787E+02 -0.10367118336E+03  0.16506428875E+03  0.12498601007E+03 0.  0.
          5    1    3    3  501    0  0.28253594513E+01  0.19961782511E+02 -0.13280995017E+03  0.13433148656E+03  0.10000000000E+00 0. -1.
         -5    1    3    3    0  501 -0.16463374024E+01  0.96289652763E+01  0.29138766811E+02  0.30732802189E+02  0.10000000000E+00 0. -1.
         21    1    1    2  504  503 -0.11790220489E+01 -0.29590747787E+02  0.12077696458E+02  0.31982388893E+02  0.00000000000E+00 0.  1.
<mgrwt>
<rscale>  1 0.12844651E+03</rscale>
<asrwt>0</asrwt>
<pdfrwt beam="1">  1       21 0.81117840E-02 0.12844651E+03</pdfrwt>
<pdfrwt beam="2">  1       21 0.22203089E-01 0.12844651E+03</pdfrwt>
<totfact> 0.22068863E+06</totfact>
</mgrwt>
</event>
<event>
 6    1  0.4187588E-002  0.1262938E+03  0.7546771E-02  0.1233061E+00
         21   -1    0    0  503  502  0.00000000000E+00  0.00000000000E+00  0.17731731575E+04  0.17731731575E+04  0.00000000000E+00 0. -1.
         21   -1    0    0  504  503 -0.00000000000E+00 -0.00000000000E+00 -0.41909319412E+01  0.41909319412E+01  0.00000000000E+00 0. -1.
         25    2    1    2    0    0 -0.79923950162E+01  0.16170470507E+02  0.97109604870E+03  0.97927404833E+03  0.12499905376E+03 0.  0.
          5    1    3    3  501    0 -0.88911214552E+01  0.70749575327E+02  0.58827188897E+03  0.59257774157E+03  0.10000000000E+00 0.  1.
         -5    1    3    3    0  501  0.89872643900E+00 -0.54579104820E+02  0.38282415972E+03  0.38669630676E+03  0.10000000000E+00 0.  1.
         21    1    1    2  504  502  0.79923950162E+01 -0.16170470507E+02  0.79788617686E+03  0.79809004111E+03  0.00000000000E+00 0. -1.
<mgrwt>
<rscale>  1 0.12629381E+03</rscale>
<asrwt>0</asrwt>
<pdfrwt beam="1">  1       21 0.27279527E+00 0.12629381E+03</pdfrwt>
<pdfrwt beam="2">  1       21 0.64476017E-03 0.12629381E+03</pdfrwt>
<totfact> 0.38404607E+05</totfact>
</mgrwt>
</event>
<event>
 6    1  0.4187588E-002  0.1328825E+03  0.7546771E-02  0.1223240E+00
         21   -1    0    0  503  502  0.00000000000E+00  0.00000000000E+00  0.45660313372E+02  0.45660313372E+02  0.00000000000E+00 0.  1.
         21   -1    0    0  504  503 -0.00000000000E+00 -0.00000000000E+00 -0.19129765192E+03  0.19129765192E+03  0.00000000000E+00 0.  1.
         25    2    1    2    0    0  0.99611949332E+01 -0.43898785142E+02 -0.73301125045E+02  0.15175904203E+03  0.12502569001E+03 0.  0.
          5    1    3    3  501    0  0.22754514158E+02 -0.38171809783E+02 -0.10667486289E+03  0.11556120175E+03  0.10000000000E+00 0. -1.
         -5    1    3    3    0  501 -0.12793319225E+02 -0.57269753588E+01  0.33373737843E+02  0.36197840283E+02  0.10000000000E+00 0. -1.
         21    1    1    2  504  502 -0.99611949332E+01  0.43898785142E+02 -0.72336213504E+02  0.85198923265E+02  0.00000000000E+00 0.  1.
<mgrwt>
<rscale>  1 0.13288247E+03</rscale>
<asrwt>0</asrwt>
<pdfrwt beam="1">  1       21 0.70246635E-02 0.13288247E+03</pdfrwt>
<pdfrwt beam="2">  1       21 0.29430408E-01 0.13288247E+03</pdfrwt>
<totfact> 0.16580145E+06</totfact>
</mgrwt>
</event>
<event>
 6    1  0.4187588E-002  0.1269125E+03  0.7546771E-02  0.1232110E+00
         21   -1    0    0  504  502  0.00000000000E+00  0.00000000000E+00  0.38090059013E+03  0.38090059013E+03  0.00000000000E+00 0. -1.
         21   -1    0    0  502  503 -0.00000000000E+00 -0.00000000000E+00 -0.15685132430E+02  0.15685132430E+02  0.00000000000E+00 0. -1.
         25    2    1    2    0    0  0.85602791720E+01 -0.20202536802E+02  0.26271966098E+03  0.29176774119E+03  0.12500149464E+03 0.  0.
          5    1    3    3  501    0  0.42540304486E+02  0.39592716903E+02  0.12305497250E+03  0.13608746083E+03  0.10000000000E+00 0.  1.
         -5    1    3    3    0  501 -0.33980025314E+02 -0.59795253705E+02  0.13966468847E+03  0.15568028036E+03  0.10000000000E+00 0.  1.
         21    1    1    2  504  503 -0.85602791720E+01  0.20202536802E+02  0.10249579672E+03  0.10481798137E+03  0.00000000000E+00 0. -1.
<mgrwt>
<rscale>  1 0.12691255E+03</rscale>
<asrwt>0</asrwt>
<pdfrwt beam="1">  1       21 0.58600084E-01 0.12691255E+03</pdfrwt>
<pdfrwt beam="2">  1       21 0.24130976E-02 0.12691255E+03</pdfrwt>
<totfact> 0.24536575E+06</totfact>
</mgrwt>
</event>
<event>
 6    1  0.4187588E-002  0.1313698E+03  0.7546771E-02  0.1225437E+00
         21   -1    0    0  503  502  0.00000000000E+00  0.00000000000E+00  0.22515527961E+02  0.22515527961E+02  0.00000000000E+00 0. -1.
         21   -1    0    0  504  503 -0.00000000000E+00 -0.00000000000E+00 -0.37457252613E+03  0.37457252613E+03  0.00000000000E+00 0. -1.
         25    2    1    2    0    0 -0.20893255039E+02  0.34589972978E+02 -0.31861239883E+03  0.34463297272E+03  0.12500012345E+03 0.  0.
          5    1    3    3  501    0 -0.49098387318E+02  0.64162368601E+02 -0.26608740894E+03  0.27808268622E+03  0.10000000000E+00 0.  1.
         -5    1    3    3    0  501  0.28205132280E+02 -0.29572395623E+02 -0.52524989891E+02  0.66550286497E+02  0.10000000000E+00 0.  1.
         21    1    1    2  504  502  0.20893255039E+02 -0.34589972978E+02 -0.33444599348E+02  0.52455081377E+02  0.00000000000E+00 0. -1.
<mgrwt>
<rscale>  1 0.13136980E+03</rscale>
<asrwt>0</asrwt>
<pdfrwt beam="1">  1       21 0.34639275E-02 0.13136980E+03</pdfrwt>
<pdfrwt beam="2">  1       21 0.57626540E-01 0.13136980E+03</pdfrwt>
<totfact> 0.14073651E+06</totfact>
</mgrwt>
</event>
<event>
 6    1  0.4187588E-002  0.1271112E+03  0.7546771E-02  0.1231806E+00
         21   -1    0    0  504  502  0.00000000000E+00  0.00000000000E+00  0.15835637405E+03  0.15835637405E+03  0.00000000000E+00 0. -1.
         21   -1    0    0  502  503 -0.00000000000E+00 -0.00000000000E+00 -0.36384007611E+02  0.36384007611E+02  0.00000000000E+00 0. -1.
         25    2    1    2    0    0  0.11749986674E+02  0.19839442590E+02  0.11273422758E+03  0.16990071824E+03  0.12500232927E+03 0.  0.
          5    1    3    3  501    0 -0.37763965039E+01 -0.13087126959E+02  0.12922145858E+03  0.12993740578E+03  0.10000000000E+00 0. -1.
         -5    1    3    3    0  501  0.15526383178E+02  0.32926569549E+02 -0.16487231004E+02  0.39963312463E+02  0.10000000000E+00 0. -1.
         21    1    1    2  504  503 -0.11749986674E+02 -0.19839442590E+02  0.92381388584E+01  0.24839663418E+02  0.00000000000E+00 0. -1.
<mgrwt>
<rscale>  1 0.12711116E+03</rscale>
<asrwt>0</asrwt>
<pdfrwt beam="1">  1       21 0.24362519E-01 0.12711116E+03</pdfrwt>
<pdfrwt beam="2">  1       21 0.55975397E-02 0.12711116E+03</pdfrwt>
<totfact> 0.34912998E+06</totfact>
</mgrwt>
</event>
<event>
 6    1  0.4187588E-002  0.1323429E+03  0.7546771E-02  0.1224020E+00
         21   -1    0    0  504  502  0.00000000000E+00  0.00000000000E+00  0.24702595767E+03  0.24702595767E+03  0.00000000000E+00 0.  1.
         21   -1    0    0  502  503 -0.00000000000E+00 -0.00000000000E+00 -0.10555906388E+03  0.10555906388E+03  0.00000000000E+00 0.  1.
         25    2    1    2    0    0  0.40485373918E+02  0.15810546629E+02 -0.60843169676E+02  0.14565894619E+03  0.12500239367E+03 0.  0.
          5    1    3    3  501    0  0.54772079098E+02 -0.16363645183E+02  0.17489000689E+02  0.59779801585E+02  0.10000000000E+00 0. -1.
         -5    1    3    3    0  501 -0.14286705180E+02  0.32174191811E+02 -0.78332170364E+02  0.85879144602E+02  0.10000000000E+00 0. -1.
         21    1    1    2  504  503 -0.40485373918E+02 -0.15810546629E+02  0.20231006347E+03  0.20692607536E+03  0.00000000000E+00 0.  1.
<mgrwt>
<rscale>  1 0.13234288E+03</rscale>
<asrwt>0</asrwt>
<pdfrwt beam="1">  1       21 0.38003993E-01 0.13234288E+03</pdfrwt>
<pdfrwt beam="2">  1       21 0.16239856E-01 0.13234288E+03</pdfrwt>
<totfact> 0.23005581E+05</totfact>
</mgrwt>
</event>
<event>
 6    1  0.4187588E-002  0.1277250E+03  0.7546771E-02  0.1230871E+00
         21   -1    0    0  503  502  0.00000000000E+00  0.00000000000E+00  0.79743797619E+02  0.79743797619E+02  0.00000000000E+00 0. -1.
         21   -1    0    0  504  503 -0.00000000000E+00 -0.00000000000E+00 -0.40732750885E+03  0.40732750885E+03  0.00000000000E+00 0.  1.
         25    2    1    2    0    0 -0.22720398406E+02 -0.13184063235E+02 -0.39477755928E+03  0.41492527926E+03  0.12499452002E+03 0.  0.
          5    1    3    3  501    0  0.45123192202E+02  0.16323829658E+02 -0.21931556853E+03  0.22450367143E+03  0.10000000000E+00 0.  1.
         -5    1    3    3    0  501 -0.67843590608E+02 -0.29507892894E+02 -0.17546199075E+03  0.19042160783E+03  0.10000000000E+00 0.  1.
         21    1    1    2  504  502  0.22720398406E+02  0.13184063235E+02  0.67193848044E+02  0.72146027209E+02  0.00000000000E+00 0. -1.
<mgrwt>
<rscale>  1 0.12772496E+03</rscale>
<asrwt>0</asrwt>
<pdfrwt beam="1">  1       21 0.12268277E-01 0.12772496E+03</pdfrwt>
<pdfrwt beam="2">  1       21 0.62665770E-01 0.12772496E+03</pdfrwt>
<totfact> 0.13611369E+05</totfact>
</mgrwt>
</event>
<event>
 6    1  0.4187588E-002  0.1486103E+03  0.7546771E-02  0.1202191E+00
         21   -1    0    0  503  502  0.00000000000E+00  0.00000000000E+00  0.68969738941E+02  0.68969738941E+02  0.00000000000E+00 0. -1.
         21   -1    0    0  504  503 -0.00000000000E+00 -0.00000000000E+00 -0.31350270107E+03  0.31350270107E+03  0.00000000000E+00 0. -1.
         25    2    1    2    0    0  0.66582589644E+02  0.45028977260E+02 -0.26107512999E+03  0.30040848108E+03  0.12499672785E+03 0.  0.
          5    1    3    3  501    0  0.66857769786E+02  0.82457743132E+02 -0.22320004251E+03  0.24715887554E+03  0.10000000000E+00 0. -1.
         -5    1    3    3    0  501 -0.27518014267E+00 -0.37428765872E+02 -0.37875087481E+02  0.53249605543E+02  0.10000000000E+00 0. -1.
         21    1    1    2  504  502 -0.66582589644E+02 -0.45028977260E+02  0.16542167863E+02  0.82063958925E+02  0.00000000000E+00 0. -1.
<mgrwt>
<rscale>  1 0.14861034E+03</rscale>
<asrwt>0</asrwt>
<pdfrwt beam="1">  1       21 0.10610729E-01 0.14861034E+03</pdfrwt>
<pdfrwt beam="2">  1       21 0.48231185E-01 0.14861034E+03</pdfrwt>
<totfact> 0.30304789E+05</totfact>
</mgrwt>
</event>
<event>
 6    1  0.4187588E-002  0.1298642E+03  0.7546771E-02  0.1227657E+00
         21   -1    0    0  503  502  0.00000000000E+00  0.00000000000E+00  0.20821220466E+03  0.20821220466E+03  0.00000000000E+00 0.  1.
         21   -1    0    0  504  503 -0.00000000000E+00 -0.00000000000E+00 -0.11352940424E+03  0.11352940424E+03  0.00000000000E+00 0.  1.
         25    2    1    2    0    0 -0.34580922582E+02 -0.66680477333E+01 -0.73968473505E+02  0.14945244713E+03  0.12499758323E+03 0.  0.
          5    1    3    3  501    0 -0.77645057451E+02 -0.24417706445E+02 -0.34513059046E+02  0.88408939476E+02  0.10000000000E+00 0. -1.
         -5    1    3    3    0  501  0.43064134870E+02  0.17749658711E+02 -0.39455414459E+02  0.61043507653E+02  0.10000000000E+00 0. -1.
         21    1    1    2  504  502  0.34580922582E+02  0.66680477333E+01  0.16865127393E+03  0.17228916177E+03  0.00000000000E+00 0.  1.
<mgrwt>
<rscale>  1 0.12986416E+03</rscale>
<asrwt>0</asrwt>
<pdfrwt beam="1">  1       21 0.32032647E-01 0.12986416E+03</pdfrwt>
<pdfrwt beam="2">  1       21 0.17466062E-01 0.12986416E+03</pdfrwt>
<totfact> 0.28206008E+05</totfact>
</mgrwt>
</event>
<event>
 6    1  0.4187588E-002  0.1549793E+03  0.7546771E-02  0.1194485E+00
         21   -1    0    0  503  502  0.00000000000E+00  0.00000000000E+00  0.15872287575E+03  0.15872287575E+03  0.00000000000E+00 0.  1.
         21   -1    0    0  504  503 -0.00000000000E+00 -0.00000000000E+00 -0.41314445605E+03  0.41314445605E+03  0.00000000000E+00 0.  1.
         25    2    1    2    0    0  0.39975818110E+02  0.82435932273E+02 -0.38347037721E+03  0.41360381437E+03  0.12499934442E+03 0.  0.
          5    1    3    3  501    0 -0.43630883204E+01 -0.26734395437E+02 -0.14617591324E+03  0.14866462945E+03  0.10000000000E+00 0. -1.
         -5    1    3    3    0  501  0.44338906430E+02  0.10917032771E+03 -0.23729446397E+03  0.26493918492E+03  0.10000000000E+00 0. -1.
         21    1    1    2  504  502 -0.39975818110E+02 -0.82435932273E+02  0.12904879692E+03  0.15826351743E+03  0.00000000000E+00 0.  1.
<mgrwt>
<rscale>  1 0.15497931E+03</rscale>
<asrwt>0</asrwt>
<pdfrwt beam="1">  1       21 0.24418904E-01 0.15497931E+03</pdfrwt>
<pdfrwt beam="2">  1       21 0.63560686E-01 0.15497931E+03</pdfrwt>
<totfact> 0.36991583E+04</totfact>
</mgrwt>
</event>
<event>
 6    1  0.4187588E-002  0.1284522E+03  0.7546771E-02  0.1229771E+00
         21   -1    0    0  503  502  0.00000000000E+00  0.00000000000E+00  0.19573102327E+02  0.19573102327E+02  0.00000000000E+00 0. -1.
         21   -1    0    0  504  503 -0.00000000000E+00 -0.00000000000E+00 -0.31859119033E+03  0.31859119033E+03  0.00000000000E+00 0. -1.
         25    2    1    2    0    0  0.18752710054E+02 -0.22666214542E+02 -0.24697656491E+03  0.27838351363E+03  0.12503813669E+03 0.  0.
          5    1    3    3  501    0  0.54697523139E+02  0.19287085239E+02 -0.19150209652E+03  0.20009216293E+03  0.10000000000E+00 0.  1.
         -5    1    3    3    0  501 -0.35944813085E+02 -0.41953299781E+02 -0.55474468393E+02  0.78291350695E+02  0.10000000000E+00 0.  1.
         21    1    1    2  504  502 -0.18752710054E+02  0.22666214542E+02 -0.52041523087E+02  0.59780779029E+02  0.00000000000E+00 0. -1.
<mgrwt>
<rscale>  1 0.12845216E+03</rscale>
<asrwt>0</asrwt>
<pdfrwt beam="1">  1       21 0.30112468E-02 0.12845216E+03</pdfrwt>
<pdfrwt beam="2">  1       21 0.49014025E-01 0.12845216E+03</pdfrwt>
<totfact> 0.24814614E+06</totfact>
</mgrwt>
</event>
<event>
 6    1  0.4187588E-002  0.1278475E+03  0.7546771E-02  0.1230685E+00
         21   -1    0    0  504  502  0.00000000000E+00  0.00000000000E+00  0.43990215250E+02  0.43990215250E+02  0.00000000000E+00 0.  1.
         21   -1    0    0  502  503 -0.00000000000E+00 -0.00000000000E+00 -0.16146587272E+03  0.16146587272E+03  0.00000000000E+00 0.  1.
         25    2    1    2    0    0 -0.20089908196E+02  0.17829675155E+02 -0.12368747437E+03  0.17788638727E+03  0.12499389478E+03 0.  0.
          5    1    3    3  501    0  0.41596779834E+02 -0.25692886832E+00 -0.10181297399E+03  0.10998295221E+03  0.10000000000E+00 0.  1.
         -5    1    3    3    0  501 -0.61686688030E+02  0.18086604023E+02 -0.21874500383E+02  0.67903435054E+02  0.10000000000E+00 0.  1.
         21    1    1    2  504  503  0.20089908196E+02 -0.17829675155E+02  0.62118169043E+01  0.27569700700E+02  0.00000000000E+00 0.  1.
<mgrwt>
<rscale>  1 0.12784747E+03</rscale>
<asrwt>0</asrwt>
<pdfrwt beam="1">  1       21 0.67677255E-02 0.12784747E+03</pdfrwt>
<pdfrwt beam="2">  1       21 0.24840903E-01 0.12784747E+03</pdfrwt>
<totfact> 0.24388619E+06</totfact>
</mgrwt>
</event>
<event>
 6    1  0.4187588E-002  0.1291648E+03  0.7546771E-02  0.1228700E+00
         21   -1    0    0  503  502  0.00000000000E+00  0.00000000000E+00  0.14724226262E+03  0.14724226262E+03  0.00000000000E+00 0. -1.
         21   -1    0    0  504  503 -0.00000000000E+00 -0.00000000000E+00 -0.44431732200E+02  0.44431732200E+02  0.00000000000E+00 0. -1.
         25    2    1    2    0    0  0.31231945633E+02  0.92471608549E+01  0.83601462417E+02  0.15385954380E+03  0.12499044079E+03 0.  0.
          5    1    3    3  501    0  0.28091461831E+01  0.60374505313E+02  0.12380236782E+02  0.61694833308E+02  0.10000000000E+00 0.  1.
         -5    1    3    3    0  501  0.28422799450E+02 -0.51127344459E+02  0.71221225635E+02  0.92164710497E+02  0.10000000000E+00 0.  1.
         21    1    1    2  504  502 -0.31231945633E+02 -0.92471608549E+01  0.19209067997E+02  0.37814451011E+02  0.00000000000E+00 0. -1.
<mgrwt>
<rscale>  1 0.12916484E+03</rscale>
<asrwt>0</asrwt>
<pdfrwt beam="1">  1       21 0.22652656E-01 0.12916484E+03</pdfrwt>
<pdfrwt beam="2">  1       21 0.68356512E-02 0.12916484E+03</pdfrwt>
<totfact> 0.28523799E+06</totfact>
</mgrwt>
</event>
<event>
 6    1  0.4187588E-002  0.1290969E+03  0.7546771E-02  0.1228802E+00
         21   -1    0    0  503  502  0.00000000000E+00  0.00000000000E+00  0.62126704111E+03  0.62126704111E+03  0.00000000000E+00 0. -1.
         21   -1    0    0  504  503 -0.00000000000E+00 -0.00000000000E+00 -0.30890731284E+02  0.30890731284E+02  0.00000000000E+00 0.  1.
         25    2    1    2    0    0  0.17445060989E+02  0.27094274576E+02  0.10690773322E+03  0.16761644863E+03  0.12501032182E+03 0.  0.
          5    1    3    3  501    0 -0.50133923229E+02  0.12276409238E+02  0.17360929142E+02  0.54456701542E+02  0.10000000000E+00 0.  1.
         -5    1    3    3    0  501  0.67578984218E+02  0.14817865338E+02  0.89546804078E+02  0.11315974709E+03  0.10000000000E+00 0.  1.
         21    1    1    2  504  502 -0.17445060989E+02 -0.27094274576E+02  0.48346857660E+03  0.48454132376E+03  0.00000000000E+00 0. -1.
<mgrwt>
<rscale>  1 0.12909690E+03</rscale>
<asrwt>0</asrwt>
<pdfrwt beam="1">  1       21 0.95579535E-01 0.12909690E+03</pdfrwt>
<pdfrwt beam="2">  1       21 0.47524207E-02 0.12909690E+03</pdfrwt>
<totfact> 0.27234289E+05</totfact>
</mgrwt>
</event>
<event>
 6    1  0.4187588E-002  0.1269465E+03  0.7546771E-02  0.1232058E+00
         21   -1    0    0  504  502  0.00000000000E+00  0.00000000000E+00  0.52152655721E+03  0.52152655721E+03  0.00000000000E+00 0. -1.
         21   -1    0    0  502  503 -0.00000000000E+00 -0.00000000000E+00 -0.74532653378E+02  0.74532653378E+02  0.00000000000E+00 0.  1.
         25    2    1    2    0    0 -0.21168264497E+02  0.65361109977E+01 -0.20024104179E+02  0.12851601903E+03  0.12499834491E+03 0.  0.
          5    1    3    3  501    0  0.54971285879E+01 -0.12899870387E+02 -0.68474992782E+02  0.69896063660E+02  0.10000000000E+00 0. -1.
         -5    1    3    3    0  501 -0.26665393085E+02  0.19435981385E+02  0.48450888603E+02  0.58619955367E+02  0.10000000000E+00 0. -1.
         21    1    1    2  504  503  0.21168264497E+02 -0.65361109977E+01  0.46701800801E+03  0.46754319157E+03  0.00000000000E+00 0. -1.
<mgrwt>
<rscale>  1 0.12694645E+03</rscale>
<asrwt>0</asrwt>
<pdfrwt beam="1">  1       21 0.80234853E-01 0.12694645E+03</pdfrwt>
<pdfrwt beam="2">  1       21 0.11466562E-01 0.12694645E+03</pdfrwt>
<totfact> 0.89420467E+04</totfact>
</mgrwt>
</event>
<event>
 6    1  0.4187588E-002  0.1270343E+03  0.7546771E-02  0.1231924E+00
         21   -1    0    0  504  502  0.00000000000E+00  0.00000000000E+00  0.17803269550E+03  0.17803269550E+03  0.00000000000E+00 0.  1.
         21   -1    0    0  502  503 -0.00000000000E+00 -0.00000000000E+00 -0.80687072980E+02  0.80687072980E+02  0.00000000000E+00 0. -1.
         25    2    1    2    0    0 -0.21955228355E+02 -0.55072078132E+01 -0.29049842832E+02  0.13031347949E+03  0.12500139271E+03 0.  0.
          5    1    3    3  501    0 -0.58876115656E+02  0.34159341655E+02  0.15397235798E+01  0.68085522438E+02  0.10000000000E+00 0. -1.
         -5    1    3    3    0  501  0.36920887300E+02 -0.39666549469E+02 -0.30589566412E+02  0.62227957054E+02  0.10000000000E+00 0. -1.
         21    1    1    2  504  503  0.21955228355E+02  0.55072078132E+01  0.12639546535E+03  0.12840628899E+03  0.00000000000E+00 0.  1.
<mgrwt>
<rscale>  1 0.12703429E+03</rscale>
<asrwt>0</asrwt>
<pdfrwt beam="1">  1       21 0.27389645E-01 0.12703429E+03</pdfrwt>
<pdfrwt beam="2">  1       21 0.12413396E-01 0.12703429E+03</pdfrwt>
<totfact> 0.70534214E+05</totfact>
</mgrwt>
</event>
<event>
 6    1  0.4187588E-002  0.1260400E+03  0.7546771E-02  0.1233453E+00
         21   -1    0    0  504  502  0.00000000000E+00  0.00000000000E+00  0.11841601227E+02  0.11841601227E+02  0.00000000000E+00 0.  1.
         21   -1    0    0  502  503 -0.00000000000E+00 -0.00000000000E+00 -0.43715971959E+03  0.43715971959E+03  0.00000000000E+00 0.  1.
         25    2    1    2    0    0  0.13165194610E+02 -0.93817043605E+01 -0.39529360982E+03  0.41490132317E+03  0.12499892513E+03 0.  0.
          5    1    3    3  501    0  0.53157351778E+02  0.30074928214E+02 -0.28082094948E+03  0.28738583998E+03  0.10000000000E+00 0.  1.
         -5    1    3    3    0  501 -0.39992157168E+02 -0.39456632575E+02 -0.11447266033E+03  0.12751548319E+03  0.10000000000E+00 0.  1.
         21    1    1    2  504  503 -0.13165194610E+02  0.93817043605E+01 -0.30024508542E+02  0.34099997640E+02  0.00000000000E+00 0.  1.
<mgrwt>
<rscale>  1 0.12603995E+03</rscale>
<asrwt>0</asrwt>
<pdfrwt beam="1">  1       21 0.18217851E-02 0.12603995E+03</pdfrwt>
<pdfrwt beam="2">  1       21 0.67255329E-01 0.12603995E+03</pdfrwt>
<totfact> 0.28775091E+06</totfact>
</mgrwt>
</event>
<event>
 6    1  0.4187588E-002  0.1264343E+03  0.7546771E-02  0.1232845E+00
         21   -1    0    0  504  502  0.00000000000E+00  0.00000000000E+00  0.71740235113E+01  0.71740235113E+01  0.00000000000E+00 0.  1.
         21   -1    0    0  502  503 -0.00000000000E+00 -0.00000000000E+00 -0.10937600174E+04  0.10937600174E+04  0.00000000000E+00 0.  1.
         25    2    1    2    0    0 -0.66889913960E+01 -0.17657779887E+02 -0.10640403341E+04  0.10715257670E+04  0.12501638721E+03 0.  0.
          5    1    3    3  501    0  0.45612349910E+02 -0.26146004923E+02 -0.23569671629E+03  0.24148923808E+03  0.10000000000E+00 0. -1.
         -5    1    3    3    0  501 -0.52301341306E+02  0.84882250360E+01 -0.82834361777E+03  0.83003652894E+03  0.10000000000E+00 0. -1.
         21    1    1    2  504  503  0.66889913960E+01  0.17657779887E+02 -0.22545659822E+02  0.29408273892E+02  0.00000000000E+00 0.  1.
<mgrwt>
<rscale>  1 0.12643432E+03</rscale>
<asrwt>0</asrwt>
<pdfrwt beam="1">  1       21 0.11036959E-02 0.12643432E+03</pdfrwt>
<pdfrwt beam="2">  1       21 0.16827077E+00 0.12643432E+03</pdfrwt>
<totfact> 0.71607266E+05</totfact>
</mgrwt>
</event>
<event>
 6    1  0.4187588E-002  0.1294344E+03  0.7546771E-02  0.1228297E+00
         21   -1    0    0  503  502  0.00000000000E+00  0.00000000000E+00  0.43263220102E+03  0.43263220102E+03  0.00000000000E+00 0. -1.
         21   -1    0    0  504  503 -0.00000000000E+00 -0.00000000000E+00 -0.15447443426E+02  0.15447443426E+02  0.00000000000E+00 0. -1.
         25    2    1    2    0    0 -0.32647597763E+02  0.77420280577E+01  0.31617491358E+03  0.34164284054E+03  0.12500979912E+03 0.  0.
          5    1    3    3  501    0 -0.24448619289E+02 -0.37668761551E+02  0.27842633743E+03  0.28202465487E+03  0.10000000000E+00 0.  1.
         -5    1    3    3    0  501 -0.81989784736E+01  0.45410789609E+02  0.37748576158E+02  0.59618185672E+02  0.10000000000E+00 0.  1.
         21    1    1    2  504  502  0.32647597763E+02 -0.77420280577E+01  0.10100984401E+03  0.10643680390E+03  0.00000000000E+00 0. -1.
<mgrwt>
<rscale>  1 0.12943436E+03</rscale>
<asrwt>0</asrwt>
<pdfrwt beam="1">  1       21 0.66558791E-01 0.12943436E+03</pdfrwt>
<pdfrwt beam="2">  1       21 0.23765301E-02 0.12943436E+03</pdfrwt>
<totfact> 0.19166951E+06</totfact>
</mgrwt>
</event>
<event>
 6    1  0.4187588E-002  0.1259729E+03  0.7546771E-02  0.1233557E+00
         21   -1    0    0  504  502  0.00000000000E+00  0.00000000000E+00  0.18749669555E+04  0.18749669555E+04  0.00000000000E+00 0. -1.
         21   -1    0    0  502  503 -0.00000000000E+00 -0.00000000000E+00 -0.32271258090E+01  0.32271258090E+01  0.00000000000E+00 0. -1.
         25    2    1    2    0    0 -0.46865886719E+01 -0.14899094837E+02  0.12657999668E+04  0.12720529554E+04  0.12500087248E+03 0.  0.
          5    1    3    3  501    0  0.38708605415E+02 -0.50098145462E+02  0.87382325611E+03  0.87611373304E+03  0.10000000000E+00 0.  1.
         -5    1    3    3    0  501 -0.43395194087E+02  0.35199050625E+02  0.39197671070E+03  0.39593922231E+03  0.10000000000E+00 0.  1.
         21    1    1    2  504  503  0.46865886719E+01  0.14899094837E+02  0.60593986288E+03  0.60614112594E+03  0.00000000000E+00 0. -1.
<mgrwt>
<rscale>  1 0.12597288E+03</rscale>
<asrwt>0</asrwt>
<pdfrwt beam="1">  1       21 0.28845558E+00 0.12597288E+03</pdfrwt>
<pdfrwt beam="2">  1       21 0.49648239E-03 0.12597288E+03</pdfrwt>
<totfact> 0.47023688E+05</totfact>
</mgrwt>
</event>
<event>
 6    1  0.4187588E-002  0.1282315E+03  0.7546771E-02  0.1230104E+00
         21   -1    0    0  503  502  0.00000000000E+00  0.00000000000E+00  0.66438247555E+01  0.66438247555E+01  0.00000000000E+00 0.  1.
         21   -1    0    0  504  503 -0.00000000000E+00 -0.00000000000E+00 -0.20717225396E+04  0.20717225396E+04  0.00000000000E+00 0.  1.
         25    2    1    2    0    0  0.19245630144E+02 -0.21138763820E+02 -0.20254360373E+04  0.20294911815E+04  0.12500429203E+03 0.  0.
          5    1    3    3  501    0  0.53129059130E+02 -0.12867453295E+02 -0.40417459810E+03  0.40785461139E+03  0.10000000000E+00 0.  1.
         -5    1    3    3    0  501 -0.33883428986E+02 -0.82713105253E+01 -0.16212614392E+04  0.16216365701E+04  0.10000000000E+00 0.  1.
         21    1    1    2  504  502 -0.19245630144E+02  0.21138763820E+02 -0.39642677565E+02  0.48875182864E+02  0.00000000000E+00 0.  1.
<mgrwt>
<rscale>  1 0.12823149E+03</rscale>
<asrwt>0</asrwt>
<pdfrwt beam="1">  1       21 0.10221269E-02 0.12823149E+03</pdfrwt>
<pdfrwt beam="2">  1       21 0.31872655E+00 0.12823149E+03</pdfrwt>
<totfact> 0.10284155E+05</totfact>
</mgrwt>
</event>
<event>
 6    1  0.4187588E-002  0.1417992E+03  0.7546771E-02  0.1210928E+00
         21   -1    0    0  504  502  0.00000000000E+00  0.00000000000E+00  0.87628667078E+01  0.87628667078E+01  0.00000000000E+00 0.  1.
         21   -1    0    0  502  503 -0.00000000000E+00 -0.00000000000E+00 -0.15285691596E+04  0.15285691596E+04  0.00000000000E+00 0.  1.
         25    2    1    2    0    0  0.61853837402E+02  0.25614411650E+02 -0.12958017440E+04  0.13035371735E+04  0.12500003038E+03 0.  0.
          5    1    3    3  501    0  0.33591954983E+02  0.19463022733E+01 -0.75268276949E+02  0.82447140927E+02  0.10000000000E+00 0. -1.
         -5    1    3    3    0  501  0.28261882418E+02  0.23668109377E+02 -0.12205334671E+04  0.12210900326E+04  0.10000000000E+00 0. -1.
         21    1    1    2  504  503 -0.61853837402E+02 -0.25614411650E+02 -0.22400454886E+03  0.23379485280E+03  0.00000000000E+00 0.  1.
<mgrwt>
<rscale>  1 0.14179916E+03</rscale>
<asrwt>0</asrwt>
<pdfrwt beam="1">  1       21 0.13481343E-02 0.14179916E+03</pdfrwt>
<pdfrwt beam="2">  1       21 0.23516432E+00 0.14179916E+03</pdfrwt>
<totfact> 0.19561753E+05</totfact>
</mgrwt>
</event>
<event>
 6    1  0.4187588E-002  0.1467754E+03  0.7546771E-02  0.1204492E+00
         21   -1    0    0  504  502  0.00000000000E+00  0.00000000000E+00  0.22276870999E+03  0.22276870999E+03  0.00000000000E+00 0.  1.
         21   -1    0    0  502  503 -0.00000000000E+00 -0.00000000000E+00 -0.70941761400E+02  0.70941761400E+02  0.00000000000E+00 0. -1.
         25    2    1    2    0    0  0.70464211888E+02  0.30870484158E+02  0.30283759572E+02  0.14986701917E+03  0.12499930157E+03 0.  0.
          5    1    3    3  501    0  0.43897886886E+02 -0.89656209361E+01 -0.43148475062E+02  0.62202955975E+02  0.10000000000E+00 0. -1.
         -5    1    3    3    0  501  0.26566325002E+02  0.39836105094E+02  0.73432234634E+02  0.87664063199E+02  0.10000000000E+00 0. -1.
         21    1    1    2  504  503 -0.70464211888E+02 -0.30870484158E+02  0.12154318902E+03  0.14384345222E+03  0.00000000000E+00 0.  1.
<mgrwt>
<rscale>  1 0.14677540E+03</rscale>
<asrwt>0</asrwt>
<pdfrwt beam="1">  1       21 0.34272109E-01 0.14677540E+03</pdfrwt>
<pdfrwt beam="2">  1       21 0.10914117E-01 0.14677540E+03</pdfrwt>
<totfact> 0.57343114E+05</totfact>
</mgrwt>
</event>
<event>
 6    1  0.4187588E-002  0.1401306E+03  0.7546771E-02  0.1213153E+00
         21   -1    0    0  503  502  0.00000000000E+00  0.00000000000E+00  0.46902764956E+02  0.46902764956E+02  0.00000000000E+00 0. -1.
         21   -1    0    0  504  503 -0.00000000000E+00 -0.00000000000E+00 -0.46661476370E+03  0.46661476370E+03  0.00000000000E+00 0.  1.
         25    2    1    2    0    0 -0.11746831273E+02 -0.62242396247E+02 -0.42733048916E+03  0.44971983802E+03  0.12499792719E+03 0.  0.
          5    1    3    3  501    0 -0.46948530925E+02 -0.75763307947E+02 -0.37355027281E+03  0.38403653433E+03  0.10000000000E+00 0.  1.
         -5    1    3    3    0  501  0.35201699652E+02  0.13520911700E+02 -0.53780216352E+02  0.65683303681E+02  0.10000000000E+00 0.  1.
         21    1    1    2  504  502  0.11746831273E+02  0.62242396247E+02  0.76184904136E+01  0.63797690645E+02  0.00000000000E+00 0. -1.
<mgrwt>
<rscale>  1 0.14013060E+03</rscale>
<asrwt>0</asrwt>
<pdfrwt beam="1">  1       21 0.72158102E-02 0.14013060E+03</pdfrwt>
<pdfrwt beam="2">  1       21 0.71786885E-01 0.14013060E+03</pdfrwt>
<totfact> 0.25499513E+05</totfact>
</mgrwt>
</event>
<event>
 6    1  0.4187588E-002  0.1261065E+03  0.7546771E-02  0.1233350E+00
         21   -1    0    0  503  502  0.00000000000E+00  0.00000000000E+00  0.11678449766E+02  0.11678449766E+02  0.00000000000E+00 0.  1.
         21   -1    0    0  504  503 -0.00000000000E+00 -0.00000000000E+00 -0.11457235518E+04  0.11457235518E+04  0.00000000000E+00 0.  1.
         25    2    1    2    0    0  0.64032495703E+01  0.15380345467E+02 -0.11337474754E+04  0.11407393123E+04  0.12500113624E+03 0.  0.
          5    1    3    3  501    0  0.11689653922E+02  0.68993439382E+02 -0.53143130148E+03  0.53601863855E+03  0.10000000000E+00 0. -1.
         -5    1    3    3    0  501 -0.52864043521E+01 -0.53613093916E+02 -0.60231617394E+03  0.60472067378E+03  0.10000000000E+00 0. -1.
         21    1    1    2  504  502 -0.64032495703E+01 -0.15380345467E+02 -0.29762664515E+00  0.16662689259E+02  0.00000000000E+00 0.  1.
<mgrwt>
<rscale>  1 0.12610647E+03</rscale>
<asrwt>0</asrwt>
<pdfrwt beam="1">  1       21 0.17966841E-02 0.12610647E+03</pdfrwt>
<pdfrwt beam="2">  1       21 0.17626521E+00 0.12610647E+03</pdfrwt>
<totfact> 0.29054050E+05</totfact>
</mgrwt>
</event>
<event>
 6    1  0.4187588E-002  0.1387132E+03  0.7546771E-02  0.1215071E+00
         21   -1    0    0  504  502  0.00000000000E+00  0.00000000000E+00  0.39789606576E+03  0.39789606576E+03  0.00000000000E+00 0.  1.
         21   -1    0    0  502  503 -0.00000000000E+00 -0.00000000000E+00 -0.26188957893E+02  0.26188957893E+02  0.00000000000E+00 0.  1.
         25    2    1    2    0    0 -0.52906672665E+02  0.28590055727E+02  0.21117362153E+03  0.25265717430E+03  0.12499936798E+03 0.  0.
          5    1    3    3  501    0  0.26212445269E+02 -0.14188992342E+02  0.86141560033E+01  0.31026335173E+02  0.10000000000E+00 0.  1.
         -5    1    3    3    0  501 -0.79119117934E+02  0.42779048069E+02  0.20255946553E+03  0.22163083913E+03  0.10000000000E+00 0.  1.
         21    1    1    2  504  503  0.52906672665E+02 -0.28590055727E+02  0.16053348633E+03  0.17142784935E+03  0.00000000000E+00 0.  1.
<mgrwt>
<rscale>  1 0.13871319E+03</rscale>
<asrwt>0</asrwt>
<pdfrwt beam="1">  1       21 0.61214775E-01 0.13871319E+03</pdfrwt>
<pdfrwt beam="2">  1       21 0.40290707E-02 0.13871319E+03</pdfrwt>
<totfact> 0.96393009E+05</totfact>
</mgrwt>
</event>
<event>
 6    1  0.4187588E-002  0.2203543E+03  0.7546771E-02  0.1133619E+00
         21   -1    0    0  503  502  0.00000000000E+00  0.00000000000E+00  0.13583661033E+03  0.13583661033E+03  0.00000000000E+00 0. -1.
         21   -1    0    0  504  503 -0.00000000000E+00 -0.00000000000E+00 -0.33895536522E+03  0.33895536522E+03  0.00000000000E+00 0. -1.
         25    2    1    2    0    0 -0.16496403856E+03 -0.75684705539E+02 -0.19314539383E+03  0.29302075505E+03  0.12495883745E+03 0.  0.
          5    1    3    3  501    0 -0.12900239503E+03 -0.13506324422E+02 -0.62610340391E+02  0.14402813422E+03  0.10000000000E+00 0.  1.
         -5    1    3    3    0  501 -0.35961643535E+02 -0.62178381116E+02 -0.13053505344E+03  0.14899262083E+03  0.10000000000E+00 0.  1.
         21    1    1    2  504  502  0.16496403856E+03  0.75684705539E+02 -0.99733610541E+01  0.18177122050E+03  0.00000000000E+00 0. -1.
<mgrwt>
<rscale>  1 0.22035430E+03</rscale>
<asrwt>0</asrwt>
<pdfrwt beam="1">  1       21 0.20897940E-01 0.22035430E+03</pdfrwt>
<pdfrwt beam="2">  1       21 0.52146978E-01 0.22035430E+03</pdfrwt>
<totfact> 0.73315492E+04</totfact>
</mgrwt>
</event>
<event>
 6    1  0.4187588E-002  0.1311643E+03  0.7546771E-02  0.1225738E+00
         21   -1    0    0  503  502  0.00000000000E+00  0.00000000000E+00  0.17112513453E+04  0.17112513453E+04  0.00000000000E+00 0.  1.
         21   -1    0    0  504  503 -0.00000000000E+00 -0.00000000000E+00 -0.66386209191E+01  0.66386209191E+01  0.00000000000E+00 0.  1.
         25    2    1    2    0    0  0.37601518650E+02  0.12843786320E+02  0.68158580556E+03  0.69409168840E+03  0.12500089800E+03 0.  0.
          5    1    3    3  501    0  0.42084900465E+02  0.62849677951E+02  0.30822205843E+03  0.31736740250E+03  0.10000000000E+00 0.  1.
         -5    1    3    3    0  501 -0.44833818150E+01 -0.50005891631E+02  0.37336374713E+03  0.37672428590E+03  0.10000000000E+00 0.  1.
         21    1    1    2  504  502 -0.37601518650E+02 -0.12843786320E+02  0.10230269188E+04  0.10237982778E+04  0.00000000000E+00 0.  1.
<mgrwt>
<rscale>  1 0.13116425E+03</rscale>
<asrwt>0</asrwt>
<pdfrwt beam="1">  1       21 0.26326909E+00 0.13116425E+03</pdfrwt>
<pdfrwt beam="2">  1       21 0.10213277E-02 0.13116425E+03</pdfrwt>
<totfact> 0.21073930E+05</totfact>
</mgrwt>
</event>
<event>
 6    1  0.4187588E-002  0.1269468E+03  0.7546771E-02  0.1232058E+00
         21   -1    0    0  503  502  0.00000000000E+00  0.00000000000E+00  0.16869631504E+03  0.16869631504E+03  0.00000000000E+00 0.  1.
         21   -1    0    0  504  503 -0.00000000000E+00 -0.00000000000E+00 -0.11112933425E+03  0.11112933425E+03  0.00000000000E+00 0.  1.
         25    2    1    2    0    0  0.86099882275E+00 -0.22608661822E+02 -0.73588100670E+02  0.14673339444E+03  0.12491432094E+03 0.  0.
          5    1    3    3  501    0  0.35992318002E+02 -0.13362406813E+02 -0.96449986540E+02  0.10381045600E+03  0.10000000000E+00 0. -1.
         -5    1    3    3    0  501 -0.35131319180E+02 -0.92462550094E+01  0.22861885870E+02  0.42922938442E+02  0.10000000000E+00 0. -1.
         21    1    1    2  504  502 -0.86099882275E+00  0.22608661822E+02  0.13115508146E+03  0.13309225485E+03  0.00000000000E+00 0.  1.
<mgrwt>
<rscale>  1 0.12694676E+03</rscale>
<asrwt>0</asrwt>
<pdfrwt beam="1">  1       21 0.25953279E-01 0.12694676E+03</pdfrwt>
<pdfrwt beam="2">  1       21 0.17096821E-01 0.12694676E+03</pdfrwt>
<totfact> 0.43946717E+05</totfact>
</mgrwt>
</event>
<event>
 6    1  0.4187588E-002  0.1561255E+03  0.7546771E-02  0.1193142E+00
         21   -1    0    0  503  502  0.00000000000E+00  0.00000000000E+00  0.34070716758E+03  0.34070716758E+03  0.00000000000E+00 0.  1.
         21   -1    0    0  504  503 -0.00000000000E+00 -0.00000000000E+00 -0.46115094908E+02  0.46115094908E+02  0.00000000000E+00 0.  1.
         25    2    1    2    0    0  0.61939992295E+02  0.70096746712E+02  0.16699409892E+03  0.22860924327E+03  0.12500016195E+03 0.  0.
          5    1    3    3  501    0 -0.22599087695E+02  0.57790650749E+02  0.34605215972E+02  0.71049342369E+02  0.10000000000E+00 0.  1.
         -5    1    3    3    0  501  0.84539079990E+02  0.12306095963E+02  0.13238888295E+03  0.15755990090E+03  0.10000000000E+00 0.  1.
         21    1    1    2  504  502 -0.61939992295E+02 -0.70096746712E+02  0.12759797375E+03  0.15821301922E+03  0.00000000000E+00 0.  1.
<mgrwt>
<rscale>  1 0.15612545E+03</rscale>
<asrwt>0</asrwt>
<pdfrwt beam="1">  1       21 0.52416486E-01 0.15612545E+03</pdfrwt>
<pdfrwt beam="2">  1       21 0.70946302E-02 0.15612545E+03</pdfrwt>
<totfact> 0.51331981E+05</totfact>
</mgrwt>
</event>
<event>
 6    1  0.4187588E-002  0.1287779E+03  0.7546771E-02  0.1229280E+00
         21   -1    0    0  504  502  0.00000000000E+00  0.00000000000E+00  0.21947491068E+02  0.21947491068E+02  0.00000000000E+00 0. -1.
         21   -1    0    0  502  503 -0.00000000000E+00 -0.00000000000E+00 -0.47745254179E+03  0.47745254179E+03  0.00000000000E+00 0. -1.
         25    2    1    2    0    0  0.23363936529E+02 -0.20376002403E+02 -0.44980898129E+03  0.46788019449E+03  0.12499080663E+03 0.  0.
          5    1    3    3  501    0 -0.18934160570E+02 -0.60936289034E+02 -0.16097086448E+03  0.17315704713E+03  0.10000000000E+00 0.  1.
         -5    1    3    3    0  501  0.42298097099E+02  0.40560286631E+02 -0.28883811681E+03  0.29472314736E+03  0.10000000000E+00 0.  1.
         21    1    1    2  504  503 -0.23363936529E+02  0.20376002403E+02 -0.56960694362E+01  0.31519838373E+02  0.00000000000E+00 0. -1.
<mgrwt>
<rscale>  1 0.12877794E+03</rscale>
<asrwt>0</asrwt>
<pdfrwt beam="1">  1       21 0.33765375E-02 0.12877794E+03</pdfrwt>
<pdfrwt beam="2">  1       21 0.73454228E-01 0.12877794E+03</pdfrwt>
<totfact> 0.87024614E+05</totfact>
</mgrwt>
</event>
<event>
 6    1  0.4187588E-002  0.1301735E+03  0.7546771E-02  0.1227199E+00
         21   -1    0    0  504  502  0.00000000000E+00  0.00000000000E+00  0.35985303419E+02  0.35985303419E+02  0.00000000000E+00 0. -1.
         21   -1    0    0  502  503 -0.00000000000E+00 -0.00000000000E+00 -0.34065002212E+03  0.34065002212E+03  0.00000000000E+00 0. -1.
         25    2    1    2    0    0 -0.35311087245E+02  0.84550220911E+01 -0.31334022732E+03  0.33930404200E+03  0.12500709812E+03 0.  0.
          5    1    3    3  501    0 -0.30030403275E+02 -0.37067406612E+02 -0.40313865364E+02  0.62458270024E+02  0.10000000000E+00 0.  1.
         -5    1    3    3    0  501 -0.52806839701E+01  0.45522428703E+02 -0.27302636195E+03  0.27684577197E+03  0.10000000000E+00 0.  1.
         21    1    1    2  504  503  0.35311087245E+02 -0.84550220911E+01  0.86755086175E+01  0.37331283540E+02  0.00000000000E+00 0. -1.
<mgrwt>
<rscale>  1 0.13017348E+03</rscale>
<asrwt>0</asrwt>
<pdfrwt beam="1">  1       21 0.55362006E-02 0.13017348E+03</pdfrwt>
<pdfrwt beam="2">  1       21 0.52407695E-01 0.13017348E+03</pdfrwt>
<totfact> 0.78479630E+05</totfact>
</mgrwt>
</event>
<event>
 6    1  0.4187588E-002  0.1263244E+03  0.7546771E-02  0.1233014E+00
         21   -1    0    0  504  502  0.00000000000E+00  0.00000000000E+00  0.20893386838E+03  0.20893386838E+03  0.00000000000E+00 0. -1.
         21   -1    0    0  502  503 -0.00000000000E+00 -0.00000000000E+00 -0.25763776774E+02  0.25763776774E+02  0.00000000000E+00 0. -1.
         25    2    1    2    0    0  0.17370039251E+02  0.57295050595E+01  0.14458265046E+03  0.19199476344E+03  0.12499320336E+03 0.  0.
          5    1    3    3  501    0  0.47318203689E+02  0.41641865732E+02  0.12746610151E+03  0.14219941778E+03  0.10000000000E+00 0.  1.
         -5    1    3    3    0  501 -0.29948164438E+02 -0.35912360672E+02  0.17116548944E+02  0.49795345667E+02  0.10000000000E+00 0.  1.
         21    1    1    2  504  503 -0.17370039251E+02 -0.57295050595E+01  0.38587441152E+02  0.42702881712E+02  0.00000000000E+00 0. -1.
<mgrwt>
<rscale>  1 0.12632437E+03</rscale>
<asrwt>0</asrwt>
<pdfrwt beam="1">  1       21 0.32143671E-01 0.12632437E+03</pdfrwt>
<pdfrwt beam="2">  1       21 0.39636581E-02 0.12632437E+03</pdfrwt>
<totfact> 0.36604372E+06</totfact>
</mgrwt>
</event>
<event>
 6    1  0.4187588E-002  0.1262755E+03  0.7546771E-02  0.1233089E+00
         21   -1    0    0  503  502  0.00000000000E+00  0.00000000000E+00  0.80407714324E+03  0.80407714324E+03  0.00000000000E+00 0. -1.
         21   -1    0    0  504  503 -0.00000000000E+00 -0.00000000000E+00 -0.96716543915E+01  0.96716543915E+01  0.00000000000E+00 0. -1.
         25    2    1    2    0    0 -0.51587169325E+01 -0.17164956726E+02  0.41184907504E+03  0.43077274375E+03  0.12499699215E+03 0.  0.
          5    1    3    3  501    0 -0.23732028245E+02  0.27651998386E+01  0.40057829607E+03  0.40129021515E+03  0.10000000000E+00 0. -1.
         -5    1    3    3    0  501  0.18573311313E+02 -0.19930156565E+02  0.11270778966E+02  0.29482528594E+02  0.10000000000E+00 0. -1.
         21    1    1    2  504  502  0.51587169325E+01  0.17164956726E+02  0.38255641382E+03  0.38297605389E+03  0.00000000000E+00 0. -1.
<mgrwt>
<rscale>  1 0.12627548E+03</rscale>
<asrwt>0</asrwt>
<pdfrwt beam="1">  1       21 0.12370412E+00 0.12627548E+03</pdfrwt>
<pdfrwt beam="2">  1       21 0.14879475E-02 0.12627548E+03</pdfrwt>
<totfact> 0.98092583E+05</totfact>
</mgrwt>
</event>
<event>
 6    1  0.4187588E-002  0.1261079E+03  0.7546771E-02  0.1233348E+00
         21   -1    0    0  504  502  0.00000000000E+00  0.00000000000E+00  0.14556782304E+04  0.14556782304E+04  0.00000000000E+00 0.  1.
         21   -1    0    0  502  503 -0.00000000000E+00 -0.00000000000E+00 -0.83157396232E+01  0.83157396232E+01  0.00000000000E+00 0. -1.
         25    2    1    2    0    0  0.16683929618E+02  0.39550751429E+00  0.47400946348E+03  0.49049788596E+03  0.12499877892E+03 0.  0.
          5    1    3    3  501    0  0.16262880552E+02  0.45589509792E+02  0.40578130340E+03  0.40865799989E+03  0.10000000000E+00 0.  1.
         -5    1    3    3    0  501  0.42104906600E+00 -0.45194002277E+02  0.68228160083E+02  0.81839886073E+02  0.10000000000E+00 0.  1.
         21    1    1    2  504  503 -0.16683929618E+02 -0.39550751429E+00  0.97335302735E+03  0.97349608411E+03  0.00000000000E+00 0.  1.
<mgrwt>
<rscale>  1 0.12610791E+03</rscale>
<asrwt>0</asrwt>
<pdfrwt beam="1">  1       21 0.22395029E+00 0.12610791E+03</pdfrwt>
<pdfrwt beam="2">  1       21 0.12793457E-02 0.12610791E+03</pdfrwt>
<totfact> 0.25019003E+05</totfact>
</mgrwt>
</event>
<event>
 6    1  0.4187588E-002  0.1270953E+03  0.7546771E-02  0.1231831E+00
         21   -1    0    0  504  502  0.00000000000E+00  0.00000000000E+00  0.22460036939E+02  0.22460036939E+02  0.00000000000E+00 0.  1.
         21   -1    0    0  502  503 -0.00000000000E+00 -0.00000000000E+00 -0.32318282579E+03  0.32318282579E+03  0.00000000000E+00 0.  1.
         25    2    1    2    0    0 -0.21913498560E+02  0.68630050683E+01 -0.29609297395E+03  0.32221771718E+03  0.12500362311E+03 0.  0.
          5    1    3    3  501    0 -0.50527999152E+02  0.31616154531E+02 -0.26939779450E+03  0.27591274275E+03  0.10000000000E+00 0. -1.
         -5    1    3    3    0  501  0.28614500592E+02 -0.24753149462E+02 -0.26695179441E+02  0.46304974439E+02  0.10000000000E+00 0. -1.
         21    1    1    2  504  503  0.21913498560E+02 -0.68630050683E+01 -0.46298149061E+01  0.23425145545E+02  0.00000000000E+00 0.  1.
<mgrwt>
<rscale>  1 0.12709527E+03</rscale>
<asrwt>0</asrwt>
<pdfrwt beam="1">  1       21 0.34553904E-02 0.12709527E+03</pdfrwt>
<pdfrwt beam="2">  1       21 0.49720433E-01 0.12709527E+03</pdfrwt>
<totfact> 0.19209232E+06</totfact>
</mgrwt>
</event>
<event>
 6    1  0.4187588E-002  0.1298359E+03  0.7546771E-02  0.1227699E+00
         21   -1    0    0  503  502  0.00000000000E+00  0.00000000000E+00  0.12059406390E+03  0.12059406390E+03  0.00000000000E+00 0.  1.
         21   -1    0    0  504  503 -0.00000000000E+00 -0.00000000000E+00 -0.69475737869E+02  0.69475737869E+02  0.00000000000E+00 0.  1.
         25    2    1    2    0    0  0.34789115208E+02 -0.46755252122E+01  0.21924036366E+01  0.12985444696E+03  0.12500091075E+03 0.  0.
          5    1    3    3  501    0  0.43936391304E+02 -0.59271228196E+02 -0.54097133508E+01  0.73978104675E+02  0.10000000000E+00 0. -1.
         -5    1    3    3    0  501 -0.91472760966E+01  0.54595702984E+02  0.76021169874E+01  0.55876342283E+02  0.10000000000E+00 0. -1.
         21    1    1    2  504  502 -0.34789115208E+02  0.46755252122E+01  0.48925922399E+02  0.60215354815E+02  0.00000000000E+00 0.  1.
<mgrwt>
<rscale>  1 0.12983594E+03</rscale>
<asrwt>0</asrwt>
<pdfrwt beam="1">  1       21 0.18552933E-01 0.12983594E+03</pdfrwt>
<pdfrwt beam="2">  1       21 0.10688575E-01 0.12983594E+03</pdfrwt>
<totfact> 0.19043506E+06</totfact>
</mgrwt>
</event>
<event>
 6    1  0.4187588E-002  0.1285539E+03  0.7546771E-02  0.1229617E+00
         21   -1    0    0  504  502  0.00000000000E+00  0.00000000000E+00  0.15952025862E+03  0.15952025862E+03  0.00000000000E+00 0.  1.
         21   -1    0    0  502  503 -0.00000000000E+00 -0.00000000000E+00 -0.39418296841E+02  0.39418296841E+02  0.00000000000E+00 0.  1.
         25    2    1    2    0    0  0.20586977261E+02 -0.21846631660E+02  0.98647481272E+02  0.16204148672E+03  0.12500007564E+03 0.  0.
          5    1    3    3  501    0 -0.40108524014E+02  0.25883179283E+02  0.56873181725E+02  0.74250935805E+02  0.10000000000E+00 0.  1.
         -5    1    3    3    0  501  0.60695501276E+02 -0.47729810943E+02  0.41774299547E+02  0.87790550917E+02  0.10000000000E+00 0.  1.
         21    1    1    2  504  503 -0.20586977261E+02  0.21846631660E+02  0.21454480510E+02  0.36897068740E+02  0.00000000000E+00 0.  1.
<mgrwt>
<rscale>  1 0.12855395E+03</rscale>
<asrwt>0</asrwt>
<pdfrwt beam="1">  1       21 0.24541578E-01 0.12855395E+03</pdfrwt>
<pdfrwt beam="2">  1       21 0.60643535E-02 0.12855395E+03</pdfrwt>
<totfact> 0.30082563E+06</totfact>
</mgrwt>
</event>
<event>
 6    1  0.4187588E-002  0.1280038E+03  0.7546771E-02  0.1230448E+00
         21   -1    0    0  504  502  0.00000000000E+00  0.00000000000E+00  0.59034271856E+03  0.59034271856E+03  0.00000000000E+00 0.  1.
         21   -1    0    0  502  503 -0.00000000000E+00 -0.00000000000E+00 -0.20365673981E+02  0.20365673981E+02  0.00000000000E+00 0.  1.
         25    2    1    2    0    0 -0.14098738514E+02  0.23700532864E+02  0.18627273950E+03  0.22601437983E+03  0.12499790686E+03 0.  0.
          5    1    3    3  501    0 -0.66621867008E+02  0.24806924873E+02  0.77181858400E+02  0.10493286402E+03  0.10000000000E+00 0. -1.
         -5    1    3    3    0  501  0.52523128494E+02 -0.11063920087E+01  0.10909088110E+03  0.12108151581E+03  0.10000000000E+00 0. -1.
         21    1    1    2  504  503  0.14098738514E+02 -0.23700532864E+02  0.38370430508E+03  0.38469401272E+03  0.00000000000E+00 0.  1.
<mgrwt>
<rscale>  1 0.12800377E+03</rscale>
<asrwt>0</asrwt>
<pdfrwt beam="1">  1       21 0.90821944E-01 0.12800377E+03</pdfrwt>
<pdfrwt beam="2">  1       21 0.31331811E-02 0.12800377E+03</pdfrwt>
<totfact> 0.61141902E+05</totfact>
</mgrwt>
</event>
<event>
 6    1  0.4187588E-002  0.1260030E+03  0.7546771E-02  0.1233510E+00
         21   -1    0    0  503  502  0.00000000000E+00  0.00000000000E+00  0.44943675438E+03  0.44943675438E+03  0.00000000000E+00 0. -1.
         21   -1    0    0  504  503 -0.00000000000E+00 -0.00000000000E+00 -0.18280042991E+02  0.18280042991E+02  0.00000000000E+00 0. -1.
         25    2    1    2    0    0 -0.13900055761E+02 -0.76065081697E+01  0.20243184740E+03  0.23844374199E+03  0.12500277892E+03 0.  0.
          5    1    3    3  501    0  0.55492909518E+02  0.37790674900E+01  0.93086910269E+02  0.10843858733E+03  0.10000000000E+00 0. -1.
         -5    1    3    3    0  501 -0.69392965280E+02 -0.11385575660E+02  0.10934493713E+03  0.13000515467E+03  0.10000000000E+00 0. -1.
         21    1    1    2  504  502  0.13900055761E+02  0.76065081697E+01  0.22872486399E+03  0.22927305538E+03  0.00000000000E+00 0. -1.
<mgrwt>
<rscale>  1 0.12600304E+03</rscale>
<asrwt>0</asrwt>
<pdfrwt beam="1">  1       21 0.69144108E-01 0.12600304E+03</pdfrwt>
<pdfrwt beam="2">  1       21 0.28123146E-02 0.12600304E+03</pdfrwt>
<totfact> 0.13407782E+06</totfact>
</mgrwt>
</event>
<event>
 6    1  0.4187588E-002  0.1331607E+03  0.7546771E-02  0.1222840E+00
         21   -1    0    0  504  502  0.00000000000E+00  0.00000000000E+00  0.28299691614E+02  0.28299691614E+02  0.00000000000E+00 0.  1.
         21   -1    0    0  502  503 -0.00000000000E+00 -0.00000000000E+00 -0.31300876804E+03  0.31300876804E+03  0.00000000000E+00 0.  1.
         25    2    1    2    0    0  0.36362137055E+02 -0.27955927718E+02 -0.25185008841E+03  0.28488637179E+03  0.12501215498E+03 0.  0.
          5    1    3    3  501    0 -0.24563359745E+01 -0.73091413772E+02 -0.12652391053E+03  0.14613931124E+03  0.10000000000E+00 0.  1.
         -5    1    3    3    0  501  0.38818473029E+02  0.45135486054E+02 -0.12532617788E+03  0.13874706055E+03  0.10000000000E+00 0.  1.
         21    1    1    2  504  503 -0.36362137055E+02  0.27955927718E+02 -0.32858988023E+02  0.56422087871E+02  0.00000000000E+00 0.  1.
<mgrwt>
<rscale>  1 0.13316072E+03</rscale>
<asrwt>0</asrwt>
<pdfrwt beam="1">  1       21 0.43537987E-02 0.13316072E+03</pdfrwt>
<pdfrwt beam="2">  1       21 0.48155195E-01 0.13316072E+03</pdfrwt>
<totfact> 0.13993707E+06</totfact>
</mgrwt>
</event>
<event>
 6    1  0.4187588E-002  0.1308245E+03  0.7546771E-02  0.1226237E+00
         21   -1    0    0  503  502  0.00000000000E+00  0.00000000000E+00  0.14100682852E+02  0.14100682852E+02  0.00000000000E+00 0.  1.
         21   -1    0    0  504  503 -0.00000000000E+00 -0.00000000000E+00 -0.93708350745E+03  0.93708350745E+03  0.00000000000E+00 0. -1.
         25    2    1    2    0    0 -0.73125758594E+00 -0.38575285357E+02 -0.89243458425E+03  0.90197258225E+03  0.12500585827E+03 0.  0.
          5    1    3    3  501    0 -0.57431205815E+02  0.48379900256E+01 -0.47355961076E+03  0.47705394296E+03  0.10000000000E+00 0.  1.
         -5    1    3    3    0  501  0.56699948229E+02 -0.43413275382E+02 -0.41887497348E+03  0.42491863929E+03  0.10000000000E+00 0.  1.
         21    1    1    2  504  502  0.73125758594E+00  0.38575285357E+02 -0.30548240353E+02  0.49211608048E+02  0.00000000000E+00 0.  1.
<mgrwt>
<rscale>  1 0.13082451E+03</rscale>
<asrwt>0</asrwt>
<pdfrwt beam="1">  1       21 0.21693367E-02 0.13082451E+03</pdfrwt>
<pdfrwt beam="2">  1       21 0.14416664E+00 0.13082451E+03</pdfrwt>
<totfact> 0.36428568E+05</totfact>
</mgrwt>
</event>
<event>
 6    1  0.4187588E-002  0.1266730E+03  0.7546771E-02  0.1232478E+00
         21   -1    0    0  503  502  0.00000000000E+00  0.00000000000E+00  0.10113031163E+03  0.10113031163E+03  0.00000000000E+00 0. -1.
         21   -1    0    0  504  503 -0.00000000000E+00 -0.00000000000E+00 -0.21910786766E+03  0.21910786766E+03  0.00000000000E+00 0. -1.
         25    2    1    2    0    0 -0.12815875894E+02 -0.16156683714E+02 -0.19940601966E+03  0.23623889482E+03  0.12498307744E+03 0.  0.
          5    1    3    3  501    0 -0.62768188654E+02 -0.27055573291E+02 -0.73613128100E+02  0.10045273606E+03  0.10000000000E+00 0. -1.
         -5    1    3    3    0  501  0.49952312760E+02  0.10898889577E+02 -0.12579289156E+03  0.13578615876E+03  0.10000000000E+00 0. -1.
         21    1    1    2  504  502  0.12815875894E+02  0.16156683714E+02  0.81428463622E+02  0.83999284469E+02  0.00000000000E+00 0. -1.
<mgrwt>
<rscale>  1 0.12667302E+03</rscale>
<asrwt>0</asrwt>
<pdfrwt beam="1">  1       21 0.15558509E-01 0.12667302E+03</pdfrwt>
<pdfrwt beam="2">  1       21 0.33708903E-01 0.12667302E+03</pdfrwt>
<totfact> 0.31523833E+05</totfact>
</mgrwt>
</event>
<event>
 6    1  0.4187588E-002  0.1342355E+03  0.7546771E-02  0.1221303E+00
         21   -1    0    0  503  502  0.00000000000E+00  0.00000000000E+00  0.18715432085E+03  0.18715432085E+03  0.00000000000E+00 0.  1.
         21   -1    0    0  504  503 -0.00000000000E+00 -0.00000000000E+00 -0.26319564275E+03  0.26319564275E+03  0.00000000000E+00 0.  1.
         25    2    1    2    0    0 -0.84423688133E+01 -0.48155019308E+02 -0.24232897762E+03  0.27702436272E+03  0.12501593766E+03 0.  0.
          5    1    3    3  501    0  0.48322252147E+02 -0.92406919347E+01 -0.40306474911E+02  0.63600726095E+02  0.10000000000E+00 0.  1.
         -5    1    3    3    0  501 -0.56764620961E+02 -0.38914327373E+02 -0.20202250271E+03  0.21342363662E+03  0.10000000000E+00 0.  1.
         21    1    1    2  504  502  0.84423688133E+01  0.48155019308E+02  0.16628765573E+03  0.17332560089E+03  0.00000000000E+00 0.  1.
<mgrwt>
<rscale>  1 0.13423548E+03</rscale>
<asrwt>0</asrwt>
<pdfrwt beam="1">  1       21 0.28792973E-01 0.13423548E+03</pdfrwt>
<pdfrwt beam="2">  1       21 0.40491637E-01 0.13423548E+03</pdfrwt>
<totfact> 0.69601447E+04</totfact>
</mgrwt>
</event>
<event>
 6    1  0.4187588E-002  0.1387066E+03  0.7546771E-02  0.1215080E+00
         21   -1    0    0  504  502  0.00000000000E+00  0.00000000000E+00  0.65970134017E+02  0.65970134017E+02  0.00000000000E+00 0.  1.
         21   -1    0    0  502  503 -0.00000000000E+00 -0.00000000000E+00 -0.15138349815E+03  0.15138349815E+03  0.00000000000E+00 0.  1.
         25    2    1    2    0    0  0.19033618373E+02  0.57028434628E+02 -0.69593204371E+02  0.15518612909E+03  0.12499999833E+03 0.  0.
          5    1    3    3  501    0 -0.38006812939E+02  0.87254205494E+01 -0.70352737523E+02  0.80437357431E+02  0.10000000000E+00 0.  1.
         -5    1    3    3    0  501  0.57040431312E+02  0.48303014078E+02  0.75953315126E+00  0.74748771655E+02  0.10000000000E+00 0.  1.
         21    1    1    2  504  503 -0.19033618373E+02 -0.57028434628E+02 -0.15820159761E+02  0.62167503081E+02  0.00000000000E+00 0.  1.
<mgrwt>
<rscale>  1 0.13870660E+03</rscale>
<asrwt>0</asrwt>
<pdfrwt beam="1">  1       21 0.10149252E-01 0.13870660E+03</pdfrwt>
<pdfrwt beam="2">  1       21 0.23289768E-01 0.13870660E+03</pdfrwt>
<totfact> 0.13687411E+06</totfact>
</mgrwt>
</event>
<event>
 6    1  0.4187588E-002  0.1537678E+03  0.7546771E-02  0.1195918E+00
         21   -1    0    0  503  502  0.00000000000E+00  0.00000000000E+00  0.21763169752E+03  0.21763169752E+03  0.00000000000E+00 0.  1.
         21   -1    0    0  504  503 -0.00000000000E+00 -0.00000000000E+00 -0.68590504640E+02  0.68590504640E+02  0.00000000000E+00 0.  1.
         25    2    1    2    0    0  0.65873550163E+02 -0.60664138789E+02  0.81314871049E+02  0.17394434586E+03  0.12500025943E+03 0.  0.
          5    1    3    3  501    0  0.87185221857E+02 -0.72272451571E+01  0.19755277846E+02  0.89687106017E+02  0.10000000000E+00 0.  1.
         -5    1    3    3    0  501 -0.21311671694E+02 -0.53436893632E+02  0.61559593203E+02  0.84257239847E+02  0.10000000000E+00 0.  1.
         21    1    1    2  504  502 -0.65873550163E+02  0.60664138789E+02  0.67726321834E+02  0.11227785630E+03  0.00000000000E+00 0.  1.
<mgrwt>
<rscale>  1 0.15376777E+03</rscale>
<asrwt>0</asrwt>
<pdfrwt beam="1">  1       21 0.33481799E-01 0.15376777E+03</pdfrwt>
<pdfrwt beam="2">  1       21 0.10552385E-01 0.15376777E+03</pdfrwt>
<totfact> 0.63686826E+05</totfact>
</mgrwt>
</event>
<event>
 6    1  0.4187588E-002  0.1594592E+03  0.7546771E-02  0.1189309E+00
         21   -1    0    0  503  502  0.00000000000E+00  0.00000000000E+00  0.10543842240E+03  0.10543842240E+03  0.00000000000E+00 0. -1.
         21   -1    0    0  504  503 -0.00000000000E+00 -0.00000000000E+00 -0.22174744201E+03  0.22174744201E+03  0.00000000000E+00 0. -1.
         25    2    1    2    0    0 -0.20221993221E+02 -0.96916534626E+02 -0.15358746793E+03  0.22139632616E+03  0.12500191694E+03 0.  0.
          5    1    3    3  501    0 -0.46302213848E+02 -0.11641195222E+03 -0.13378090012E+03  0.18328386963E+03  0.10000000000E+00 0. -1.
         -5    1    3    3    0  501  0.26080220627E+02  0.19495417593E+02 -0.19806567807E+02  0.38112456538E+02  0.10000000000E+00 0. -1.
         21    1    1    2  504  502  0.20221993221E+02  0.96916534626E+02  0.37278448327E+02  0.10578953825E+03  0.00000000000E+00 0. -1.
<mgrwt>
<rscale>  1 0.15945916E+03</rscale>
<asrwt>0</asrwt>
<pdfrwt beam="1">  1       21 0.16221296E-01 0.15945916E+03</pdfrwt>
<pdfrwt beam="2">  1       21 0.34114991E-01 0.15945916E+03</pdfrwt>
<totfact> 0.28381668E+05</totfact>
</mgrwt>
</event>
<event>
 6    1  0.4187588E-002  0.1291172E+03  0.7546771E-02  0.1228771E+00
         21   -1    0    0  503  502  0.00000000000E+00  0.00000000000E+00  0.16562379811E+03  0.16562379811E+03  0.00000000000E+00 0.  1.
         21   -1    0    0  504  503 -0.00000000000E+00 -0.00000000000E+00 -0.29751034720E+03  0.29751034720E+03  0.00000000000E+00 0.  1.
         25    2    1    2    0    0 -0.23519287396E+02  0.22210046854E+02 -0.28169317500E+03  0.30987466524E+03  0.12499928103E+03 0.  0.
          5    1    3    3  501    0 -0.69802602057E+02  0.35588616590E+02 -0.14309334665E+03  0.16314002801E+03  0.10000000000E+00 0.  1.
         -5    1    3    3    0  501  0.46283314661E+02 -0.13378569736E+02 -0.13859982835E+03  0.14673463723E+03  0.10000000000E+00 0.  1.
         21    1    1    2  504  502  0.23519287396E+02 -0.22210046854E+02  0.14980662592E+03  0.15325948006E+03  0.00000000000E+00 0.  1.
<mgrwt>
<rscale>  1 0.12911725E+03</rscale>
<asrwt>0</asrwt>
<pdfrwt beam="1">  1       21 0.25480585E-01 0.12911725E+03</pdfrwt>
<pdfrwt beam="2">  1       21 0.45770822E-01 0.12911725E+03</pdfrwt>
<totfact> 0.68765104E+04</totfact>
</mgrwt>
</event>
<event>
 6    1  0.4187588E-002  0.1427101E+03  0.7546771E-02  0.1209728E+00
         21   -1    0    0  503  502  0.00000000000E+00  0.00000000000E+00  0.18619003783E+03  0.18619003783E+03  0.00000000000E+00 0.  1.
         21   -1    0    0  504  503 -0.00000000000E+00 -0.00000000000E+00 -0.69785678849E+02  0.69785678849E+02  0.00000000000E+00 0.  1.
         25    2    1    2    0    0 -0.66538970976E+02 -0.17691340827E+02  0.30584011118E+02  0.14595049091E+03  0.12500298341E+03 0.  0.
          5    1    3    3  501    0 -0.85832009654E+02 -0.50877958987E+02  0.38153268153E+02  0.10682407249E+03  0.10000000000E+00 0. -1.
         -5    1    3    3    0  501  0.19293038677E+02  0.33186618160E+02 -0.75692570348E+01  0.39126418420E+02  0.10000000000E+00 0. -1.
         21    1    1    2  504  502  0.66538970976E+02  0.17691340827E+02  0.85820347864E+02  0.11002522577E+03  0.00000000000E+00 0.  1.
<mgrwt>
<rscale>  1 0.14271007E+03</rscale>
<asrwt>0</asrwt>
<pdfrwt beam="1">  1       21 0.28644621E-01 0.14271007E+03</pdfrwt>
<pdfrwt beam="2">  1       21 0.10736258E-01 0.14271007E+03</pdfrwt>
<totfact> 0.83677400E+05</totfact>
</mgrwt>
</event>
<event>
 6    1  0.4187588E-002  0.1286722E+03  0.7546771E-02  0.1229439E+00
         21   -1    0    0  503  502  0.00000000000E+00  0.00000000000E+00  0.69183043880E+01  0.69183043880E+01  0.00000000000E+00 0.  1.
         21   -1    0    0  504  503 -0.00000000000E+00 -0.00000000000E+00 -0.10468223205E+04  0.10468223205E+04  0.00000000000E+00 0.  1.
         25    2    1    2    0    0  0.26211869512E+02 -0.15640640521E+02 -0.95267638419E+03  0.96132660263E+03  0.12499940875E+03 0.  0.
          5    1    3    3  501    0 -0.33657647069E+02  0.35915965855E+02 -0.40512905252E+03  0.40810826138E+03  0.10000000000E+00 0.  1.
         -5    1    3    3    0  501  0.59869516581E+02 -0.51556606376E+02 -0.54754733166E+03  0.55321834125E+03  0.10000000000E+00 0.  1.
         21    1    1    2  504  502 -0.26211869512E+02  0.15640640521E+02 -0.87227631902E+02  0.92414022239E+02  0.00000000000E+00 0.  1.
<mgrwt>
<rscale>  1 0.12867223E+03</rscale>
<asrwt>0</asrwt>
<pdfrwt beam="1">  1       21 0.10643547E-02 0.12867223E+03</pdfrwt>
<pdfrwt beam="2">  1       21 0.16104956E+00 0.12867223E+03</pdfrwt>
<totfact> 0.85222440E+05</totfact>
</mgrwt>
</event>
<event>
 6    1  0.4187588E-002  0.1280541E+03  0.7546771E-02  0.1230372E+00
         21   -1    0    0  503  502  0.00000000000E+00  0.00000000000E+00  0.17928490455E+03  0.17928490455E+03  0.00000000000E+00 0.  1.
         21   -1    0    0  504  503 -0.00000000000E+00 -0.00000000000E+00 -0.84493038891E+02  0.84493038891E+02  0.00000000000E+00 0.  1.
         25    2    1    2    0    0  0.24030400504E+02 -0.14006200667E+02 -0.33615411518E+02  0.13239277442E+03  0.12499686805E+03 0.  0.
          5    1    3    3  501    0 -0.69722664398E+01 -0.64225148782E+02 -0.26394361331E+00  0.64603110619E+02  0.10000000000E+00 0.  1.
         -5    1    3    3    0  501  0.31002666944E+02  0.50218948115E+02 -0.33351467905E+02  0.67789663806E+02  0.10000000000E+00 0.  1.
         21    1    1    2  504  502 -0.24030400504E+02  0.14006200667E+02  0.12840727718E+03  0.13138516902E+03  0.00000000000E+00 0.  1.
<mgrwt>
<rscale>  1 0.12805409E+03</rscale>
<asrwt>0</asrwt>
<pdfrwt beam="1">  1       21 0.27582293E-01 0.12805409E+03</pdfrwt>
<pdfrwt beam="2">  1       21 0.12998929E-01 0.12805409E+03</pdfrwt>
<totfact> 0.64118989E+05</totfact>
</mgrwt>
</event>
<event>
 6    1  0.4187588E-002  0.1290208E+03  0.7546771E-02  0.1228916E+00
         21   -1    0    0  503  502  0.00000000000E+00  0.00000000000E+00  0.74726054268E+03  0.74726054268E+03  0.00000000000E+00 0. -1.
         21   -1    0    0  504  503 -0.00000000000E+00 -0.00000000000E+00 -0.16251116056E+02  0.16251116056E+02  0.00000000000E+00 0. -1.
         25    2    1    2    0    0 -0.30203412130E+02 -0.10223089308E+02  0.24893371475E+03  0.28038253558E+03  0.12501845568E+03 0.  0.
          5    1    3    3  501    0 -0.25851543074E+02  0.43122202930E+02  0.38712027576E+02  0.63454375294E+02  0.10000000000E+00 0.  1.
         -5    1    3    3    0  501 -0.43518690556E+01 -0.53345292238E+02  0.21022168717E+03  0.21692816029E+03  0.10000000000E+00 0.  1.
         21    1    1    2  504  502  0.30203412130E+02  0.10223089308E+02  0.48207571187E+03  0.48312912315E+03  0.00000000000E+00 0. -1.
<mgrwt>
<rscale>  1 0.12902082E+03</rscale>
<asrwt>0</asrwt>
<pdfrwt beam="1">  1       21 0.11496313E+00 0.12902082E+03</pdfrwt>
<pdfrwt beam="2">  1       21 0.25001723E-02 0.12902082E+03</pdfrwt>
<totfact> 0.50794552E+05</totfact>
</mgrwt>
</event>
<event>
 6    1  0.4187588E-002  0.1283936E+03  0.7546771E-02  0.1229859E+00
         21   -1    0    0  504  502  0.00000000000E+00  0.00000000000E+00  0.24092806817E+03  0.24092806817E+03  0.00000000000E+00 0.  1.
         21   -1    0    0  502  503 -0.00000000000E+00 -0.00000000000E+00 -0.27849769832E+02  0.27849769832E+02  0.00000000000E+00 0.  1.
         25    2    1    2    0    0  0.29215091074E+02  0.50378508728E+01  0.14023919561E+03  0.19013665049E+03  0.12492402645E+03 0.  0.
          5    1    3    3  501    0  0.39867754270E+02 -0.51238798366E+02  0.44970250442E+02  0.78975855256E+02  0.10000000000E+00 0. -1.
         -5    1    3    3    0  501 -0.10652663196E+02  0.56276649239E+02  0.95268945173E+02  0.11116079523E+03  0.10000000000E+00 0. -1.
         21    1    1    2  504  503 -0.29215091074E+02 -0.50378508728E+01  0.72839102725E+02  0.78641187514E+02  0.00000000000E+00 0.  1.
<mgrwt>
<rscale>  1 0.12839359E+03</rscale>
<asrwt>0</asrwt>
<pdfrwt beam="1">  1       21 0.37065855E-01 0.12839359E+03</pdfrwt>
<pdfrwt beam="2">  1       21 0.42845801E-02 0.12839359E+03</pdfrwt>
<totfact> 0.24336196E+06</totfact>
</mgrwt>
</event>
<event>
 6    1  0.4187588E-002  0.1262851E+03  0.7546771E-02  0.1233074E+00
         21   -1    0    0  503  502  0.00000000000E+00  0.00000000000E+00  0.35809597868E+03  0.35809597868E+03  0.00000000000E+00 0.  1.
         21   -1    0    0  504  503 -0.00000000000E+00 -0.00000000000E+00 -0.19744806121E+02  0.19744806121E+02  0.00000000000E+00 0.  1.
         25    2    1    2    0    0 -0.11850033544E+02 -0.13533302054E+02  0.18836811211E+03  0.22678287544E+03  0.12499741346E+03 0.  0.
          5    1    3    3  501    0 -0.32631061396E+02  0.10853449040E+02 -0.13138075075E+01  0.34413945053E+02  0.10000000000E+00 0.  1.
         -5    1    3    3    0  501  0.20781027852E+02 -0.24386751094E+02  0.18968191962E+03  0.19236893039E+03  0.10000000000E+00 0.  1.
         21    1    1    2  504  502  0.11850033544E+02  0.13533302054E+02  0.14998306044E+03  0.15105790936E+03  0.00000000000E+00 0.  1.
<mgrwt>
<rscale>  1 0.12628510E+03</rscale>
<asrwt>0</asrwt>
<pdfrwt beam="1">  1       21 0.55091684E-01 0.12628510E+03</pdfrwt>
<pdfrwt beam="2">  1       21 0.30376627E-02 0.12628510E+03</pdfrwt>
<totfact> 0.19186426E+06</totfact>
</mgrwt>
</event>
<event>
 6    1  0.4187588E-002  0.1303485E+03  0.7546771E-02  0.1226940E+00
         21   -1    0    0  504  502  0.00000000000E+00  0.00000000000E+00  0.68605951213E+03  0.68605951213E+03  0.00000000000E+00 0.  1.
         21   -1    0    0  502  503 -0.00000000000E+00 -0.00000000000E+00 -0.32148847447E+03  0.32148847447E+03  0.00000000000E+00 0.  1.
         25    2    1    2    0    0  0.34504931885E+02 -0.13058587369E+02 -0.30774936250E+03  0.33421609407E+03  0.12501844018E+03 0.  0.
          5    1    3    3  501    0 -0.96515487172E+01 -0.45505269761E+02 -0.41348634353E+02  0.62238264207E+02  0.10000000000E+00 0.  1.
         -5    1    3    3    0  501  0.44156480602E+02  0.32446682392E+02 -0.26640072815E+03  0.27197782986E+03  0.10000000000E+00 0.  1.
         21    1    1    2  504  503 -0.34504931885E+02  0.13058587369E+02  0.67232040016E+03  0.67333189253E+03  0.00000000000E+00 0.  1.
<mgrwt>
<rscale>  1 0.13034848E+03</rscale>
<asrwt>0</asrwt>
<pdfrwt beam="1">  1       21 0.10554762E+00 0.13034848E+03</pdfrwt>
<pdfrwt beam="2">  1       21 0.49459766E-01 0.13034848E+03</pdfrwt>
<totfact> 0.29910647E+03</totfact>
</mgrwt>
</event>
<event>
 6    1  0.4187588E-002  0.1461916E+03  0.7546771E-02  0.1205232E+00
         21   -1    0    0  504  502  0.00000000000E+00  0.00000000000E+00  0.42034136110E+03  0.42034136110E+03  0.00000000000E+00 0. -1.
         21   -1    0    0  502  503 -0.00000000000E+00 -0.00000000000E+00 -0.12182627270E+03  0.12182627270E+03  0.00000000000E+00 0.  1.
         25    2    1    2    0    0  0.59868879366E+01 -0.75558832608E+02 -0.72716069551E+02  0.16327773865E+03  0.12500805236E+03 0.  0.
          5    1    3    3  501    0 -0.48388853525E+02 -0.84942731604E+01 -0.57463178879E+02  0.75601989054E+02  0.10000000000E+00 0.  1.
         -5    1    3    3    0  501  0.54375741462E+02 -0.67064559448E+02 -0.15252890672E+02  0.87675749596E+02  0.10000000000E+00 0.  1.
         21    1    1    2  504  503 -0.59868879366E+01  0.75558832608E+02  0.37123115795E+03  0.37888989515E+03  0.00000000000E+00 0. -1.
<mgrwt>
<rscale>  1 0.14619163E+03</rscale>
<asrwt>0</asrwt>
<pdfrwt beam="1">  1       21 0.64667901E-01 0.14619163E+03</pdfrwt>
<pdfrwt beam="2">  1       21 0.18742504E-01 0.14619163E+03</pdfrwt>
<totfact> 0.58684446E+04</totfact>
</mgrwt>
</event>
<event>
 6    1  0.4187588E-002  0.1268664E+03  0.7546771E-02  0.1232181E+00
         21   -1    0    0  504  502  0.00000000000E+00  0.00000000000E+00  0.37529909063E+03  0.37529909063E+03  0.00000000000E+00 0.  1.
         21   -1    0    0  502  503 -0.00000000000E+00 -0.00000000000E+00 -0.14828920251E+02  0.14828920251E+02  0.00000000000E+00 0.  1.
         25    2    1    2    0    0  0.21659820399E+02 -0.70772757910E+00  0.31977962194E+03  0.34402628174E+03  0.12500170886E+03 0.  0.
          5    1    3    3  501    0  0.34529106101E+02 -0.56888999077E+02  0.20597870443E+03  0.21646213079E+03  0.10000000000E+00 0.  1.
         -5    1    3    3    0  501 -0.12869285702E+02  0.56181271498E+02  0.11380091751E+03  0.12756415095E+03  0.10000000000E+00 0.  1.
         21    1    1    2  504  503 -0.21659820399E+02  0.70772757910E+00  0.40690548432E+02  0.46101729140E+02  0.00000000000E+00 0.  1.
<mgrwt>
<rscale>  1 0.12686637E+03</rscale>
<asrwt>0</asrwt>
<pdfrwt beam="1">  1       21 0.57738314E-01 0.12686637E+03</pdfrwt>
<pdfrwt beam="2">  1       21 0.22813726E-02 0.12686637E+03</pdfrwt>
<totfact> 0.27730950E+06</totfact>
</mgrwt>
</event>
<event>
 6    1  0.4187588E-002  0.1285563E+03  0.7546771E-02  0.1229614E+00
         21   -1    0    0  504  502  0.00000000000E+00  0.00000000000E+00  0.65373528113E+01  0.65373528113E+01  0.00000000000E+00 0. -1.
         21   -1    0    0  502  503 -0.00000000000E+00 -0.00000000000E+00 -0.98199892544E+03  0.98199892544E+03  0.00000000000E+00 0. -1.
         25    2    1    2    0    0 -0.35398928648E+00 -0.30014386585E+02 -0.84069413433E+03  0.85046654538E+03  0.12500291435E+03 0.  0.
          5    1    3    3  501    0 -0.34008220573E+02 -0.66144960828E+02 -0.38606877371E+03  0.39316767790E+03  0.10000000000E+00 0.  1.
         -5    1    3    3    0  501  0.33654231286E+02  0.36130574242E+02 -0.45462536062E+03  0.45729886748E+03  0.10000000000E+00 0.  1.
         21    1    1    2  504  503  0.35398928648E+00  0.30014386585E+02 -0.13476743829E+03  0.13806973287E+03  0.00000000000E+00 0. -1.
<mgrwt>
<rscale>  1 0.12855628E+03</rscale>
<asrwt>0</asrwt>
<pdfrwt beam="1">  1       21 0.10057464E-02 0.12855628E+03</pdfrwt>
<pdfrwt beam="2">  1       21 0.15107678E+00 0.12855628E+03</pdfrwt>
<totfact> 0.11021506E+06</totfact>
</mgrwt>
</event>
<event>
 6    1  0.4187588E-002  0.1262844E+03  0.7546771E-02  0.1233076E+00
         21   -1    0    0  503  502  0.00000000000E+00  0.00000000000E+00  0.39904114661E+03  0.39904114661E+03  0.00000000000E+00 0. -1.
         21   -1    0    0  504  503 -0.00000000000E+00 -0.00000000000E+00 -0.10134672453E+03  0.10134672453E+03  0.00000000000E+00 0.  1.
         25    2    1    2    0    0 -0.14779387211E+02 -0.10163453957E+02 -0.61696487443E+02  0.14054964092E+03  0.12500407561E+03 0.  0.
          5    1    3    3  501    0  0.90368176820E+01  0.45089961246E+02 -0.65760505221E+02  0.80244767592E+02  0.10000000000E+00 0.  1.
         -5    1    3    3    0  501 -0.23816204893E+02 -0.55253415204E+02  0.40640177781E+01  0.60304873333E+02  0.10000000000E+00 0.  1.
         21    1    1    2  504  502  0.14779387211E+02  0.10163453957E+02  0.35939090952E+03  0.35983823022E+03  0.00000000000E+00 0. -1.
<mgrwt>
<rscale>  1 0.12628438E+03</rscale>
<asrwt>0</asrwt>
<pdfrwt beam="1">  1       21 0.61390945E-01 0.12628438E+03</pdfrwt>
<pdfrwt beam="2">  1       21 0.15591804E-01 0.12628438E+03</pdfrwt>
<totfact> 0.92637441E+04</totfact>
</mgrwt>
</event>
<event>
 6    1  0.4187588E-002  0.1261603E+03  0.7546771E-02  0.1233267E+00
         21   -1    0    0  503  502  0.00000000000E+00  0.00000000000E+00  0.52274733386E+03  0.52274733386E+03  0.00000000000E+00 0. -1.
         21   -1    0    0  504  503 -0.00000000000E+00 -0.00000000000E+00 -0.10810888968E+02  0.10810888968E+02  0.00000000000E+00 0. -1.
         25    2    1    2    0    0  0.12501434528E+02  0.12013317109E+02  0.37784825108E+03  0.39835375037E+03  0.12496321033E+03 0.  0.
          5    1    3    3  501    0  0.39367549116E+02  0.24525063165E+02  0.36158545527E+03  0.36454812318E+03  0.10000000000E+00 0. -1.
         -5    1    3    3    0  501 -0.26866114587E+02 -0.12511746056E+02  0.16262795808E+02  0.33805627192E+02  0.10000000000E+00 0. -1.
         21    1    1    2  504  502 -0.12501434528E+02 -0.12013317109E+02  0.13408819382E+03  0.13520447246E+03  0.00000000000E+00 0. -1.
<mgrwt>
<rscale>  1 0.12616025E+03</rscale>
<asrwt>0</asrwt>
<pdfrwt beam="1">  1       21 0.80422647E-01 0.12616025E+03</pdfrwt>
<pdfrwt beam="2">  1       21 0.16632141E-02 0.12616025E+03</pdfrwt>
<totfact> 0.22478295E+06</totfact>
</mgrwt>
</event>
<event>
 6    1  0.4187588E-002  0.1264742E+03  0.7546771E-02  0.1232783E+00
         21   -1    0    0  504  502  0.00000000000E+00  0.00000000000E+00  0.41567242120E+03  0.41567242120E+03  0.00000000000E+00 0. -1.
         21   -1    0    0  502  503 -0.00000000000E+00 -0.00000000000E+00 -0.14648469083E+03  0.14648469083E+03  0.00000000000E+00 0.  1.
         25    2    1    2    0    0 -0.15388377507E+02 -0.11550729205E+02 -0.11890253333E+03  0.17359016248E+03  0.12500204226E+03 0.  0.
          5    1    3    3  501    0  0.20300707141E+02  0.37023739850E+02 -0.22488231989E+01  0.42284077721E+02  0.10000000000E+00 0. -1.
         -5    1    3    3    0  501 -0.35689084648E+02 -0.48574469056E+02 -0.11665371013E+03  0.13130608476E+03  0.10000000000E+00 0. -1.
         21    1    1    2  504  503  0.15388377507E+02  0.11550729205E+02  0.38809026370E+03  0.38856694956E+03  0.00000000000E+00 0. -1.
<mgrwt>
<rscale>  1 0.12647423E+03</rscale>
<asrwt>0</asrwt>
<pdfrwt beam="1">  1       21 0.63949603E-01 0.12647423E+03</pdfrwt>
<pdfrwt beam="2">  1       21 0.22536106E-01 0.12647423E+03</pdfrwt>
<totfact> 0.43144322E+04</totfact>
</mgrwt>
</event>
<event>
 6    1  0.4187588E-002  0.1471938E+03  0.7546771E-02  0.1203964E+00
         21   -1    0    0  503  502  0.00000000000E+00  0.00000000000E+00  0.17567878218E+02  0.17567878218E+02  0.00000000000E+00 0.  1.
         21   -1    0    0  504  503 -0.00000000000E+00 -0.00000000000E+00 -0.90087259434E+03  0.90087259434E+03  0.00000000000E+00 0.  1.
         25    2    1    2    0    0 -0.11485265001E+02  0.76864278386E+02 -0.74851429026E+03  0.76284970320E+03  0.12500399334E+03 0.  0.
          5    1    3    3  501    0 -0.56819194915E+02  0.28836344349E+01 -0.21875716465E+03  0.22603416410E+03  0.10000000000E+00 0. -1.
         -5    1    3    3    0  501  0.45333929914E+02  0.73980643951E+02 -0.52975712561E+03  0.53681553910E+03  0.10000000000E+00 0. -1.
         21    1    1    2  504  502  0.11485265001E+02 -0.76864278386E+02 -0.13479042587E+03  0.15559076936E+03  0.00000000000E+00 0.  1.
<mgrwt>
<rscale>  1 0.14719384E+03</rscale>
<asrwt>0</asrwt>
<pdfrwt beam="1">  1       21 0.27027513E-02 0.14719384E+03</pdfrwt>
<pdfrwt beam="2">  1       21 0.13859574E+00 0.14719384E+03</pdfrwt>
<totfact> 0.28029534E+05</totfact>
</mgrwt>
</event>
<event>
 6    1  0.4187588E-002  0.1273600E+03  0.7546771E-02  0.1231426E+00
         21   -1    0    0  503  502  0.00000000000E+00  0.00000000000E+00  0.56945204833E+03  0.56945204833E+03  0.00000000000E+00 0. -1.
         21   -1    0    0  504  503 -0.00000000000E+00 -0.00000000000E+00 -0.10430779981E+02  0.10430779981E+02  0.00000000000E+00 0. -1.
         25    2    1    2    0    0 -0.23291033197E+02  0.72815083825E+01  0.42557304156E+03  0.44422177338E+03  0.12500031060E+03 0.  0.
          5    1    3    3  501    0 -0.41613716964E+01  0.15435171758E+02  0.42296129065E+03  0.42326330449E+03  0.10000000000E+00 0. -1.
         -5    1    3    3    0  501 -0.19129661501E+02 -0.81536633752E+01  0.26117509174E+01  0.20958468895E+02  0.10000000000E+00 0. -1.
         21    1    1    2  504  502  0.23291033197E+02 -0.72815083825E+01  0.13344822679E+03  0.13566105493E+03  0.00000000000E+00 0. -1.
<mgrwt>
<rscale>  1 0.12736000E+03</rscale>
<asrwt>0</asrwt>
<pdfrwt beam="1">  1       21 0.87607983E-01 0.12736000E+03</pdfrwt>
<pdfrwt beam="2">  1       21 0.16047358E-02 0.12736000E+03</pdfrwt>
<totfact> 0.19631938E+06</totfact>
</mgrwt>
</event>
<event>
 6    1  0.4187588E-002  0.1265219E+03  0.7546771E-02  0.1232710E+00
         21   -1    0    0  504  502  0.00000000000E+00  0.00000000000E+00  0.12075443800E+03  0.12075443800E+03  0.00000000000E+00 0. -1.
         21   -1    0    0  502  503 -0.00000000000E+00 -0.00000000000E+00 -0.63635341878E+02  0.63635341878E+02  0.00000000000E+00 0. -1.
         25    2    1    2    0    0  0.42492553685E+01 -0.18569037229E+02  0.25025383166E+01  0.12654659790E+03  0.12507962835E+03 0.  0.
          5    1    3    3  501    0  0.44412157879E+02  0.36682114923E+02 -0.50535874009E+01  0.57823577098E+02  0.10000000000E+00 0.  1.
         -5    1    3    3    0  501 -0.40162902511E+02 -0.55251152153E+02  0.75561257175E+01  0.68723020802E+02  0.10000000000E+00 0.  1.
         21    1    1    2  504  503 -0.42492553685E+01  0.18569037229E+02  0.54616557806E+02  0.57843181978E+02  0.00000000000E+00 0. -1.
<mgrwt>
<rscale>  1 0.12652185E+03</rscale>
<asrwt>0</asrwt>
<pdfrwt beam="1">  1       21 0.18577606E-01 0.12652185E+03</pdfrwt>
<pdfrwt beam="2">  1       21 0.97900526E-02 0.12652185E+03</pdfrwt>
<totfact> 0.22139165E+06</totfact>
</mgrwt>
</event>
<event>
 6    1  0.4187588E-002  0.1270513E+03  0.7546771E-02  0.1231898E+00
         21   -1    0    0  503  502  0.00000000000E+00  0.00000000000E+00  0.40029326615E+03  0.40029326615E+03  0.00000000000E+00 0. -1.
         21   -1    0    0  504  503 -0.00000000000E+00 -0.00000000000E+00 -0.14021609058E+02  0.14021609058E+02  0.00000000000E+00 0. -1.
         25    2    1    2    0    0  0.14702359378E+02 -0.17340289729E+02  0.32366814956E+03  0.34771124037E+03  0.12500076246E+03 0.  0.
          5    1    3    3  501    0 -0.48804100536E+02  0.12920621550E+02  0.19083489486E+03  0.19739997413E+03  0.10000000000E+00 0.  1.
         -5    1    3    3    0  501  0.63506459915E+02 -0.30260911279E+02  0.13283325471E+03  0.15031126624E+03  0.10000000000E+00 0.  1.
         21    1    1    2  504  502 -0.14702359378E+02  0.17340289729E+02  0.62603507525E+02  0.66603634838E+02  0.00000000000E+00 0. -1.
<mgrwt>
<rscale>  1 0.12705131E+03</rscale>
<asrwt>0</asrwt>
<pdfrwt beam="1">  1       21 0.61583571E-01 0.12705131E+03</pdfrwt>
<pdfrwt beam="2">  1       21 0.21571709E-02 0.12705131E+03</pdfrwt>
<totfact> 0.26483238E+06</totfact>
</mgrwt>
</event>
<event>
 6    1  0.4187588E-002  0.1265524E+03  0.7546771E-02  0.1232663E+00
         21   -1    0    0  504  502  0.00000000000E+00  0.00000000000E+00  0.59037191464E+03  0.59037191464E+03  0.00000000000E+00 0.  1.
         21   -1    0    0  502  503 -0.00000000000E+00 -0.00000000000E+00 -0.91485256786E+01  0.91485256786E+01  0.00000000000E+00 0.  1.
         25    2    1    2    0    0  0.16928672607E+02  0.10127211094E+02  0.48067889123E+03  0.49705905059E+03  0.12500545164E+03 0.  0.
          5    1    3    3  501    0 -0.10554138464E+02  0.44891029659E+01  0.46456261832E+03  0.46470418357E+03  0.10000000000E+00 0.  1.
         -5    1    3    3    0  501  0.27482811072E+02  0.56381081278E+01  0.16116272910E+02  0.32354867024E+02  0.10000000000E+00 0.  1.
         21    1    1    2  504  503 -0.16928672607E+02 -0.10127211094E+02  0.10054449773E+03  0.10246138973E+03  0.00000000000E+00 0. -1.
<mgrwt>
<rscale>  1 0.12655237E+03</rscale>
<asrwt>0</asrwt>
<pdfrwt beam="1">  1       21 0.90826419E-01 0.12655237E+03</pdfrwt>
<pdfrwt beam="2">  1       21 0.14074659E-02 0.12655237E+03</pdfrwt>
<totfact> 0.22290572E+06</totfact>
</mgrwt>
</event>
<event>
 6    1  0.4187588E-002  0.1269038E+03  0.7546771E-02  0.1232124E+00
         21   -1    0    0  503  502  0.00000000000E+00  0.00000000000E+00  0.37183623684E+02  0.37183623684E+02  0.00000000000E+00 0.  1.
         21   -1    0    0  504  503 -0.00000000000E+00 -0.00000000000E+00 -0.27582993013E+03  0.27582993013E+03  0.00000000000E+00 0.  1.
         25    2    1    2    0    0 -0.15987395310E+02  0.15085142209E+02 -0.25552313612E+03  0.28530099882E+03  0.12498571322E+03 0.  0.
          5    1    3    3  501    0  0.18790996155E+02 -0.14817637317E+02 -0.23295886038E+03  0.23418476582E+03  0.10000000000E+00 0. -1.
         -5    1    3    3    0  501 -0.34778391465E+02  0.29902779526E+02 -0.22564275739E+02  0.51116232998E+02  0.10000000000E+00 0. -1.
         21    1    1    2  504  502  0.15987395310E+02 -0.15085142209E+02  0.16876829677E+02  0.27712554993E+02  0.00000000000E+00 0.  1.
<mgrwt>
<rscale>  1 0.12690385E+03</rscale>
<asrwt>0</asrwt>
<pdfrwt beam="1">  1       21 0.57205575E-02 0.12690385E+03</pdfrwt>
<pdfrwt beam="2">  1       21 0.42435373E-01 0.12690385E+03</pdfrwt>
<totfact> 0.11433353E+06</totfact>
</mgrwt>
</event>
<event>
 6    1  0.4187588E-002  0.1280823E+03  0.7546771E-02  0.1230329E+00
         21   -1    0    0  503  502  0.00000000000E+00  0.00000000000E+00  0.25123474945E+02  0.25123474945E+02  0.00000000000E+00 0.  1.
         21   -1    0    0  504  503 -0.00000000000E+00 -0.00000000000E+00 -0.44674911309E+03  0.44674911309E+03  0.00000000000E+00 0.  1.
         25    2    1    2    0    0  0.21135304158E+02 -0.18270356395E+02 -0.42486164387E+03  0.44374824382E+03  0.12499832179E+03 0.  0.
          5    1    3    3  501    0 -0.32693662576E+01  0.29552787937E+02 -0.35193705269E+03  0.35319081965E+03  0.10000000000E+00 0.  1.
         -5    1    3    3    0  501  0.24404670416E+02 -0.47823144332E+02 -0.72924591189E+02  0.90557424168E+02  0.10000000000E+00 0.  1.
         21    1    1    2  504  502 -0.21135304158E+02  0.18270356395E+02  0.32360057293E+01  0.28124344219E+02  0.00000000000E+00 0.  1.
<mgrwt>
<rscale>  1 0.12808235E+03</rscale>
<asrwt>0</asrwt>
<pdfrwt beam="1">  1       21 0.38651502E-02 0.12808235E+03</pdfrwt>
<pdfrwt beam="2">  1       21 0.68730629E-01 0.12808235E+03</pdfrwt>
<totfact> 0.80483116E+05</totfact>
</mgrwt>
</event>
<event>
 6    1  0.4187588E-002  0.1337881E+03  0.7546771E-02  0.1221941E+00
         21   -1    0    0  504  502  0.00000000000E+00  0.00000000000E+00  0.13429910649E+03  0.13429910649E+03  0.00000000000E+00 0.  1.
         21   -1    0    0  502  503 -0.00000000000E+00 -0.00000000000E+00 -0.78940385460E+02  0.78940385460E+02  0.00000000000E+00 0.  1.
         25    2    1    2    0    0  0.90069777426E+01 -0.46848539367E+02 -0.78850668909E+01  0.13402025187E+03  0.12499336919E+03 0.  0.
          5    1    3    3  501    0 -0.34030597032E+02  0.21959968653E+02  0.23706549957E+02  0.46929013078E+02  0.10000000000E+00 0.  1.
         -5    1    3    3    0  501  0.43037574774E+02 -0.68808508020E+02 -0.31591616848E+02  0.87091238787E+02  0.10000000000E+00 0.  1.
         21    1    1    2  504  503 -0.90069777426E+01  0.46848539367E+02  0.63243787917E+02  0.79219240081E+02  0.00000000000E+00 0.  1.
<mgrwt>
<rscale>  1 0.13378809E+03</rscale>
<asrwt>0</asrwt>
<pdfrwt beam="1">  1       21 0.20661401E-01 0.13378809E+03</pdfrwt>
<pdfrwt beam="2">  1       21 0.12144675E-01 0.13378809E+03</pdfrwt>
<totfact> 0.12466469E+06</totfact>
</mgrwt>
</event>
<event>
 6    1  0.4187588E-002  0.1275046E+03  0.7546771E-02  0.1231206E+00
         21   -1    0    0  504  502  0.00000000000E+00  0.00000000000E+00  0.27378109181E+02  0.27378109181E+02  0.00000000000E+00 0.  1.
         21   -1    0    0  502  503 -0.00000000000E+00 -0.00000000000E+00 -0.22232649755E+03  0.22232649755E+03  0.00000000000E+00 0.  1.
         25    2    1    2    0    0 -0.22900676141E+02  0.10424761203E+02 -0.17950831316E+03  0.22018321557E+03  0.12499718921E+03 0.  0.
          5    1    3    3  501    0 -0.62203894113E+02 -0.94582867483E+01 -0.41640169516E+02  0.75449965861E+02  0.10000000000E+00 0.  1.
         -5    1    3    3    0  501  0.39303217973E+02  0.19883047951E+02 -0.13786814365E+03  0.14473324971E+03  0.10000000000E+00 0.  1.
         21    1    1    2  504  503  0.22900676141E+02 -0.10424761203E+02 -0.15440075210E+02  0.29521391165E+02  0.00000000000E+00 0. -1.
<mgrwt>
<rscale>  1 0.12750456E+03</rscale>
<asrwt>0</asrwt>
<pdfrwt beam="1">  1       21 0.42120168E-02 0.12750456E+03</pdfrwt>
<pdfrwt beam="2">  1       21 0.34204077E-01 0.12750456E+03</pdfrwt>
<totfact> 0.29321673E+06</totfact>
</mgrwt>
</event>
<event>
 6    1  0.4187588E-002  0.1281344E+03  0.7546771E-02  0.1230250E+00
         21   -1    0    0  503  502  0.00000000000E+00  0.00000000000E+00  0.13676960271E+04  0.13676960271E+04  0.00000000000E+00 0. -1.
         21   -1    0    0  504  503 -0.00000000000E+00 -0.00000000000E+00 -0.31410734932E+02  0.31410734932E+02  0.00000000000E+00 0. -1.
         25    2    1    2    0    0 -0.14921204953E+02 -0.23883341947E+02  0.10009550931E+03  0.16259625435E+03  0.12500149824E+03 0.  0.
          5    1    3    3  501    0  0.73539476799E+01  0.10690074259E+02  0.11729947677E+03  0.11801497992E+03  0.10000000000E+00 0. -1.
         -5    1    3    3    0  501 -0.22275152633E+02 -0.34573416206E+02 -0.17203967462E+02  0.44581274426E+02  0.10000000000E+00 0. -1.
         21    1    1    2  504  502  0.14921204953E+02  0.23883341947E+02  0.12361897829E+04  0.12365105077E+04  0.00000000000E+00 0. -1.
<mgrwt>
<rscale>  1 0.12813443E+03</rscale>
<asrwt>0</asrwt>
<pdfrwt beam="1">  1       21 0.21041473E+00 0.12813443E+03</pdfrwt>
<pdfrwt beam="2">  1       21 0.48324218E-02 0.12813443E+03</pdfrwt>
<totfact> 0.34620872E+04</totfact>
</mgrwt>
</event>
<event>
 6    1  0.4187588E-002  0.1334217E+03  0.7546771E-02  0.1222465E+00
         21   -1    0    0  504  502  0.00000000000E+00  0.00000000000E+00  0.17673503086E+03  0.17673503086E+03  0.00000000000E+00 0. -1.
         21   -1    0    0  502  503 -0.00000000000E+00 -0.00000000000E+00 -0.47480774544E+02  0.47480774544E+02  0.00000000000E+00 0. -1.
         25    2    1    2    0    0 -0.25669751341E+02  0.38954361232E+02  0.76517646533E+02  0.15380608729E+03  0.12499993546E+03 0.  0.
          5    1    3    3  501    0 -0.58194539264E+02  0.28540233190E+02 -0.54136103504E+01  0.65042036312E+02  0.10000000000E+00 0. -1.
         -5    1    3    3    0  501  0.32524787923E+02  0.10414128042E+02  0.81931256883E+02  0.88764050982E+02  0.10000000000E+00 0. -1.
         21    1    1    2  504  503  0.25669751341E+02 -0.38954361232E+02  0.52736609786E+02  0.70409718112E+02  0.00000000000E+00 0. -1.
<mgrwt>
<rscale>  1 0.13342175E+03</rscale>
<asrwt>0</asrwt>
<pdfrwt beam="1">  1       21 0.27190004E-01 0.13342175E+03</pdfrwt>
<pdfrwt beam="2">  1       21 0.73047346E-02 0.13342175E+03</pdfrwt>
<totfact> 0.18049475E+06</totfact>
</mgrwt>
</event>
<event>
 6    1  0.4187588E-002  0.1450183E+03  0.7546771E-02  0.1206732E+00
         21   -1    0    0  503  502  0.00000000000E+00  0.00000000000E+00  0.51791187182E+03  0.51791187182E+03  0.00000000000E+00 0. -1.
         21   -1    0    0  504  503 -0.00000000000E+00 -0.00000000000E+00 -0.26587813229E+02  0.26587813229E+02  0.00000000000E+00 0. -1.
         25    2    1    2    0    0 -0.64896194283E+02 -0.34555470986E+02  0.22081525521E+03  0.26417735395E+03  0.12499880319E+03 0.  0.
          5    1    3    3  501    0 -0.53615931193E+02 -0.68823450620E+02  0.78501447709E+02  0.11736193048E+03  0.10000000000E+00 0. -1.
         -5    1    3    3    0  501 -0.11280263090E+02  0.34267979634E+02  0.14231380750E+03  0.14681542347E+03  0.10000000000E+00 0. -1.
         21    1    1    2  504  502  0.64896194283E+02  0.34555470986E+02  0.27050880338E+03  0.28032233110E+03  0.00000000000E+00 0. -1.
<mgrwt>
<rscale>  1 0.14501827E+03</rscale>
<asrwt>0</asrwt>
<pdfrwt beam="1">  1       21 0.79678742E-01 0.14501827E+03</pdfrwt>
<pdfrwt beam="2">  1       21 0.40904332E-02 0.14501827E+03</pdfrwt>
<totfact> 0.52804781E+05</totfact>
</mgrwt>
</event>
<event>
 6    1  0.4187588E-002  0.1269734E+03  0.7546771E-02  0.1232017E+00
         21   -1    0    0  503  502  0.00000000000E+00  0.00000000000E+00  0.86232001230E+03  0.86232001230E+03  0.00000000000E+00 0. -1.
         21   -1    0    0  504  503 -0.00000000000E+00 -0.00000000000E+00 -0.28046539035E+02  0.28046539035E+02  0.00000000000E+00 0.  1.
         25    2    1    2    0    0  0.67347059442E+01 -0.21220188534E+02  0.11672591291E+03  0.17247369440E+03  0.12500633524E+03 0.  0.
          5    1    3    3  501    0 -0.42255115020E+02 -0.53070346113E+02  0.71694641728E+02  0.98702016365E+02  0.10000000000E+00 0.  1.
         -5    1    3    3    0  501  0.48989820964E+02  0.31850157579E+02  0.45031271178E+02  0.73771678033E+02  0.10000000000E+00 0.  1.
         21    1    1    2  504  502 -0.67347059442E+01  0.21220188534E+02  0.71754756035E+03  0.71789285693E+03  0.00000000000E+00 0. -1.
<mgrwt>
<rscale>  1 0.12697337E+03</rscale>
<asrwt>0</asrwt>
<pdfrwt beam="1">  1       21 0.13266460E+00 0.12697337E+03</pdfrwt>
<pdfrwt beam="2">  1       21 0.43148528E-02 0.12697337E+03</pdfrwt>
<totfact> 0.14559702E+05</totfact>
</mgrwt>
</event>
<event>
 6    1  0.4187588E-002  0.1271126E+03  0.7546771E-02  0.1231804E+00
         21   -1    0    0  503  502  0.00000000000E+00  0.00000000000E+00  0.20903846155E+02  0.20903846155E+02  0.00000000000E+00 0. -1.
         21   -1    0    0  504  503 -0.00000000000E+00 -0.00000000000E+00 -0.29884398626E+03  0.29884398626E+03  0.00000000000E+00 0. -1.
         25    2    1    2    0    0  0.16338570259E+02 -0.16278648872E+02 -0.26344305509E+03  0.29250615917E+03  0.12500266633E+03 0.  0.
          5    1    3    3  501    0 -0.28984117623E+02 -0.57370874443E+02 -0.15842861812E+03  0.17097114771E+03  0.10000000000E+00 0. -1.
         -5    1    3    3    0  501  0.45322687882E+02  0.41092225571E+02 -0.10501443697E+03  0.12153501146E+03  0.10000000000E+00 0. -1.
         21    1    1    2  504  502 -0.16338570259E+02  0.16278648872E+02 -0.14497085014E+02  0.27241673244E+02  0.00000000000E+00 0. -1.
<mgrwt>
<rscale>  1 0.12711259E+03</rscale>
<asrwt>0</asrwt>
<pdfrwt beam="1">  1       21 0.32159763E-02 0.12711259E+03</pdfrwt>
<pdfrwt beam="2">  1       21 0.45975999E-01 0.12711259E+03</pdfrwt>
<totfact> 0.25382734E+06</totfact>
</mgrwt>
</event>
<event>
 6    1  0.4187588E-002  0.1407073E+03  0.7546771E-02  0.1212380E+00
         21   -1    0    0  503  502  0.00000000000E+00  0.00000000000E+00  0.37009092459E+03  0.37009092459E+03  0.00000000000E+00 0. -1.
         21   -1    0    0  504  503 -0.00000000000E+00 -0.00000000000E+00 -0.20127365319E+03  0.20127365319E+03  0.00000000000E+00 0. -1.
         25    2    1    2    0    0 -0.45348211280E+02 -0.46010663213E+02 -0.17328394550E+03  0.22321707456E+03  0.12500038083E+03 0.  0.
          5    1    3    3  501    0 -0.13598609178E+02 -0.61982857076E+02 -0.17647100873E+03  0.18753352677E+03  0.10000000000E+00 0.  1.
         -5    1    3    3    0  501 -0.31749602102E+02  0.15972193864E+02  0.31870632208E+01  0.35683547783E+02  0.10000000000E+00 0.  1.
         21    1    1    2  504  502  0.45348211280E+02  0.46010663213E+02  0.34210121690E+03  0.34814750322E+03  0.00000000000E+00 0. -1.
<mgrwt>
<rscale>  1 0.14070727E+03</rscale>
<asrwt>0</asrwt>
<pdfrwt beam="1">  1       21 0.56937065E-01 0.14070727E+03</pdfrwt>
<pdfrwt beam="2">  1       21 0.30965178E-01 0.14070727E+03</pdfrwt>
<totfact> 0.29911627E+04</totfact>
</mgrwt>
</event>
<event>
 6    1  0.4187588E-002  0.1269280E+03  0.7546771E-02  0.1232087E+00
         21   -1    0    0  504  502  0.00000000000E+00  0.00000000000E+00  0.24905750990E+03  0.24905750990E+03  0.00000000000E+00 0.  1.
         21   -1    0    0  502  503 -0.00000000000E+00 -0.00000000000E+00 -0.17268456673E+03  0.17268456673E+03  0.00000000000E+00 0. -1.
         25    2    1    2    0    0  0.13517891979E+02  0.17393856393E+02 -0.14875019443E+03  0.19554369749E+03  0.12500175055E+03 0.  0.
          5    1    3    3  501    0  0.38435448866E+02  0.11642279787E+02 -0.16188693162E+03  0.16679392986E+03  0.10000000000E+00 0. -1.
         -5    1    3    3    0  501 -0.24917556886E+02  0.57515766057E+01  0.13136737193E+02  0.28749767629E+02  0.10000000000E+00 0. -1.
         21    1    1    2  504  503 -0.13517891979E+02 -0.17393856393E+02  0.22512313760E+03  0.22619837914E+03  0.00000000000E+00 0.  1.
<mgrwt>
<rscale>  1 0.12692800E+03</rscale>
<asrwt>0</asrwt>
<pdfrwt beam="1">  1       21 0.38316540E-01 0.12692800E+03</pdfrwt>
<pdfrwt beam="2">  1       21 0.26566856E-01 0.12692800E+03</pdfrwt>
<totfact> 0.90926751E+04</totfact>
</mgrwt>
</event>
<event>
 6    1  0.4187588E-002  0.1263948E+03  0.7546771E-02  0.1232905E+00
         21   -1    0    0  503  502  0.00000000000E+00  0.00000000000E+00  0.57982480369E+03  0.57982480369E+03  0.00000000000E+00 0. -1.
         21   -1    0    0  504  503 -0.00000000000E+00 -0.00000000000E+00 -0.95791503571E+01  0.95791503571E+01  0.00000000000E+00 0. -1.
         25    2    1    2    0    0 -0.15668652207E+02  0.10165327929E+02  0.43890622104E+03  0.45674315716E+03  0.12500720058E+03 0.  0.
          5    1    3    3  501    0  0.17679794251E+02  0.60467902015E+02  0.27373021226E+03  0.28088642082E+03  0.10000000000E+00 0.  1.
         -5    1    3    3    0  501 -0.33348446458E+02 -0.50302574087E+02  0.16517600878E+03  0.17585673634E+03  0.10000000000E+00 0.  1.
         21    1    1    2  504  502  0.15668652207E+02 -0.10165327929E+02  0.13133943230E+03  0.13266079688E+03  0.00000000000E+00 0. -1.
<mgrwt>
<rscale>  1 0.12639478E+03</rscale>
<asrwt>0</asrwt>
<pdfrwt beam="1">  1       21 0.89203789E-01 0.12639478E+03</pdfrwt>
<pdfrwt beam="2">  1       21 0.14737159E-02 0.12639478E+03</pdfrwt>
<totfact> 0.21585274E+06</totfact>
</mgrwt>
</event>
<event>
 6    1  0.4187588E-002  0.1269092E+03  0.7546771E-02  0.1232115E+00
         21   -1    0    0  503  502  0.00000000000E+00  0.00000000000E+00  0.19051750793E+03  0.19051750793E+03  0.00000000000E+00 0. -1.
         21   -1    0    0  504  503 -0.00000000000E+00 -0.00000000000E+00 -0.29248536822E+02  0.29248536822E+02  0.00000000000E+00 0. -1.
         25    2    1    2    0    0 -0.58458523931E+01 -0.21171187735E+02  0.13126983732E+03  0.18258619526E+03  0.12499422118E+03 0.  0.
          5    1    3    3  501    0  0.15194742524E+02 -0.11955176521E+02 -0.21028117601E+02  0.28565681786E+02  0.10000000000E+00 0. -1.
         -5    1    3    3    0  501 -0.21040594918E+02 -0.92160112141E+01  0.15229795492E+03  0.15402051348E+03  0.10000000000E+00 0. -1.
         21    1    1    2  504  502  0.58458523931E+01  0.21171187735E+02  0.29999133788E+02  0.37179849494E+02  0.00000000000E+00 0. -1.
<mgrwt>
<rscale>  1 0.12690921E+03</rscale>
<asrwt>0</asrwt>
<pdfrwt beam="1">  1       21 0.29310385E-01 0.12690921E+03</pdfrwt>
<pdfrwt beam="2">  1       21 0.44997750E-02 0.12690921E+03</pdfrwt>
<totfact> 0.35429136E+06</totfact>
</mgrwt>
</event>
<event>
 6    1  0.4187588E-002  0.1296621E+03  0.7546771E-02  0.1227958E+00
         21   -1    0    0  504  502  0.00000000000E+00  0.00000000000E+00  0.89111973959E+03  0.89111973959E+03  0.00000000000E+00 0. -1.
         21   -1    0    0  502  503 -0.00000000000E+00 -0.00000000000E+00 -0.13746380640E+02  0.13746380640E+02  0.00000000000E+00 0. -1.
         25    2    1    2    0    0  0.30845350497E+02 -0.15327960784E+02  0.30448401558E+03  0.33094227356E+03  0.12500356258E+03 0.  0.
          5    1    3    3  501    0 -0.30869253487E+01 -0.57768495681E+02  0.72881279416E+02  0.93050626492E+02  0.10000000000E+00 0.  1.
         -5    1    3    3    0  501  0.33932275846E+02  0.42440534896E+02  0.23160273616E+03  0.23789164707E+03  0.10000000000E+00 0.  1.
         21    1    1    2  504  503 -0.30845350497E+02  0.15327960784E+02  0.57288934337E+03  0.57392384667E+03  0.00000000000E+00 0. -1.
<mgrwt>
<rscale>  1 0.12966215E+03</rscale>
<asrwt>0</asrwt>
<pdfrwt beam="1">  1       21 0.13709530E+00 0.12966215E+03</pdfrwt>
<pdfrwt beam="2">  1       21 0.21148285E-02 0.12966215E+03</pdfrwt>
<totfact> 0.43163805E+05</totfact>
</mgrwt>
</event>
<event>
 6    1  0.4187588E-002  0.1273628E+03  0.7546771E-02  0.1231422E+00
         21   -1    0    0  504  502  0.00000000000E+00  0.00000000000E+00  0.55384543286E+02  0.55384543286E+02  0.00000000000E+00 0. -1.
         21   -1    0    0  502  503 -0.00000000000E+00 -0.00000000000E+00 -0.18459607435E+03  0.18459607435E+03  0.00000000000E+00 0. -1.
         25    2    1    2    0    0 -0.21020006612E+02 -0.12155063899E+02 -0.15759611273E+03  0.20262729473E+03  0.12502679538E+03 0.  0.
          5    1    3    3  501    0 -0.37376732021E+02  0.37563122520E+02 -0.22174854300E+02  0.57443384591E+02  0.10000000000E+00 0.  1.
         -5    1    3    3    0  501  0.16356725409E+02 -0.49718186419E+02 -0.13542125843E+03  0.14518391014E+03  0.10000000000E+00 0.  1.
         21    1    1    2  504  503  0.21020006612E+02  0.12155063899E+02  0.28384581665E+02  0.37353322913E+02  0.00000000000E+00 0. -1.
<mgrwt>
<rscale>  1 0.12736281E+03</rscale>
<asrwt>0</asrwt>
<pdfrwt beam="1">  1       21 0.85206991E-02 0.12736281E+03</pdfrwt>
<pdfrwt beam="2">  1       21 0.28399396E-01 0.12736281E+03</pdfrwt>
<totfact> 0.12725775E+06</totfact>
</mgrwt>
</event>
<event>
 6    1  0.4187588E-002  0.1281737E+03  0.7546771E-02  0.1230191E+00
         21   -1    0    0  503  502  0.00000000000E+00  0.00000000000E+00  0.24724412049E+03  0.24724412049E+03  0.00000000000E+00 0.  1.
         21   -1    0    0  504  503 -0.00000000000E+00 -0.00000000000E+00 -0.68290385773E+03  0.68290385773E+03  0.00000000000E+00 0. -1.
         25    2    1    2    0    0 -0.27058080036E+02  0.84408853401E+01 -0.67604968673E+03  0.68809278604E+03  0.12500046013E+03 0.  0.
          5    1    3    3  501    0 -0.62057317432E+02 -0.20819627361E+02 -0.55296991775E+03  0.55683059135E+03  0.10000000000E+00 0. -1.
         -5    1    3    3    0  501  0.34999237397E+02  0.29260512701E+02 -0.12307976898E+03  0.13126219469E+03  0.10000000000E+00 0. -1.
         21    1    1    2  504  502  0.27058080036E+02 -0.84408853401E+01  0.24038994950E+03  0.24205519218E+03  0.00000000000E+00 0.  1.
<mgrwt>
<rscale>  1 0.12817372E+03</rscale>
<asrwt>0</asrwt>
<pdfrwt beam="1">  1       21 0.38037557E-01 0.12817372E+03</pdfrwt>
<pdfrwt beam="2">  1       21 0.10506213E+00 0.12817372E+03</pdfrwt>
<totfact> 0.51549771E+03</totfact>
</mgrwt>
</event>
<event>
 6    1  0.4187588E-002  0.1264316E+03  0.7546771E-02  0.1232849E+00
         21   -1    0    0  503  502  0.00000000000E+00  0.00000000000E+00  0.21325631000E+03  0.21325631000E+03  0.00000000000E+00 0. -1.
         21   -1    0    0  504  503 -0.00000000000E+00 -0.00000000000E+00 -0.79363402162E+02  0.79363402162E+02  0.00000000000E+00 0. -1.
         25    2    1    2    0    0 -0.14643188253E+02  0.12105554404E+02 -0.28099873004E+02  0.12951659001E+03  0.12499590720E+03 0.  0.
          5    1    3    3  501    0 -0.11636402360E+02  0.54544611761E+02 -0.55684053938E+02  0.78811448375E+02  0.10000000000E+00 0.  1.
         -5    1    3    3    0  501 -0.30067858928E+01 -0.42439057356E+02  0.27584180933E+02  0.50705141637E+02  0.10000000000E+00 0.  1.
         21    1    1    2  504  502  0.14643188253E+02 -0.12105554404E+02  0.16199278085E+03  0.16310312215E+03  0.00000000000E+00 0. -1.
<mgrwt>
<rscale>  1 0.12643158E+03</rscale>
<asrwt>0</asrwt>
<pdfrwt beam="1">  1       21 0.32808663E-01 0.12643158E+03</pdfrwt>
<pdfrwt beam="2">  1       21 0.12209754E-01 0.12643158E+03</pdfrwt>
<totfact> 0.51285270E+05</totfact>
</mgrwt>
</event>
<event>
 6    1  0.4187588E-002  0.1259249E+03  0.7546771E-02  0.1233631E+00
         21   -1    0    0  503  502  0.00000000000E+00  0.00000000000E+00  0.10555712287E+03  0.10555712287E+03  0.00000000000E+00 0. -1.
         21   -1    0    0  504  503 -0.00000000000E+00 -0.00000000000E+00 -0.53794782263E+02  0.53794782263E+02  0.00000000000E+00 0. -1.
         25    2    1    2    0    0  0.15142015828E+02  0.18084366874E+01  0.24752736615E+02  0.12833465518E+03  0.12499813864E+03 0.  0.
          5    1    3    3  501    0 -0.11235388859E+02 -0.24454695376E+02 -0.43175570509E+02  0.50876379367E+02  0.10000000000E+00 0.  1.
         -5    1    3    3    0  501  0.26377404688E+02  0.26263132063E+02  0.67928307124E+02  0.77458275817E+02  0.10000000000E+00 0.  1.
         21    1    1    2  504  502 -0.15142015828E+02 -0.18084366874E+01  0.27009603988E+02  0.31017249946E+02  0.00000000000E+00 0.  1.
<mgrwt>
<rscale>  1 0.12592492E+03</rscale>
<asrwt>0</asrwt>
<pdfrwt beam="1">  1       21 0.16239557E-01 0.12592492E+03</pdfrwt>
<pdfrwt beam="2">  1       21 0.82761204E-02 0.12592492E+03</pdfrwt>
<totfact> 0.37869373E+06</totfact>
</mgrwt>
</event>
<event>
 6    1  0.4187588E-002  0.1272604E+03  0.7546771E-02  0.1231578E+00
         21   -1    0    0  504  502  0.00000000000E+00  0.00000000000E+00  0.52316276278E+02  0.52316276278E+02  0.00000000000E+00 0. -1.
         21   -1    0    0  502  503 -0.00000000000E+00 -0.00000000000E+00 -0.12714874128E+03  0.12714874128E+03  0.00000000000E+00 0. -1.
         25    2    1    2    0    0  0.23853490693E+02 -0.36570357820E+00 -0.85518033750E+02  0.15332493079E+03  0.12500431011E+03 0.  0.
          5    1    3    3  501    0  0.62078755598E+02 -0.37462287177E+02 -0.60699301457E+02  0.94560087006E+02  0.10000000000E+00 0. -1.
         -5    1    3    3    0  501 -0.38225264906E+02  0.37096583599E+02 -0.24818732293E+02  0.58764843780E+02  0.10000000000E+00 0. -1.
         21    1    1    2  504  503 -0.23853490693E+02  0.36570357820E+00  0.10685568744E+02  0.26140086777E+02  0.00000000000E+00 0. -1.
<mgrwt>
<rscale>  1 0.12726036E+03</rscale>
<asrwt>0</asrwt>
<pdfrwt beam="1">  1       21 0.80486579E-02 0.12726036E+03</pdfrwt>
<pdfrwt beam="2">  1       21 0.19561345E-01 0.12726036E+03</pdfrwt>
<totfact> 0.28287113E+06</totfact>
</mgrwt>
</event>
<event>
 6    1  0.4187588E-002  0.1301887E+03  0.7546771E-02  0.1227176E+00
         21   -1    0    0  503  502  0.00000000000E+00  0.00000000000E+00  0.55849696014E+02  0.55849696014E+02  0.00000000000E+00 0.  1.
         21   -1    0    0  504  503 -0.00000000000E+00 -0.00000000000E+00 -0.12442505801E+03  0.12442505801E+03  0.00000000000E+00 0.  1.
         25    2    1    2    0    0  0.21727176018E+02  0.29208991175E+02 -0.50617133427E+02  0.13968247254E+03  0.12499545429E+03 0.  0.
          5    1    3    3  501    0  0.65219185655E+02 -0.85244901207E+01 -0.49106539955E+02  0.82083319716E+02  0.10000000000E+00 0.  1.
         -5    1    3    3    0  501 -0.43492009637E+02  0.37733481295E+02 -0.15105934717E+01  0.57599152820E+02  0.10000000000E+00 0.  1.
         21    1    1    2  504  502 -0.21727176018E+02 -0.29208991175E+02 -0.17958228572E+02  0.40592281490E+02  0.00000000000E+00 0.  1.
<mgrwt>
<rscale>  1 0.13018871E+03</rscale>
<asrwt>0</asrwt>
<pdfrwt beam="1">  1       21 0.85922610E-02 0.13018871E+03</pdfrwt>
<pdfrwt beam="2">  1       21 0.19142316E-01 0.13018871E+03</pdfrwt>
<totfact> 0.26316984E+06</totfact>
</mgrwt>
</event>
<event>
 6    1  0.4187588E-002  0.1273396E+03  0.7546771E-02  0.1231458E+00
         21   -1    0    0  503  502  0.00000000000E+00  0.00000000000E+00  0.11597472140E+03  0.11597472140E+03  0.00000000000E+00 0. -1.
         21   -1    0    0  504  503 -0.00000000000E+00 -0.00000000000E+00 -0.23061477090E+03  0.23061477090E+03  0.00000000000E+00 0.  1.
         25    2    1    2    0    0 -0.48249830638E+01  0.23831240824E+02 -0.21141710446E+03  0.24680468951E+03  0.12499661677E+03 0.  0.
          5    1    3    3  501    0 -0.61793711167E+02  0.26493515292E+02 -0.14084130937E+03  0.15606618313E+03  0.10000000000E+00 0. -1.
         -5    1    3    3    0  501  0.56968728104E+02 -0.26622744675E+01 -0.70575795092E+02  0.90738506379E+02  0.10000000000E+00 0. -1.
         21    1    1    2  504  502  0.48249830638E+01 -0.23831240824E+02  0.96777054957E+02  0.99784802786E+02  0.00000000000E+00 0. -1.
<mgrwt>
<rscale>  1 0.12733956E+03</rscale>
<asrwt>0</asrwt>
<pdfrwt beam="1">  1       21 0.17842265E-01 0.12733956E+03</pdfrwt>
<pdfrwt beam="2">  1       21 0.35479195E-01 0.12733956E+03</pdfrwt>
<totfact> 0.22227032E+05</totfact>
</mgrwt>
</event>
<event>
 6    1  0.4187588E-002  0.1286250E+03  0.7546771E-02  0.1229510E+00
         21   -1    0    0  504  502  0.00000000000E+00  0.00000000000E+00  0.10085384833E+03  0.10085384833E+03  0.00000000000E+00 0.  1.
         21   -1    0    0  502  503 -0.00000000000E+00 -0.00000000000E+00 -0.64750894211E+02  0.64750894211E+02  0.00000000000E+00 0.  1.
         25    2    1    2    0    0  0.23754309518E+02 -0.19029489655E+02  0.17185044570E+02  0.12976794583E+03  0.12497201811E+03 0.  0.
          5    1    3    3  501    0 -0.46590514018E+02 -0.29848544458E+02 -0.40935077395E+01  0.55483136252E+02  0.10000000000E+00 0. -1.
         -5    1    3    3    0  501  0.70344823536E+02  0.10819054802E+02  0.21278552310E+02  0.74284809575E+02  0.10000000000E+00 0. -1.
         21    1    1    2  504  503 -0.23754309518E+02  0.19029489655E+02  0.18917909552E+02  0.35836796719E+02  0.00000000000E+00 0.  1.
<mgrwt>
<rscale>  1 0.12862501E+03</rscale>
<asrwt>0</asrwt>
<pdfrwt beam="1">  1       21 0.15515977E-01 0.12862501E+03</pdfrwt>
<pdfrwt beam="2">  1       21 0.99616760E-02 0.12862501E+03</pdfrwt>
<totfact> 0.29828348E+06</totfact>
</mgrwt>
</event>
<event>
 6    1  0.4187588E-002  0.1263338E+03  0.7546771E-02  0.1232999E+00
         21   -1    0    0  504  502  0.00000000000E+00  0.00000000000E+00  0.95116481747E+02  0.95116481747E+02  0.00000000000E+00 0. -1.
         21   -1    0    0  502  503 -0.00000000000E+00 -0.00000000000E+00 -0.68876833542E+02  0.68876833542E+02  0.00000000000E+00 0. -1.
         25    2    1    2    0    0  0.14539528157E+02  0.11093453541E+02 -0.64903949442E+01  0.12650040509E+03  0.12500305865E+03 0.  0.
          5    1    3    3  501    0 -0.46088376224E+02  0.46608734784E+01 -0.36093819318E+02  0.58725087974E+02  0.10000000000E+00 0. -1.
         -5    1    3    3    0  501  0.60627904381E+02  0.64325800624E+01  0.29603424374E+02  0.67775317119E+02  0.10000000000E+00 0. -1.
         21    1    1    2  504  503 -0.14539528157E+02 -0.11093453541E+02  0.32730043149E+02  0.37492910197E+02  0.00000000000E+00 0. -1.
<mgrwt>
<rscale>  1 0.12633379E+03</rscale>
<asrwt>0</asrwt>
<pdfrwt beam="1">  1       21 0.14633305E-01 0.12633379E+03</pdfrwt>
<pdfrwt beam="2">  1       21 0.10596436E-01 0.12633379E+03</pdfrwt>
<totfact> 0.29728978E+06</totfact>
</mgrwt>
</event>
<event>
 6    1  0.4187588E-002  0.1259521E+03  0.7546771E-02  0.1233589E+00
         21   -1    0    0  504  502  0.00000000000E+00  0.00000000000E+00  0.84658885939E+02  0.84658885939E+02  0.00000000000E+00 0.  1.
         21   -1    0    0  502  503 -0.00000000000E+00 -0.00000000000E+00 -0.77404906382E+02  0.77404906382E+02  0.00000000000E+00 0.  1.
         25    2    1    2    0    0  0.10004829433E+02 -0.11699188969E+02 -0.23078187611E+02  0.12804897203E+03  0.12500787519E+03 0.  0.
          5    1    3    3  501    0  0.35035804196E+02 -0.83207343622E+01  0.43716482944E+02  0.56638176851E+02  0.10000000000E+00 0. -1.
         -5    1    3    3    0  501 -0.25030974764E+02 -0.33784546066E+01 -0.66794670555E+02  0.71410795176E+02  0.10000000000E+00 0. -1.
         21    1    1    2  504  503 -0.10004829433E+02  0.11699188969E+02  0.30332167168E+02  0.34014820294E+02  0.00000000000E+00 0.  1.
<mgrwt>
<rscale>  1 0.12595212E+03</rscale>
<asrwt>0</asrwt>
<pdfrwt beam="1">  1       21 0.13024444E-01 0.12595212E+03</pdfrwt>
<pdfrwt beam="2">  1       21 0.11908447E-01 0.12595212E+03</pdfrwt>
<totfact> 0.29808169E+06</totfact>
</mgrwt>
</event>
<event>
 6    1  0.4187588E-002  0.1259725E+03  0.7546771E-02  0.1233557E+00
         21   -1    0    0  503  502  0.00000000000E+00  0.00000000000E+00  0.17127626730E+03  0.17127626730E+03  0.00000000000E+00 0.  1.
         21   -1    0    0  504  503 -0.00000000000E+00 -0.00000000000E+00 -0.90656697577E+02  0.90656697577E+02  0.00000000000E+00 0.  1.
         25    2    1    2    0    0  0.19802648413E+01  0.15503416631E+02 -0.46182592373E+02  0.13417121126E+03  0.12499921886E+03 0.  0.
          5    1    3    3  501    0  0.10485365859E+02  0.21499512063E+02 -0.87940701655E+02  0.91135881648E+02  0.10000000000E+00 0. -1.
         -5    1    3    3    0  501 -0.85051010178E+01 -0.59960954322E+01  0.41758109282E+02  0.43035329609E+02  0.10000000000E+00 0. -1.
         21    1    1    2  504  502 -0.19802648413E+01 -0.15503416631E+02  0.12680216210E+03  0.12776175362E+03  0.00000000000E+00 0.  1.
<mgrwt>
<rscale>  1 0.12597254E+03</rscale>
<asrwt>0</asrwt>
<pdfrwt beam="1">  1       21 0.26350195E-01 0.12597254E+03</pdfrwt>
<pdfrwt beam="2">  1       21 0.13947184E-01 0.12597254E+03</pdfrwt>
<totfact> 0.61681807E+05</totfact>
</mgrwt>
</event>
<event>
 6    1  0.4187588E-002  0.1524806E+03  0.7546771E-02  0.1197458E+00
         21   -1    0    0  503  502  0.00000000000E+00  0.00000000000E+00  0.23625030307E+03  0.23625030307E+03  0.00000000000E+00 0.  1.
         21   -1    0    0  504  503 -0.00000000000E+00 -0.00000000000E+00 -0.96853485512E+02  0.96853485512E+02  0.00000000000E+00 0.  1.
         25    2    1    2    0    0  0.50297905154E+02 -0.71374445879E+02 -0.17565776377E+02  0.15348907125E+03  0.12500459074E+03 0.  0.
          5    1    3    3  501    0  0.54416402832E+02 -0.81152281660E+02  0.31988940207E+02  0.10281118622E+03  0.10000000000E+00 0.  1.
         -5    1    3    3    0  501 -0.41184976783E+01  0.97778357812E+01 -0.49554716584E+02  0.50677885033E+02  0.10000000000E+00 0.  1.
         21    1    1    2  504  502 -0.50297905154E+02  0.71374445879E+02  0.15696259393E+03  0.17961471733E+03  0.00000000000E+00 0.  1.
<mgrwt>
<rscale>  1 0.15248062E+03</rscale>
<asrwt>0</asrwt>
<pdfrwt beam="1">  1       21 0.36346200E-01 0.15248062E+03</pdfrwt>
<pdfrwt beam="2">  1       21 0.14900536E-01 0.15248062E+03</pdfrwt>
<totfact> 0.29255493E+05</totfact>
</mgrwt>
</event>
<event>
 6    1  0.4187588E-002  0.1259300E+03  0.7546771E-02  0.1233623E+00
         21   -1    0    0  503  502  0.00000000000E+00  0.00000000000E+00  0.41633627844E+03  0.41633627844E+03  0.00000000000E+00 0.  1.
         21   -1    0    0  504  503 -0.00000000000E+00 -0.00000000000E+00 -0.32130772278E+03  0.32130772278E+03  0.00000000000E+00 0.  1.
         25    2    1    2    0    0 -0.25936916856E+01 -0.15056801119E+02 -0.30881880287E+03  0.33350773276E+03  0.12499968122E+03 0.  0.
          5    1    3    3  501    0 -0.14310795606E+01  0.52755801114E+02 -0.89074908497E+02  0.10353536528E+03  0.10000000000E+00 0. -1.
         -5    1    3    3    0  501 -0.11626121250E+01 -0.67812602233E+02 -0.21974389438E+03  0.22997236748E+03  0.10000000000E+00 0. -1.
         21    1    1    2  504  502  0.25936916856E+01  0.15056801119E+02  0.40384735853E+03  0.40413626846E+03  0.00000000000E+00 0.  1.
<mgrwt>
<rscale>  1 0.12592996E+03</rscale>
<asrwt>0</asrwt>
<pdfrwt beam="1">  1       21 0.64051735E-01 0.12592996E+03</pdfrwt>
<pdfrwt beam="2">  1       21 0.49431957E-01 0.12592996E+03</pdfrwt>
<totfact> 0.92558312E+03</totfact>
</mgrwt>
</event>
<event>
 6    1  0.4187588E-002  0.1374440E+03  0.7546771E-02  0.1216810E+00
         21   -1    0    0  503  502  0.00000000000E+00  0.00000000000E+00  0.26986810791E+04  0.26986810791E+04  0.00000000000E+00 0.  1.
         21   -1    0    0  504  503 -0.00000000000E+00 -0.00000000000E+00 -0.36115576412E+01  0.36115576412E+01  0.00000000000E+00 0.  1.
         25    2    1    2    0    0  0.53783957203E+02 -0.19332818977E+02  0.16785761316E+04  0.16841937793E+04  0.12499753853E+03 0.  0.
          5    1    3    3  501    0  0.30376867001E+02  0.50360392238E+02  0.52659809117E+03  0.52987213814E+03  0.10000000000E+00 0.  1.
         -5    1    3    3    0  501  0.23407090202E+02 -0.69693211215E+02  0.11519780404E+04  0.11543216411E+04  0.10000000000E+00 0.  1.
         21    1    1    2  504  502 -0.53783957203E+02  0.19332818977E+02  0.10164933898E+04  0.10180988575E+04  0.00000000000E+00 0.  1.
<mgrwt>
<rscale>  1 0.13744401E+03</rscale>
<asrwt>0</asrwt>
<pdfrwt beam="1">  1       21 0.41518009E+00 0.13744401E+03</pdfrwt>
<pdfrwt beam="2">  1       21 0.55562641E-03 0.13744401E+03</pdfrwt>
<totfact> 0.71016429E+04</totfact>
</mgrwt>
</event>
<event>
 6    1  0.4187588E-002  0.1393915E+03  0.7546771E-02  0.1214150E+00
         21   -1    0    0  504  502  0.00000000000E+00  0.00000000000E+00  0.50311784454E+02  0.50311784454E+02  0.00000000000E+00 0. -1.
         21   -1    0    0  502  503 -0.00000000000E+00 -0.00000000000E+00 -0.37381282791E+03  0.37381282791E+03  0.00000000000E+00 0. -1.
         25    2    1    2    0    0  0.31405081066E+02  0.53092401433E+02 -0.33366203140E+03  0.36160799152E+03  0.12499962450E+03 0.  0.
          5    1    3    3  501    0  0.29417070957E+02  0.81260678898E+02 -0.13068189570E+03  0.15667300298E+03  0.10000000000E+00 0.  1.
         -5    1    3    3    0  501  0.19880101085E+01 -0.28168277465E+02 -0.20298013569E+03  0.20493498853E+03  0.10000000000E+00 0.  1.
         21    1    1    2  504  503 -0.31405081066E+02 -0.53092401433E+02  0.10160987937E+02  0.62516620850E+02  0.00000000000E+00 0. -1.
<mgrwt>
<rscale>  1 0.13939149E+03</rscale>
<asrwt>0</asrwt>
<pdfrwt beam="1">  1       21 0.77402744E-02 0.13939149E+03</pdfrwt>
<pdfrwt beam="2">  1       21 0.57509667E-01 0.13939149E+03</pdfrwt>
<totfact> 0.36439442E+05</totfact>
</mgrwt>
</event>
<event>
 6    1  0.4187588E-002  0.1261454E+03  0.7546771E-02  0.1233290E+00
         21   -1    0    0  503  502  0.00000000000E+00  0.00000000000E+00  0.38240523140E+03  0.38240523140E+03  0.00000000000E+00 0. -1.
         21   -1    0    0  504  503 -0.00000000000E+00 -0.00000000000E+00 -0.29367874260E+02  0.29367874260E+02  0.00000000000E+00 0. -1.
         25    2    1    2    0    0  0.15010625108E+02 -0.80359581931E+01  0.10776215940E+03  0.16590765848E+03  0.12499109030E+03 0.  0.
          5    1    3    3  501    0 -0.22014567148E+02  0.43467755618E+02  0.86006313912E+02  0.98849294271E+02  0.10000000000E+00 0. -1.
         -5    1    3    3    0  501  0.37025192256E+02 -0.51503713811E+02  0.21755845491E+02  0.67058364213E+02  0.10000000000E+00 0. -1.
         21    1    1    2  504  502 -0.15010625108E+02  0.80359581931E+01  0.24527519774E+03  0.24586544718E+03  0.00000000000E+00 0. -1.
<mgrwt>
<rscale>  1 0.12614542E+03</rscale>
<asrwt>0</asrwt>
<pdfrwt beam="1">  1       21 0.58831570E-01 0.12614542E+03</pdfrwt>
<pdfrwt beam="2">  1       21 0.45181348E-02 0.12614542E+03</pdfrwt>
<totfact> 0.86632673E+05</totfact>
</mgrwt>
</event>
<event>
 6    1  0.4187588E-002  0.1264706E+03  0.7546771E-02  0.1232789E+00
         21   -1    0    0  504  502  0.00000000000E+00  0.00000000000E+00  0.13759906397E+02  0.13759906397E+02  0.00000000000E+00 0.  1.
         21   -1    0    0  502  503 -0.00000000000E+00 -0.00000000000E+00 -0.39292172561E+03  0.39292172561E+03  0.00000000000E+00 0.  1.
         25    2    1    2    0    0  0.11295912932E+02 -0.15527455244E+02 -0.34561892139E+03  0.36803159307E+03  0.12500446056E+03 0.  0.
          5    1    3    3  501    0 -0.22188844609E+02 -0.31664587204E+02 -0.26780951710E+02  0.47034245847E+02  0.10000000000E+00 0. -1.
         -5    1    3    3    0  501  0.33484757541E+02  0.16137131959E+02 -0.31883796968E+03  0.32099734722E+03  0.10000000000E+00 0. -1.
         21    1    1    2  504  503 -0.11295912932E+02  0.15527455244E+02 -0.33542897825E+02  0.38650038937E+02  0.00000000000E+00 0. -1.
<mgrwt>
<rscale>  1 0.12647061E+03</rscale>
<asrwt>0</asrwt>
<pdfrwt beam="1">  1       21 0.21169084E-02 0.12647061E+03</pdfrwt>
<pdfrwt beam="2">  1       21 0.60449504E-01 0.12647061E+03</pdfrwt>
<totfact> 0.28400623E+06</totfact>
</mgrwt>
</event>
<event>
 6    1  0.4187588E-002  0.1266125E+03  0.7546771E-02  0.1232570E+00
         21   -1    0    0  504  502  0.00000000000E+00  0.00000000000E+00  0.22443409260E+03  0.22443409260E+03  0.00000000000E+00 0.  1.
         21   -1    0    0  502  503 -0.00000000000E+00 -0.00000000000E+00 -0.31619491876E+02  0.31619491876E+02  0.00000000000E+00 0.  1.
         25    2    1    2    0    0  0.31531244569E+01  0.19892434115E+02  0.10073501344E+03  0.16179701164E+03  0.12500031565E+03 0.  0.
          5    1    3    3  501    0 -0.26445650701E+02  0.21929724118E+02  0.12105564065E+03  0.12583625620E+03  0.10000000000E+00 0.  1.
         -5    1    3    3    0  501  0.29598775158E+02 -0.20372900030E+01 -0.20320627211E+02  0.35960755437E+02  0.10000000000E+00 0.  1.
         21    1    1    2  504  503 -0.31531244569E+01 -0.19892434115E+02  0.92079587284E+02  0.94256572839E+02  0.00000000000E+00 0.  1.
<mgrwt>
<rscale>  1 0.12661252E+03</rscale>
<asrwt>0</asrwt>
<pdfrwt beam="1">  1       21 0.34528321E-01 0.12661252E+03</pdfrwt>
<pdfrwt beam="2">  1       21 0.48645373E-02 0.12661252E+03</pdfrwt>
<totfact> 0.22623148E+06</totfact>
</mgrwt>
</event>
<event>
 6    1  0.4187588E-002  0.1264827E+03  0.7546771E-02  0.1232770E+00
         21   -1    0    0  504  502  0.00000000000E+00  0.00000000000E+00  0.20152045722E+03  0.20152045722E+03  0.00000000000E+00 0. -1.
         21   -1    0    0  502  503 -0.00000000000E+00 -0.00000000000E+00 -0.14951241162E+03  0.14951241162E+03  0.00000000000E+00 0. -1.
         25    2    1    2    0    0  0.11629339417E+02  0.15318946910E+02 -0.12213786732E+03  0.17582810104E+03  0.12501180270E+03 0.  0.
          5    1    3    3  501    0  0.28500433349E+01  0.68799586226E+02 -0.88146666445E+02  0.11185414886E+03  0.10000000000E+00 0. -1.
         -5    1    3    3    0  501  0.87792960824E+01 -0.53480639315E+02 -0.33991200872E+02  0.63973952184E+02  0.10000000000E+00 0. -1.
         21    1    1    2  504  503 -0.11629339417E+02 -0.15318946910E+02  0.17414591292E+03  0.17520476779E+03  0.00000000000E+00 0. -1.
<mgrwt>
<rscale>  1 0.12648266E+03</rscale>
<asrwt>0</asrwt>
<pdfrwt beam="1">  1       21 0.31003147E-01 0.12648266E+03</pdfrwt>
<pdfrwt beam="2">  1       21 0.23001909E-01 0.12648266E+03</pdfrwt>
<totfact> 0.18076119E+05</totfact>
</mgrwt>
</event>
<event>
 6    1  0.4187588E-002  0.1333978E+03  0.7546771E-02  0.1222499E+00
         21   -1    0    0  504  502  0.00000000000E+00  0.00000000000E+00  0.49732278909E+02  0.49732278909E+02  0.00000000000E+00 0.  1.
         21   -1    0    0  502  503 -0.00000000000E+00 -0.00000000000E+00 -0.17406843860E+03  0.17406843860E+03  0.00000000000E+00 0.  1.
         25    2    1    2    0    0 -0.57456883413E+01  0.46235029628E+02 -0.11534511071E+03  0.17635042919E+03  0.12499715362E+03 0.  0.
          5    1    3    3  501    0 -0.47644858965E+02  0.72560328568E+01 -0.10849185288E+03  0.11871467787E+03  0.10000000000E+00 0. -1.
         -5    1    3    3    0  501  0.41899170623E+02  0.38978996771E+02 -0.68532578238E+01  0.57635751327E+02  0.10000000000E+00 0. -1.
         21    1    1    2  504  503  0.57456883413E+01 -0.46235029628E+02 -0.89910489806E+01  0.47450288313E+02  0.00000000000E+00 0.  1.
<mgrwt>
<rscale>  1 0.13339782E+03</rscale>
<asrwt>0</asrwt>
<pdfrwt beam="1">  1       21 0.76511197E-02 0.13339782E+03</pdfrwt>
<pdfrwt beam="2">  1       21 0.26779760E-01 0.13339782E+03</pdfrwt>
<totfact> 0.17158242E+06</totfact>
</mgrwt>
</event>
<event>
 6    1  0.4187588E-002  0.1259319E+03  0.7546771E-02  0.1233620E+00
         21   -1    0    0  504  502  0.00000000000E+00  0.00000000000E+00  0.12289573599E+02  0.12289573599E+02  0.00000000000E+00 0. -1.
         21   -1    0    0  502  503 -0.00000000000E+00 -0.00000000000E+00 -0.78920477390E+03  0.78920477390E+03  0.00000000000E+00 0. -1.
         25    2    1    2    0    0  0.15446718268E+02 -0.39562501510E+00 -0.77585221096E+03  0.78600604318E+03  0.12498035459E+03 0.  0.
          5    1    3    3  501    0 -0.24107677874E+01 -0.57912716950E+02 -0.24572289789E+03  0.25246672480E+03  0.10000000000E+00 0. -1.
         -5    1    3    3    0  501  0.17857486055E+02  0.57517091934E+02 -0.53012931307E+03  0.53353931837E+03  0.10000000000E+00 0. -1.
         21    1    1    2  504  503 -0.15446718268E+02  0.39562501510E+00 -0.10629893389E+01  0.15488304321E+02  0.00000000000E+00 0. -1.
<mgrwt>
<rscale>  1 0.12593191E+03</rscale>
<asrwt>0</asrwt>
<pdfrwt beam="1">  1       21 0.18907040E-02 0.12593191E+03</pdfrwt>
<pdfrwt beam="2">  1       21 0.12141610E+00 0.12593191E+03</pdfrwt>
<totfact> 0.69959752E+05</totfact>
</mgrwt>
</event>
<event>
 6    1  0.4187588E-002  0.1266456E+03  0.7546771E-02  0.1232520E+00
         21   -1    0    0  504  502  0.00000000000E+00  0.00000000000E+00  0.13342984258E+04  0.13342984258E+04  0.00000000000E+00 0. -1.
         21   -1    0    0  502  503 -0.00000000000E+00 -0.00000000000E+00 -0.53537528913E+01  0.53537528913E+01  0.00000000000E+00 0. -1.
         25    2    1    2    0    0  0.10705151388E+02  0.17285372036E+02  0.77060959158E+03  0.78094702623E+03  0.12500292308E+03 0.  0.
          5    1    3    3  501    0  0.56589945821E+02  0.41761018322E+02  0.53910257886E+03  0.54367086105E+03  0.10000000000E+00 0.  1.
         -5    1    3    3    0  501 -0.45884794434E+02 -0.24475646286E+02  0.23150701272E+03  0.23727616517E+03  0.10000000000E+00 0.  1.
         21    1    1    2  504  503 -0.10705151388E+02 -0.17285372036E+02  0.55833508134E+03  0.55870515247E+03  0.00000000000E+00 0. -1.
<mgrwt>
<rscale>  1 0.12664563E+03</rscale>
<asrwt>0</asrwt>
<pdfrwt beam="1">  1       21 0.20527642E+00 0.12664563E+03</pdfrwt>
<pdfrwt beam="2">  1       21 0.82365535E-03 0.12664563E+03</pdfrwt>
<totfact> 0.64993645E+05</totfact>
</mgrwt>
</event>
<event>
 6    1  0.4187588E-002  0.1261384E+03  0.7546771E-02  0.1233301E+00
         21   -1    0    0  504  502  0.00000000000E+00  0.00000000000E+00  0.62157714663E+03  0.62157714663E+03  0.00000000000E+00 0. -1.
         21   -1    0    0  502  503 -0.00000000000E+00 -0.00000000000E+00 -0.82320797911E+01  0.82320797911E+01  0.00000000000E+00 0. -1.
         25    2    1    2    0    0 -0.14367211018E+02 -0.88832970954E+01  0.53632704128E+03  0.55096059942E+03  0.12500222870E+03 0.  0.
          5    1    3    3  501    0 -0.31119936992E+02 -0.51972863378E+02  0.43958495283E+03  0.44373930383E+03  0.10000000000E+00 0.  1.
         -5    1    3    3    0  501  0.16752725974E+02  0.43089566283E+02  0.96742088453E+02  0.10722129559E+03  0.10000000000E+00 0.  1.
         21    1    1    2  504  503  0.14367211018E+02  0.88832970954E+01  0.77018025553E+02  0.78848627000E+02  0.00000000000E+00 0. -1.
<mgrwt>
<rscale>  1 0.12613836E+03</rscale>
<asrwt>0</asrwt>
<pdfrwt beam="1">  1       21 0.95627217E-01 0.12613836E+03</pdfrwt>
<pdfrwt beam="2">  1       21 0.12664743E-02 0.12613836E+03</pdfrwt>
<totfact> 0.23414595E+06</totfact>
</mgrwt>
</event>
<event>
 6    1  0.4187588E-002  0.1261378E+03  0.7546771E-02  0.1233302E+00
         21   -1    0    0  503  502  0.00000000000E+00  0.00000000000E+00  0.24860501323E+03  0.24860501323E+03  0.00000000000E+00 0.  1.
         21   -1    0    0  504  503 -0.00000000000E+00 -0.00000000000E+00 -0.33334526670E+03  0.33334526670E+03  0.00000000000E+00 0. -1.
         25    2    1    2    0    0  0.16913704846E+02 -0.22314959167E+01 -0.32109416652E+03  0.34498145244E+03  0.12497874126E+03 0.  0.
          5    1    3    3  501    0  0.11939445362E+02  0.43718427035E+02 -0.41043995551E+02  0.61143035489E+02  0.10000000000E+00 0. -1.
         -5    1    3    3    0  501  0.49742594842E+01 -0.45949922952E+02 -0.28005017097E+03  0.28383841695E+03  0.10000000000E+00 0. -1.
         21    1    1    2  504  502 -0.16913704846E+02  0.22314959167E+01  0.23635391305E+03  0.23696882748E+03  0.00000000000E+00 0.  1.
<mgrwt>
<rscale>  1 0.12613778E+03</rscale>
<asrwt>0</asrwt>
<pdfrwt beam="1">  1       21 0.38246925E-01 0.12613778E+03</pdfrwt>
<pdfrwt beam="2">  1       21 0.51283887E-01 0.12613778E+03</pdfrwt>
<totfact> 0.24826740E+04</totfact>
</mgrwt>
</event>
<event>
 6    1  0.4187588E-002  0.1298334E+03  0.7546771E-02  0.1227703E+00
         21   -1    0    0  504  502  0.00000000000E+00  0.00000000000E+00  0.78990234135E+02  0.78990234135E+02  0.00000000000E+00 0. -1.
         21   -1    0    0  502  503 -0.00000000000E+00 -0.00000000000E+00 -0.11860525264E+03  0.11860525264E+03  0.00000000000E+00 0. -1.
         25    2    1    2    0    0 -0.13826250107E+02  0.32259902550E+02 -0.73175269600E+02  0.14903462848E+03  0.12499933560E+03 0.  0.
          5    1    3    3  501    0 -0.67523794934E+01  0.32816780987E+01  0.35528098647E+02  0.36312805365E+02  0.10000000000E+00 0. -1.
         -5    1    3    3    0  501 -0.70738706135E+01  0.28978224452E+02 -0.10870336825E+03  0.11272182311E+03  0.10000000000E+00 0. -1.
         21    1    1    2  504  503  0.13826250107E+02 -0.32259902550E+02  0.33560251097E+02  0.48560858294E+02  0.00000000000E+00 0. -1.
<mgrwt>
<rscale>  1 0.12983336E+03</rscale>
<asrwt>0</asrwt>
<pdfrwt beam="1">  1       21 0.12152344E-01 0.12983336E+03</pdfrwt>
<pdfrwt beam="2">  1       21 0.18246962E-01 0.12983336E+03</pdfrwt>
<totfact> 0.15652796E+06</totfact>
</mgrwt>
</event>
<event>
 6    1  0.4187588E-002  0.1264483E+03  0.7546771E-02  0.1232823E+00
         21   -1    0    0  504  502  0.00000000000E+00  0.00000000000E+00  0.12944713521E+04  0.12944713521E+04  0.00000000000E+00 0. -1.
         21   -1    0    0  502  503 -0.00000000000E+00 -0.00000000000E+00 -0.17544008534E+02  0.17544008534E+02  0.00000000000E+00 0. -1.
         25    2    1    2    0    0  0.12688543198E+02  0.14261140857E+02  0.21150085364E+03  0.24641788283E+03  0.12499913048E+03 0.  0.
          5    1    3    3  501    0  0.47538779029E+02 -0.28166553635E+02  0.45520963921E+02  0.71592306930E+02  0.10000000000E+00 0.  1.
         -5    1    3    3    0  501 -0.34850235832E+02  0.42427694492E+02  0.16597988972E+03  0.17482557590E+03  0.10000000000E+00 0.  1.
         21    1    1    2  504  503 -0.12688543198E+02 -0.14261140857E+02  0.10654264899E+04  0.10655974778E+04  0.00000000000E+00 0. -1.
<mgrwt>
<rscale>  1 0.12644826E+03</rscale>
<asrwt>0</asrwt>
<pdfrwt beam="1">  1       21 0.19914936E+00 0.12644826E+03</pdfrwt>
<pdfrwt beam="2">  1       21 0.26990792E-02 0.12644826E+03</pdfrwt>
<totfact> 0.10666565E+05</totfact>
</mgrwt>
</event>
<event>
 6    1  0.4187588E-002  0.1288115E+03  0.7546771E-02  0.1229230E+00
         21   -1    0    0  503  502  0.00000000000E+00  0.00000000000E+00  0.82092298606E+02  0.82092298606E+02  0.00000000000E+00 0.  1.
         21   -1    0    0  504  503 -0.00000000000E+00 -0.00000000000E+00 -0.16962374202E+03  0.16962374202E+03  0.00000000000E+00 0.  1.
         25    2    1    2    0    0  0.29655217656E+02  0.91525814627E+01 -0.14032095018E+03  0.19047933835E+03  0.12501682925E+03 0.  0.
          5    1    3    3  501    0  0.19503014186E+02 -0.56149545025E+02 -0.87974444720E+02  0.10617274553E+03  0.10000000000E+00 0. -1.
         -5    1    3    3    0  501  0.10152203470E+02  0.65302126488E+02 -0.52346505459E+02  0.84306592820E+02  0.10000000000E+00 0. -1.
         21    1    1    2  504  502 -0.29655217656E+02 -0.91525814627E+01  0.52789506765E+02  0.61236702280E+02  0.00000000000E+00 0.  1.
<mgrwt>
<rscale>  1 0.12881153E+03</rscale>
<asrwt>0</asrwt>
<pdfrwt beam="1">  1       21 0.12629584E-01 0.12881153E+03</pdfrwt>
<pdfrwt beam="2">  1       21 0.26095960E-01 0.12881153E+03</pdfrwt>
<totfact> 0.75002156E+05</totfact>
</mgrwt>
</event>
<event>
 6    1  0.4187588E-002  0.1283161E+03  0.7546771E-02  0.1229976E+00
         21   -1    0    0  503  502  0.00000000000E+00  0.00000000000E+00  0.47488066683E+03  0.47488066683E+03  0.00000000000E+00 0.  1.
         21   -1    0    0  504  503 -0.00000000000E+00 -0.00000000000E+00 -0.13131730500E+02  0.13131730500E+02  0.00000000000E+00 0.  1.
         25    2    1    2    0    0 -0.19389497760E+02 -0.21525414000E+02  0.35830875997E+03  0.38059188645E+03  0.12500288194E+03 0.  0.
          5    1    3    3  501    0 -0.38003166510E+02 -0.62368383062E+02  0.28848160611E+03  0.29758310257E+03  0.10000000000E+00 0.  1.
         -5    1    3    3    0  501  0.18613668750E+02  0.40842969062E+02  0.69827153859E+02  0.83008783886E+02  0.10000000000E+00 0.  1.
         21    1    1    2  504  502  0.19389497760E+02  0.21525414000E+02  0.10344017637E+03  0.10742051088E+03  0.00000000000E+00 0. -1.
<mgrwt>
<rscale>  1 0.12831608E+03</rscale>
<asrwt>0</asrwt>
<pdfrwt beam="1">  1       21 0.73058551E-01 0.12831608E+03</pdfrwt>
<pdfrwt beam="2">  1       21 0.20202666E-02 0.12831608E+03</pdfrwt>
<totfact> 0.20348211E+06</totfact>
</mgrwt>
</event>
<event>
 6    1  0.4187588E-002  0.1266866E+03  0.7546771E-02  0.1232457E+00
         21   -1    0    0  503  502  0.00000000000E+00  0.00000000000E+00  0.39289646440E+02  0.39289646440E+02  0.00000000000E+00 0.  1.
         21   -1    0    0  504  503 -0.00000000000E+00 -0.00000000000E+00 -0.14016625276E+03  0.14016625276E+03  0.00000000000E+00 0.  1.
         25    2    1    2    0    0 -0.20454087087E+02 -0.23032583954E+01 -0.78423254411E+02  0.14899563509E+03  0.12500327102E+03 0.  0.
          5    1    3    3  501    0  0.21105649438E+02  0.47484894369E+02 -0.68563007274E+01  0.52414525574E+02  0.10000000000E+00 0.  1.
         -5    1    3    3    0  501 -0.41559736525E+02 -0.49788152764E+02 -0.71566953683E+02  0.96581109515E+02  0.10000000000E+00 0.  1.
         21    1    1    2  504  502  0.20454087087E+02  0.23032583954E+01 -0.22453351914E+02  0.30460264115E+02  0.00000000000E+00 0.  1.
<mgrwt>
<rscale>  1 0.12668659E+03</rscale>
<asrwt>0</asrwt>
<pdfrwt beam="1">  1       21 0.60445610E-02 0.12668659E+03</pdfrwt>
<pdfrwt beam="2">  1       21 0.21564039E-01 0.12668659E+03</pdfrwt>
<totfact> 0.38520760E+06</totfact>
</mgrwt>
</event>
<event>
 6    1  0.4187588E-002  0.1287600E+03  0.7546771E-02  0.1229307E+00
         21   -1    0    0  504  502  0.00000000000E+00  0.00000000000E+00  0.81391420708E+01  0.81391420708E+01  0.00000000000E+00 0.  1.
         21   -1    0    0  502  503 -0.00000000000E+00 -0.00000000000E+00 -0.16519316303E+04  0.16519316303E+04  0.00000000000E+00 0.  1.
         25    2    1    2    0    0 -0.13155583255E+02  0.28004946662E+02 -0.16063325194E+04  0.16114848106E+04  0.12498714243E+03 0.  0.
          5    1    3    3  501    0 -0.52259122591E+02  0.10295605886E+02 -0.13852343841E+04  0.13862580295E+04  0.10000000000E+00 0. -1.
         -5    1    3    3    0  501  0.39103539336E+02  0.17709340776E+02 -0.22109813522E+03  0.22522678113E+03  0.10000000000E+00 0. -1.
         21    1    1    2  504  503  0.13155583255E+02 -0.28004946662E+02 -0.37459968826E+02  0.48585961684E+02  0.00000000000E+00 0.  1.
<mgrwt>
<rscale>  1 0.12875998E+03</rscale>
<asrwt>0</asrwt>
<pdfrwt beam="1">  1       21 0.12521769E-02 0.12875998E+03</pdfrwt>
<pdfrwt beam="2">  1       21 0.25414308E+00 0.12875998E+03</pdfrwt>
<totfact> 0.17241485E+05</totfact>
</mgrwt>
</event>
<event>
 6    1  0.4187588E-002  0.1271762E+03  0.7546771E-02  0.1231707E+00
         21   -1    0    0  504  502  0.00000000000E+00  0.00000000000E+00  0.13841108141E+03  0.13841108141E+03  0.00000000000E+00 0. -1.
         21   -1    0    0  502  503 -0.00000000000E+00 -0.00000000000E+00 -0.46314121504E+02  0.46314121504E+02  0.00000000000E+00 0. -1.
         25    2    1    2    0    0  0.14175302173E+02  0.18662905513E+02  0.50212601014E+02  0.13672996613E+03  0.12499814040E+03 0.  0.
          5    1    3    3  501    0  0.39810659520E+01 -0.27152054845E+02  0.77654479699E+02  0.82360859550E+02  0.10000000000E+00 0. -1.
         -5    1    3    3    0  501  0.10194236221E+02  0.45814960358E+02 -0.27441878685E+02  0.54369106582E+02  0.10000000000E+00 0. -1.
         21    1    1    2  504  503 -0.14175302173E+02 -0.18662905513E+02  0.41884358893E+02  0.47995236782E+02  0.00000000000E+00 0. -1.
<mgrwt>
<rscale>  1 0.12717617E+03</rscale>
<asrwt>0</asrwt>
<pdfrwt beam="1">  1       21 0.21294012E-01 0.12717617E+03</pdfrwt>
<pdfrwt beam="2">  1       21 0.71252495E-02 0.12717617E+03</pdfrwt>
<totfact> 0.29801438E+06</totfact>
</mgrwt>
</event>
<event>
 6    1  0.4187588E-002  0.1268981E+03  0.7546771E-02  0.1232132E+00
         21   -1    0    0  504  502  0.00000000000E+00  0.00000000000E+00  0.57259331121E+02  0.57259331121E+02  0.00000000000E+00 0. -1.
         21   -1    0    0  502  503 -0.00000000000E+00 -0.00000000000E+00 -0.97217943294E+02  0.97217943294E+02  0.00000000000E+00 0. -1.
         25    2    1    2    0    0 -0.20914505236E+02  0.66845906984E+01 -0.30157949000E+02  0.13043245625E+03  0.12498409288E+03 0.  0.
          5    1    3    3  501    0 -0.25263731871E+02  0.30020990065E+02 -0.72187854837E+02  0.82162110358E+02  0.10000000000E+00 0. -1.
         -5    1    3    3    0  501  0.43492266353E+01 -0.23336399367E+02  0.42029905837E+02  0.48270345890E+02  0.10000000000E+00 0. -1.
         21    1    1    2  504  503  0.20914505236E+02 -0.66845906984E+01 -0.98006631727E+01  0.24044818167E+02  0.00000000000E+00 0. -1.
<mgrwt>
<rscale>  1 0.12689808E+03</rscale>
<asrwt>0</asrwt>
<pdfrwt beam="1">  1       21 0.88091279E-02 0.12689808E+03</pdfrwt>
<pdfrwt beam="2">  1       21 0.14956607E-01 0.12689808E+03</pdfrwt>
<totfact> 0.39458856E+06</totfact>
</mgrwt>
</event>
<event>
 6    1  0.4187588E-002  0.1568736E+03  0.7546771E-02  0.1192272E+00
         21   -1    0    0  503  502  0.00000000000E+00  0.00000000000E+00  0.14433663136E+02  0.14433663136E+02  0.00000000000E+00 0. -1.
         21   -1    0    0  504  503 -0.00000000000E+00 -0.00000000000E+00 -0.21419844998E+04  0.21419844998E+04  0.00000000000E+00 0. -1.
         25    2    1    2    0    0 -0.34785165252E+02  0.88171942115E+02 -0.19394614369E+04  0.19457954638E+04  0.12500009011E+03 0.  0.
          5    1    3    3  501    0 -0.26645785439E+02  0.11795356123E+03 -0.13074243355E+04  0.13130047386E+04  0.10000000000E+00 0. -1.
         -5    1    3    3    0  501 -0.81393798128E+01 -0.29781619112E+02 -0.63203710145E+03  0.63279072524E+03  0.10000000000E+00 0. -1.
         21    1    1    2  504  502  0.34785165252E+02 -0.88171942115E+02 -0.18808939975E+03  0.21062269915E+03  0.00000000000E+00 0. -1.
<mgrwt>
<rscale>  1 0.15687358E+03</rscale>
<asrwt>0</asrwt>
<pdfrwt beam="1">  1       21 0.22205646E-02 0.15687358E+03</pdfrwt>
<pdfrwt beam="2">  1       21 0.32953593E+00 0.15687358E+03</pdfrwt>
<totfact> 0.24903583E+04</totfact>
</mgrwt>
</event>
<event>
 6    1  0.4187588E-002  0.1426227E+03  0.7546771E-02  0.1209843E+00
         21   -1    0    0  503  502  0.00000000000E+00  0.00000000000E+00  0.16007775759E+03  0.16007775759E+03  0.00000000000E+00 0.  1.
         21   -1    0    0  504  503 -0.00000000000E+00 -0.00000000000E+00 -0.10691881913E+03  0.10691881913E+03  0.00000000000E+00 0. -1.
         25    2    1    2    0    0 -0.65780692216E+02  0.19723597675E+02 -0.42881083931E+02  0.14892962253E+03  0.12500050133E+03 0.  0.
          5    1    3    3  501    0 -0.75223226368E+02  0.48261219404E+02 -0.65921697196E+02  0.11105565832E+03  0.10000000000E+00 0.  1.
         -5    1    3    3    0  501  0.94425341520E+01 -0.28537621729E+02  0.23040613265E+02  0.37873964208E+02  0.10000000000E+00 0.  1.
         21    1    1    2  504  502  0.65780692216E+02 -0.19723597675E+02  0.96040022386E+02  0.11806695420E+03  0.00000000000E+00 0.  1.
<mgrwt>
<rscale>  1 0.14262274E+03</rscale>
<asrwt>0</asrwt>
<pdfrwt beam="1">  1       21 0.24627347E-01 0.14262274E+03</pdfrwt>
<pdfrwt beam="2">  1       21 0.16449049E-01 0.14262274E+03</pdfrwt>
<totfact> 0.52000904E+05</totfact>
</mgrwt>
</event>
<event>
 6    1  0.4187588E-002  0.1410985E+03  0.7546771E-02  0.1211858E+00
         21   -1    0    0  504  502  0.00000000000E+00  0.00000000000E+00  0.12070169472E+03  0.12070169472E+03  0.00000000000E+00 0.  1.
         21   -1    0    0  502  503 -0.00000000000E+00 -0.00000000000E+00 -0.39225931256E+03  0.39225931256E+03  0.00000000000E+00 0. -1.
         25    2    1    2    0    0  0.43958340570E+02  0.48489069275E+02 -0.36929598053E+03  0.39533314882E+03  0.12500100710E+03 0.  0.
          5    1    3    3  501    0 -0.10618877303E+02 -0.35494169173E+02 -0.14556532891E+03  0.15020609701E+03  0.10000000000E+00 0. -1.
         -5    1    3    3    0  501  0.54577217873E+02  0.83983238448E+02 -0.22373065162E+03  0.24512705180E+03  0.10000000000E+00 0. -1.
         21    1    1    2  504  503 -0.43958340570E+02 -0.48489069275E+02  0.97738362685E+02  0.11762785846E+03  0.00000000000E+00 0.  1.
<mgrwt>
<rscale>  1 0.14109847E+03</rscale>
<asrwt>0</asrwt>
<pdfrwt beam="1">  1       21 0.18569492E-01 0.14109847E+03</pdfrwt>
<pdfrwt beam="2">  1       21 0.60347586E-01 0.14109847E+03</pdfrwt>
<totfact> 0.69401569E+04</totfact>
</mgrwt>
</event>
<event>
 6    1  0.4187588E-002  0.1284552E+03  0.7546771E-02  0.1229766E+00
         21   -1    0    0  504  502  0.00000000000E+00  0.00000000000E+00  0.47091452554E+02  0.47091452554E+02  0.00000000000E+00 0.  1.
         21   -1    0    0  502  503 -0.00000000000E+00 -0.00000000000E+00 -0.46546137574E+03  0.46546137574E+03  0.00000000000E+00 0.  1.
         25    2    1    2    0    0  0.91450743733E+01 -0.28147034485E+02 -0.45074349413E+03  0.46869013308E+03  0.12499942164E+03 0.  0.
          5    1    3    3  501    0  0.46722904585E+02  0.23355346605E+01 -0.65898831882E+02  0.80815534264E+02  0.10000000000E+00 0. -1.
         -5    1    3    3    0  501 -0.37577830211E+02 -0.30482569146E+02 -0.38484466225E+03  0.38787459882E+03  0.10000000000E+00 0. -1.
         21    1    1    2  504  503 -0.91450743733E+01  0.28147034485E+02  0.32373570946E+02  0.43862695214E+02  0.00000000000E+00 0.  1.
<mgrwt>
<rscale>  1 0.12845522E+03</rscale>
<asrwt>0</asrwt>
<pdfrwt beam="1">  1       21 0.72448390E-02 0.12845522E+03</pdfrwt>
<pdfrwt beam="2">  1       21 0.71609441E-01 0.12845522E+03</pdfrwt>
<totfact> 0.25532877E+05</totfact>
</mgrwt>
</event>
<event>
 6    1  0.4187588E-002  0.1274082E+03  0.7546771E-02  0.1231353E+00
         21   -1    0    0  504  502  0.00000000000E+00  0.00000000000E+00  0.11758668837E+03  0.11758668837E+03  0.00000000000E+00 0. -1.
         21   -1    0    0  502  503 -0.00000000000E+00 -0.00000000000E+00 -0.44992878013E+03  0.44992878013E+03  0.00000000000E+00 0. -1.
         25    2    1    2    0    0  0.10028058425E+02  0.22501006524E+02 -0.43948320950E+03  0.45757877597E+03  0.12500395007E+03 0.  0.
          5    1    3    3  501    0 -0.48656375550E+02 -0.20986618608E+02 -0.15240089294E+03  0.16135031209E+03  0.10000000000E+00 0. -1.
         -5    1    3    3    0  501  0.58684433974E+02  0.43487625132E+02 -0.28708231656E+03  0.29622846388E+03  0.10000000000E+00 0. -1.
         21    1    1    2  504  503 -0.10028058425E+02 -0.22501006524E+02  0.10714111775E+03  0.10993669252E+03  0.00000000000E+00 0. -1.
<mgrwt>
<rscale>  1 0.12740818E+03</rscale>
<asrwt>0</asrwt>
<pdfrwt beam="1">  1       21 0.18090260E-01 0.12740818E+03</pdfrwt>
<pdfrwt beam="2">  1       21 0.69219811E-01 0.12740818E+03</pdfrwt>
<totfact> 0.54567872E+04</totfact>
</mgrwt>
</event>
<event>
 6    1  0.4187588E-002  0.1506212E+03  0.7546771E-02  0.1199712E+00
         21   -1    0    0  503  502  0.00000000000E+00  0.00000000000E+00  0.17426230648E+03  0.17426230648E+03  0.00000000000E+00 0.  1.
         21   -1    0    0  504  503 -0.00000000000E+00 -0.00000000000E+00 -0.15314467828E+03  0.15314467828E+03  0.00000000000E+00 0.  1.
         25    2    1    2    0    0 -0.58722339188E+01 -0.83796159460E+02 -0.99428777408E+02  0.18047939927E+03  0.12502180735E+03 0.  0.
          5    1    3    3  501    0  0.13536894913E+02 -0.10825006061E+03 -0.10174165146E+03  0.14917337828E+03  0.10000000000E+00 0.  1.
         -5    1    3    3    0  501 -0.19409128832E+02  0.24453901153E+02  0.23128740545E+01  0.31306020986E+02  0.10000000000E+00 0.  1.
         21    1    1    2  504  502  0.58722339188E+01  0.83796159460E+02  0.12054640561E+03  0.14692758549E+03  0.00000000000E+00 0.  1.
<mgrwt>
<rscale>  1 0.15062115E+03</rscale>
<asrwt>0</asrwt>
<pdfrwt beam="1">  1       21 0.26809585E-01 0.15062115E+03</pdfrwt>
<pdfrwt beam="2">  1       21 0.23560720E-01 0.15062115E+03</pdfrwt>
<totfact> 0.22713921E+05</totfact>
</mgrwt>
</event>
<event>
 6    1  0.4187588E-002  0.1261433E+03  0.7546771E-02  0.1233293E+00
         21   -1    0    0  504  502  0.00000000000E+00  0.00000000000E+00  0.71118172872E+02  0.71118172872E+02  0.00000000000E+00 0.  1.
         21   -1    0    0  502  503 -0.00000000000E+00 -0.00000000000E+00 -0.75685279626E+02  0.75685279626E+02  0.00000000000E+00 0.  1.
         25    2    1    2    0    0  0.16801804012E+02  0.15180916928E+01 -0.14900039220E+02  0.12702025979E+03  0.12501011962E+03 0.  0.
          5    1    3    3  501    0  0.11298036622E+02  0.39074060880E+02 -0.57199602386E+02  0.70187124021E+02  0.10000000000E+00 0. -1.
         -5    1    3    3    0  501  0.55037673901E+01 -0.37555969188E+02  0.42299563166E+02  0.56833135768E+02  0.10000000000E+00 0. -1.
         21    1    1    2  504  503 -0.16801804012E+02 -0.15180916928E+01  0.10332932466E+02  0.19783192709E+02  0.00000000000E+00 0.  1.
<mgrwt>
<rscale>  1 0.12614331E+03</rscale>
<asrwt>0</asrwt>
<pdfrwt beam="1">  1       21 0.10941257E-01 0.12614331E+03</pdfrwt>
<pdfrwt beam="2">  1       21 0.11643889E-01 0.12614331E+03</pdfrwt>
<totfact> 0.42226132E+06</totfact>
</mgrwt>
</event>
<event>
 6    1  0.4187588E-002  0.1277445E+03  0.7546771E-02  0.1230841E+00
         21   -1    0    0  504  502  0.00000000000E+00  0.00000000000E+00  0.21925409816E+03  0.21925409816E+03  0.00000000000E+00 0. -1.
         21   -1    0    0  502  503 -0.00000000000E+00 -0.00000000000E+00 -0.31478244441E+02  0.31478244441E+02  0.00000000000E+00 0. -1.
         25    2    1    2    0    0  0.22446053459E+02  0.13784506284E+02  0.10986863916E+03  0.16849261978E+03  0.12499922848E+03 0.  0.
          5    1    3    3  501    0  0.54347549305E+02 -0.25743575451E+02  0.16758206213E+02  0.62427840488E+02  0.10000000000E+00 0.  1.
         -5    1    3    3    0  501 -0.31901495846E+02  0.39528081735E+02  0.93110432949E+02  0.10606477929E+03  0.10000000000E+00 0.  1.
         21    1    1    2  504  503 -0.22446053459E+02 -0.13784506284E+02  0.77907214557E+02  0.82239722820E+02  0.00000000000E+00 0. -1.
<mgrwt>
<rscale>  1 0.12774445E+03</rscale>
<asrwt>0</asrwt>
<pdfrwt beam="1">  1       21 0.33731399E-01 0.12774445E+03</pdfrwt>
<pdfrwt beam="2">  1       21 0.48428070E-02 0.12774445E+03</pdfrwt>
<totfact> 0.23866113E+06</totfact>
</mgrwt>
</event>
<event>
 6    1  0.4187588E-002  0.1304858E+03  0.7546771E-02  0.1226737E+00
         21   -1    0    0  504  502  0.00000000000E+00  0.00000000000E+00  0.60830527778E+03  0.60830527778E+03  0.00000000000E+00 0. -1.
         21   -1    0    0  502  503 -0.00000000000E+00 -0.00000000000E+00 -0.15974727733E+02  0.15974727733E+02  0.00000000000E+00 0. -1.
         25    2    1    2    0    0  0.37418377114E+02 -0.22444497640E+00  0.27100171712E+03  0.30077976720E+03  0.12500540929E+03 0.  0.
          5    1    3    3  501    0  0.48059513233E+02 -0.48132756932E+02  0.87492156890E+02  0.11082132746E+03  0.10000000000E+00 0.  1.
         -5    1    3    3    0  501 -0.10641136118E+02  0.47908311956E+02  0.18350956023E+03  0.18995843974E+03  0.10000000000E+00 0.  1.
         21    1    1    2  504  503 -0.37418377114E+02  0.22444497640E+00  0.32132883293E+03  0.32350023832E+03  0.00000000000E+00 0. -1.
<mgrwt>
<rscale>  1 0.13048578E+03</rscale>
<asrwt>0</asrwt>
<pdfrwt beam="1">  1       21 0.93585409E-01 0.13048578E+03</pdfrwt>
<pdfrwt beam="2">  1       21 0.24576509E-02 0.13048578E+03</pdfrwt>
<totfact> 0.84870130E+05</totfact>
</mgrwt>
</event>
<event>
 6    1  0.4187588E-002  0.1272121E+03  0.7546771E-02  0.1231652E+00
         21   -1    0    0  503  502  0.00000000000E+00  0.00000000000E+00  0.55693690233E+01  0.55693690233E+01  0.00000000000E+00 0.  1.
         21   -1    0    0  504  503 -0.00000000000E+00 -0.00000000000E+00 -0.11822590879E+04  0.11822590879E+04  0.00000000000E+00 0.  1.
         25    2    1    2    0    0  0.23037315329E+02 -0.49684061306E+01 -0.11064840669E+04  0.11137728256E+04  0.12501005500E+03 0.  0.
          5    1    3    3  501    0 -0.40307591236E+02  0.33902767125E+02 -0.49162767162E+03  0.49444097427E+03  0.10000000000E+00 0.  1.
         -5    1    3    3    0  501  0.63344906565E+02 -0.38871173256E+02 -0.61485639523E+03  0.61933185132E+03  0.10000000000E+00 0.  1.
         21    1    1    2  504  502 -0.23037315329E+02  0.49684061306E+01 -0.70205652016E+02  0.74055631332E+02  0.00000000000E+00 0.  1.
<mgrwt>
<rscale>  1 0.12721209E+03</rscale>
<asrwt>0</asrwt>
<pdfrwt beam="1">  1       21 0.85682642E-03 0.12721209E+03</pdfrwt>
<pdfrwt beam="2">  1       21 0.18188593E+00 0.12721209E+03</pdfrwt>
<totfact> 0.86213527E+05</totfact>
</mgrwt>
</event>
<event>
 6    1  0.4187588E-002  0.1453240E+03  0.7546771E-02  0.1206339E+00
         21   -1    0    0  503  502  0.00000000000E+00  0.00000000000E+00  0.93850702502E+02  0.93850702502E+02  0.00000000000E+00 0. -1.
         21   -1    0    0  504  503 -0.00000000000E+00 -0.00000000000E+00 -0.12832387718E+03  0.12832387718E+03  0.00000000000E+00 0. -1.
         25    2    1    2    0    0  0.28584288985E+02  0.68383678671E+02 -0.24893502116E+02  0.14744065692E+03  0.12500268709E+03 0.  0.
          5    1    3    3  501    0 -0.39143729710E+02  0.51132484305E+02 -0.40173585520E+02  0.75899206190E+02  0.10000000000E+00 0. -1.
         -5    1    3    3    0  501  0.67728018695E+02  0.17251194366E+02  0.15280083404E+02  0.71541450728E+02  0.10000000000E+00 0. -1.
         21    1    1    2  504  502 -0.28584288985E+02 -0.68383678671E+02 -0.95796725624E+01  0.74733922765E+02  0.00000000000E+00 0. -1.
<mgrwt>
<rscale>  1 0.14532399E+03</rscale>
<asrwt>0</asrwt>
<pdfrwt beam="1">  1       21 0.14438570E-01 0.14532399E+03</pdfrwt>
<pdfrwt beam="2">  1       21 0.19742135E-01 0.14532399E+03</pdfrwt>
<totfact> 0.99608756E+05</totfact>
</mgrwt>
</event>
<event>
 6    1  0.4187588E-002  0.1292867E+03  0.7546771E-02  0.1228518E+00
         21   -1    0    0  503  502  0.00000000000E+00  0.00000000000E+00  0.35670247052E+02  0.35670247052E+02  0.00000000000E+00 0.  1.
         21   -1    0    0  504  503 -0.00000000000E+00 -0.00000000000E+00 -0.21946554949E+03  0.21946554949E+03  0.00000000000E+00 0.  1.
         25    2    1    2    0    0  0.16132504132E+02 -0.28778347788E+02 -0.18043612301E+03  0.22197354273E+03  0.12500643261E+03 0.  0.
          5    1    3    3  501    0  0.15509816322E+02 -0.34763355666E+02 -0.19892261819E+03  0.20253212912E+03  0.10000000000E+00 0.  1.
         -5    1    3    3    0  501  0.62268781028E+00  0.59850078778E+01  0.18486495175E+02  0.19441413613E+02  0.10000000000E+00 0.  1.
         21    1    1    2  504  502 -0.16132504132E+02  0.28778347788E+02 -0.33591794194E+01  0.33162253803E+02  0.00000000000E+00 0.  1.
<mgrwt>
<rscale>  1 0.12928673E+03</rscale>
<asrwt>0</asrwt>
<pdfrwt beam="1">  1       21 0.54877303E-02 0.12928673E+03</pdfrwt>
<pdfrwt beam="2">  1       21 0.33763931E-01 0.12928673E+03</pdfrwt>
<totfact> 0.19310162E+06</totfact>
</mgrwt>
</event>
<event>
 6    1  0.4187588E-002  0.1288021E+03  0.7546771E-02  0.1229244E+00
         21   -1    0    0  503  502  0.00000000000E+00  0.00000000000E+00  0.27811101361E+02  0.27811101361E+02  0.00000000000E+00 0.  1.
         21   -1    0    0  504  503 -0.00000000000E+00 -0.00000000000E+00 -0.23013331429E+03  0.23013331429E+03  0.00000000000E+00 0.  1.
         25    2    1    2    0    0 -0.30867944450E+02 -0.38191500265E+01 -0.16646438988E+03  0.21047653835E+03  0.12499025641E+03 0.  0.
          5    1    3    3  501    0  0.22331538473E+02  0.39545225239E+02 -0.11805068737E+03  0.12648516608E+03  0.10000000000E+00 0. -1.
         -5    1    3    3    0  501 -0.53199482923E+02 -0.43364375265E+02 -0.48413702509E+02  0.83991372271E+02  0.10000000000E+00 0. -1.
         21    1    1    2  504  502  0.30867944450E+02  0.38191500265E+01 -0.35857823049E+02  0.47467877299E+02  0.00000000000E+00 0.  1.
<mgrwt>
<rscale>  1 0.12880210E+03</rscale>
<asrwt>0</asrwt>
<pdfrwt beam="1">  1       21 0.42786310E-02 0.12880210E+03</pdfrwt>
<pdfrwt beam="2">  1       21 0.35405125E-01 0.12880210E+03</pdfrwt>
<totfact> 0.26703790E+06</totfact>
</mgrwt>
</event>
<event>
 6    1  0.4187588E-002  0.1259499E+03  0.7546771E-02  0.1233592E+00
         21   -1    0    0  503  502  0.00000000000E+00  0.00000000000E+00  0.10931471114E+04  0.10931471114E+04  0.00000000000E+00 0. -1.
         21   -1    0    0  504  503 -0.00000000000E+00 -0.00000000000E+00 -0.46757025504E+01  0.46757025504E+01  0.00000000000E+00 0. -1.
         25    2    1    2    0    0 -0.14791056203E+02 -0.44581226116E+01  0.90839318016E+03  0.91708317068E+03  0.12499888794E+03 0.  0.
          5    1    3    3  501    0 -0.17404418146E+01  0.31806926645E+02  0.61023317608E+02  0.68837235652E+02  0.10000000000E+00 0.  1.
         -5    1    3    3    0  501 -0.13050614389E+02 -0.36265049257E+02  0.84736986256E+03  0.84824593503E+03  0.10000000000E+00 0.  1.
         21    1    1    2  504  502  0.14791056203E+02  0.44581226116E+01  0.18007822871E+03  0.18073964329E+03  0.00000000000E+00 0. -1.
<mgrwt>
<rscale>  1 0.12594988E+03</rscale>
<asrwt>0</asrwt>
<pdfrwt beam="1">  1       21 0.16817628E+00 0.12594988E+03</pdfrwt>
<pdfrwt beam="2">  1       21 0.71933972E-03 0.12594988E+03</pdfrwt>
<totfact> 0.14042897E+06</totfact>
</mgrwt>
</event>
<event>
 6    1  0.4187588E-002  0.1820376E+03  0.7546771E-02  0.1165846E+00
         21   -1    0    0  504  502  0.00000000000E+00  0.00000000000E+00  0.54326214188E+02  0.54326214188E+02  0.00000000000E+00 0. -1.
         21   -1    0    0  502  503 -0.00000000000E+00 -0.00000000000E+00 -0.68380392305E+03  0.68380392305E+03  0.00000000000E+00 0.  1.
         25    2    1    2    0    0 -0.10558298672E+03  0.79770400508E+02 -0.55964131955E+03  0.58850325077E+03  0.12500634277E+03 0.  0.
          5    1    3    3  501    0 -0.87475640259E+02  0.10183249318E+03 -0.31790171894E+03  0.34508456530E+03  0.10000000000E+00 0.  1.
         -5    1    3    3    0  501 -0.18107346466E+02 -0.22062092676E+02 -0.24173960061E+03  0.24341868546E+03  0.10000000000E+00 0.  1.
         21    1    1    2  504  503  0.10558298672E+03 -0.79770400508E+02 -0.69836389314E+02  0.14962688647E+03  0.00000000000E+00 0. -1.
<mgrwt>
<rscale>  1 0.18203755E+03</rscale>
<asrwt>0</asrwt>
<pdfrwt beam="1">  1       21 0.83578787E-02 0.18203755E+03</pdfrwt>
<pdfrwt beam="2">  1       21 0.10520061E+00 0.18203755E+03</pdfrwt>
<totfact> 0.81243934E+04</totfact>
</mgrwt>
</event>
<event>
 6    1  0.4187588E-002  0.1613802E+03  0.7546771E-02  0.1187147E+00
         21   -1    0    0  504  502  0.00000000000E+00  0.00000000000E+00  0.85922843077E+03  0.85922843077E+03  0.00000000000E+00 0.  1.
         21   -1    0    0  502  503 -0.00000000000E+00 -0.00000000000E+00 -0.33251183133E+02  0.33251183133E+02  0.00000000000E+00 0.  1.
         25    2    1    2    0    0  0.39757418821E+02  0.94020216682E+02  0.19416934496E+03  0.25247830188E+03  0.12499241939E+03 0.  0.
          5    1    3    3  501    0 -0.24540944467E+02  0.72798726105E+02  0.45929000235E+02  0.89506399438E+02  0.10000000000E+00 0.  1.
         -5    1    3    3    0  501  0.64298363288E+02  0.21221490578E+02  0.14824034472E+03  0.16297190245E+03  0.10000000000E+00 0.  1.
         21    1    1    2  504  503 -0.39757418821E+02 -0.94020216682E+02  0.63180790268E+03  0.64000131202E+03  0.00000000000E+00 0.  1.
<mgrwt>
<rscale>  1 0.16138017E+03</rscale>
<asrwt>0</asrwt>
<pdfrwt beam="1">  1       21 0.13218897E+00 0.16138017E+03</pdfrwt>
<pdfrwt beam="2">  1       21 0.51155673E-02 0.16138017E+03</pdfrwt>
<totfact> 0.10876992E+05</totfact>
</mgrwt>
</event>
<event>
 6    1  0.4187588E-002  0.1272469E+03  0.7546771E-02  0.1231599E+00
         21   -1    0    0  503  502  0.00000000000E+00  0.00000000000E+00  0.55579914510E+02  0.55579914510E+02  0.00000000000E+00 0. -1.
         21   -1    0    0  504  503 -0.00000000000E+00 -0.00000000000E+00 -0.14250022370E+03  0.14250022370E+03  0.00000000000E+00 0. -1.
         25    2    1    2    0    0 -0.14512523608E+01  0.23696391593E+02 -0.10756444670E+03  0.16661896338E+03  0.12501257399E+03 0.  0.
          5    1    3    3  501    0  0.49571869019E+02  0.51005943378E+01 -0.10007818999E+03  0.11179910721E+03  0.10000000000E+00 0.  1.
         -5    1    3    3    0  501 -0.51023121380E+02  0.18595797256E+02 -0.74862567037E+01  0.54819856168E+02  0.10000000000E+00 0.  1.
         21    1    1    2  504  502  0.14512523608E+01 -0.23696391593E+02  0.20644137511E+02  0.31461174828E+02  0.00000000000E+00 0.  1.
<mgrwt>
<rscale>  1 0.12724688E+03</rscale>
<asrwt>0</asrwt>
<pdfrwt beam="1">  1       21 0.85507562E-02 0.12724688E+03</pdfrwt>
<pdfrwt beam="2">  1       21 0.21923111E-01 0.12724688E+03</pdfrwt>
<totfact> 0.20624973E+06</totfact>
</mgrwt>
</event>
<event>
 6    1  0.4187588E-002  0.1340187E+03  0.7546771E-02  0.1221612E+00
         21   -1    0    0  504  502  0.00000000000E+00  0.00000000000E+00  0.59325430288E+02  0.59325430288E+02  0.00000000000E+00 0.  1.
         21   -1    0    0  502  503 -0.00000000000E+00 -0.00000000000E+00 -0.14046913355E+03  0.14046913355E+03  0.00000000000E+00 0.  1.
         25    2    1    2    0    0 -0.21513752339E+01 -0.48292205311E+02 -0.63879202549E+02  0.14846398334E+03  0.12499694525E+03 0.  0.
          5    1    3    3  501    0  0.52498871889E+02 -0.42777168337E+02 -0.49435288271E+01  0.67900413532E+02  0.10000000000E+00 0.  1.
         -5    1    3    3    0  501 -0.54650247123E+02 -0.55150369737E+01 -0.58935673722E+02  0.80563569810E+02  0.10000000000E+00 0.  1.
         21    1    1    2  504  503  0.21513752339E+01  0.48292205311E+02 -0.17264500713E+02  0.51330580496E+02  0.00000000000E+00 0.  1.
<mgrwt>
<rscale>  1 0.13401866E+03</rscale>
<asrwt>0</asrwt>
<pdfrwt beam="1">  1       21 0.91269894E-02 0.13401866E+03</pdfrwt>
<pdfrwt beam="2">  1       21 0.21610636E-01 0.13401866E+03</pdfrwt>
<totfact> 0.18943889E+06</totfact>
</mgrwt>
</event>
<event>
 6    1  0.4187588E-002  0.1289545E+03  0.7546771E-02  0.1229015E+00
         21   -1    0    0  503  502  0.00000000000E+00  0.00000000000E+00  0.74237935327E+02  0.74237935327E+02  0.00000000000E+00 0. -1.
         21   -1    0    0  504  503 -0.00000000000E+00 -0.00000000000E+00 -0.95128074503E+02  0.95128074503E+02  0.00000000000E+00 0. -1.
         25    2    1    2    0    0 -0.17247575186E+02 -0.26406827911E+02 -0.36713580922E+02  0.13407889152E+03  0.12503784514E+03 0.  0.
          5    1    3    3  501    0  0.19408824901E+01 -0.32345537685E+02  0.41883849151E+02  0.52955336395E+02  0.10000000000E+00 0.  1.
         -5    1    3    3    0  501 -0.19188457676E+02  0.59387097740E+01 -0.78597430072E+02  0.81123555123E+02  0.10000000000E+00 0.  1.
         21    1    1    2  504  502  0.17247575186E+02  0.26406827911E+02  0.15823441745E+02  0.35287118312E+02  0.00000000000E+00 0. -1.
<mgrwt>
<rscale>  1 0.12895450E+03</rscale>
<asrwt>0</asrwt>
<pdfrwt beam="1">  1       21 0.11421221E-01 0.12895450E+03</pdfrwt>
<pdfrwt beam="2">  1       21 0.14635088E-01 0.12895450E+03</pdfrwt>
<totfact> 0.26068670E+06</totfact>
</mgrwt>
</event>
<event>
 6    1  0.4187588E-002  0.1260213E+03  0.7546771E-02  0.1233482E+00
         21   -1    0    0  503  502  0.00000000000E+00  0.00000000000E+00  0.43654752129E+02  0.43654752129E+02  0.00000000000E+00 0. -1.
         21   -1    0    0  504  503 -0.00000000000E+00 -0.00000000000E+00 -0.11656034941E+03  0.11656034941E+03  0.00000000000E+00 0. -1.
         25    2    1    2    0    0 -0.15077676216E+02 -0.54676716768E+01 -0.69134796016E+02  0.14373934068E+03  0.12499658509E+03 0.  0.
          5    1    3    3  501    0 -0.44195571239E+02 -0.51834581345E+02 -0.54024101532E+02  0.86940703279E+02  0.10000000000E+00 0.  1.
         -5    1    3    3    0  501  0.29117895023E+02  0.46366909668E+02 -0.15110694484E+02  0.56798637400E+02  0.10000000000E+00 0.  1.
         21    1    1    2  504  502  0.15077676216E+02  0.54676716768E+01 -0.37708012595E+01  0.16475760855E+02  0.00000000000E+00 0. -1.
<mgrwt>
<rscale>  1 0.12602134E+03</rscale>
<asrwt>0</asrwt>
<pdfrwt beam="1">  1       21 0.67161157E-02 0.12602134E+03</pdfrwt>
<pdfrwt beam="2">  1       21 0.17932361E-01 0.12602134E+03</pdfrwt>
<totfact> 0.45241983E+06</totfact>
</mgrwt>
</event>
<event>
 6    1  0.4187588E-002  0.1420700E+03  0.7546771E-02  0.1210570E+00
         21   -1    0    0  503  502  0.00000000000E+00  0.00000000000E+00  0.58957826120E+02  0.58957826120E+02  0.00000000000E+00 0.  1.
         21   -1    0    0  504  503 -0.00000000000E+00 -0.00000000000E+00 -0.29482881824E+03  0.29482881824E+03  0.00000000000E+00 0. -1.
         25    2    1    2    0    0  0.65555827359E+02  0.16131220689E+02 -0.24740721915E+03  0.28529673770E+03  0.12500445461E+03 0.  0.
          5    1    3    3  501    0  0.42402297576E+02 -0.37879530524E+02 -0.20523645754E+03  0.21296672786E+03  0.10000000000E+00 0. -1.
         -5    1    3    3    0  501  0.23153529783E+02  0.54010751213E+02 -0.42170761606E+02  0.72330009833E+02  0.10000000000E+00 0. -1.
         21    1    1    2  504  502 -0.65555827359E+02 -0.16131220689E+02  0.11536227023E+02  0.68489906669E+02  0.00000000000E+00 0.  1.
<mgrwt>
<rscale>  1 0.14207004E+03</rscale>
<asrwt>0</asrwt>
<pdfrwt beam="1">  1       21 0.90704347E-02 0.14207004E+03</pdfrwt>
<pdfrwt beam="2">  1       21 0.45358280E-01 0.14207004E+03</pdfrwt>
<totfact> 0.45286545E+05</totfact>
</mgrwt>
</event>
<event>
 6    1  0.4187588E-002  0.1430510E+03  0.7546771E-02  0.1209282E+00
         21   -1    0    0  504  502  0.00000000000E+00  0.00000000000E+00  0.40107633519E+02  0.40107633519E+02  0.00000000000E+00 0. -1.
         21   -1    0    0  502  503 -0.00000000000E+00 -0.00000000000E+00 -0.81330673104E+03  0.81330673104E+03  0.00000000000E+00 0. -1.
         25    2    1    2    0    0  0.36965886316E+01  0.69462866975E+02 -0.77064167435E+03  0.78380621080E+03  0.12499932477E+03 0.  0.
          5    1    3    3  501    0 -0.43520532428E+02 -0.12580118754E+02 -0.33126549214E+03  0.33434881848E+03  0.10000000000E+00 0. -1.
         -5    1    3    3    0  501  0.47217121060E+02  0.82042985729E+02 -0.43937618220E+03  0.44945739232E+03  0.10000000000E+00 0. -1.
         21    1    1    2  504  503 -0.36965886316E+01 -0.69462866975E+02 -0.25574231704E+01  0.69608153755E+02  0.00000000000E+00 0. -1.
<mgrwt>
<rscale>  1 0.14305099E+03</rscale>
<asrwt>0</asrwt>
<pdfrwt beam="1">  1       21 0.61704049E-02 0.14305099E+03</pdfrwt>
<pdfrwt beam="2">  1       21 0.12512412E+00 0.14305099E+03</pdfrwt>
<totfact> 0.91515372E+04</totfact>
</mgrwt>
</event>
<event>
 6    1  0.4187588E-002  0.2026923E+03  0.7546771E-02  0.1147487E+00
         21   -1    0    0  503  502  0.00000000000E+00  0.00000000000E+00  0.26091764305E+03  0.26091764305E+03  0.00000000000E+00 0. -1.
         21   -1    0    0  504  503 -0.00000000000E+00 -0.00000000000E+00 -0.72234038461E+03  0.72234038461E+03  0.00000000000E+00 0.  1.
         25    2    1    2    0    0 -0.14228779960E+03  0.72174320704E+02 -0.68174260338E+03  0.71123635205E+03  0.12501688181E+03 0.  0.
          5    1    3    3  501    0 -0.68132104659E+01 -0.31315410273E+02 -0.97810439549E+02  0.10292699764E+03  0.10000000000E+00 0.  1.
         -5    1    3    3    0  501 -0.13547458914E+03  0.10348973098E+03 -0.58393216383E+03  0.60830935442E+03  0.10000000000E+00 0.  1.
         21    1    1    2  504  502  0.14228779960E+03 -0.72174320704E+02  0.22031986182E+03  0.27202167560E+03  0.00000000000E+00 0. -1.
<mgrwt>
<rscale>  1 0.20269231E+03</rscale>
<asrwt>0</asrwt>
<pdfrwt beam="1">  1       21 0.40141175E-01 0.20269231E+03</pdfrwt>
<pdfrwt beam="2">  1       21 0.11112929E+00 0.20269231E+03</pdfrwt>
<totfact> 0.37789085E+03</totfact>
</mgrwt>
</event>
<event>
 6    1  0.4187588E-002  0.1260370E+03  0.7546771E-02  0.1233457E+00
         21   -1    0    0  503  502  0.00000000000E+00  0.00000000000E+00  0.13811780409E+03  0.13811780409E+03  0.00000000000E+00 0. -1.
         21   -1    0    0  504  503 -0.00000000000E+00 -0.00000000000E+00 -0.58377217908E+02  0.58377217908E+02  0.00000000000E+00 0. -1.
         25    2    1    2    0    0  0.16134149013E+02  0.35570444989E+00  0.11713800224E+02  0.12658021028E+03  0.12499959691E+03 0.  0.
          5    1    3    3  501    0  0.18165413367E+02  0.22146636290E+02  0.63880586629E+02  0.70008535835E+02  0.10000000000E+00 0. -1.
         -5    1    3    3    0  501 -0.20312643537E+01 -0.21790931840E+02 -0.52166786405E+02  0.56571674442E+02  0.10000000000E+00 0. -1.
         21    1    1    2  504  502 -0.16134149013E+02 -0.35570444989E+00  0.68026785964E+02  0.69914811725E+02  0.00000000000E+00 0. -1.
<mgrwt>
<rscale>  1 0.12603704E+03</rscale>
<asrwt>0</asrwt>
<pdfrwt beam="1">  1       21 0.21248893E-01 0.12603704E+03</pdfrwt>
<pdfrwt beam="2">  1       21 0.89811104E-02 0.12603704E+03</pdfrwt>
<totfact> 0.20070946E+06</totfact>
</mgrwt>
</event>
<event>
 6    1  0.4187588E-002  0.1261225E+03  0.7546771E-02  0.1233325E+00
         21   -1    0    0  503  502  0.00000000000E+00  0.00000000000E+00  0.46860305475E+02  0.46860305475E+02  0.00000000000E+00 0. -1.
         21   -1    0    0  504  503 -0.00000000000E+00 -0.00000000000E+00 -0.14111870619E+03  0.14111870619E+03  0.00000000000E+00 0. -1.
         25    2    1    2    0    0 -0.12042761260E+02 -0.11733393359E+02 -0.10817058927E+03  0.16615586779E+03  0.12499678156E+03 0.  0.
          5    1    3    3  501    0  0.35769754209E+02 -0.50366297919E+02 -0.71856421267E+02  0.94760722662E+02  0.10000000000E+00 0.  1.
         -5    1    3    3    0  501 -0.47812515469E+02  0.38632904560E+02 -0.36314168001E+02  0.71395145127E+02  0.10000000000E+00 0.  1.
         21    1    1    2  504  502  0.12042761260E+02  0.11733393359E+02  0.13912188550E+02  0.21823143878E+02  0.00000000000E+00 0. -1.
<mgrwt>
<rscale>  1 0.12612254E+03</rscale>
<asrwt>0</asrwt>
<pdfrwt beam="1">  1       21 0.72092779E-02 0.12612254E+03</pdfrwt>
<pdfrwt beam="2">  1       21 0.21710570E-01 0.12612254E+03</pdfrwt>
<totfact> 0.28166120E+06</totfact>
</mgrwt>
</event>
<event>
 6    1  0.4187588E-002  0.1259919E+03  0.7546771E-02  0.1233527E+00
         21   -1    0    0  504  502  0.00000000000E+00  0.00000000000E+00  0.10611467939E+03  0.10611467939E+03  0.00000000000E+00 0. -1.
         21   -1    0    0  502  503 -0.00000000000E+00 -0.00000000000E+00 -0.66702402246E+02  0.66702402246E+02  0.00000000000E+00 0. -1.
         25    2    1    2    0    0 -0.96760090147E+01  0.12433831541E+02 -0.45938869013E+01  0.12607558197E+03  0.12500289298E+03 0.  0.
          5    1    3    3  501    0  0.17241345436E+02 -0.47459245033E+01 -0.59735653874E+02  0.62355000887E+02  0.10000000000E+00 0.  1.
         -5    1    3    3    0  501 -0.26917354450E+02  0.17179756044E+02  0.55141766973E+02  0.63720581081E+02  0.10000000000E+00 0.  1.
         21    1    1    2  504  503  0.96760090147E+01 -0.12433831541E+02  0.44006164049E+02  0.46741499672E+02  0.00000000000E+00 0. -1.
<mgrwt>
<rscale>  1 0.12599186E+03</rscale>
<asrwt>0</asrwt>
<pdfrwt beam="1">  1       21 0.16325335E-01 0.12599186E+03</pdfrwt>
<pdfrwt beam="2">  1       21 0.10261908E-01 0.12599186E+03</pdfrwt>
<totfact> 0.25807044E+06</totfact>
</mgrwt>
</event>
<event>
 6    1  0.4187588E-002  0.1260322E+03  0.7546771E-02  0.1233465E+00
         21   -1    0    0  503  502  0.00000000000E+00  0.00000000000E+00  0.65140523928E+03  0.65140523928E+03  0.00000000000E+00 0.  1.
         21   -1    0    0  504  503 -0.00000000000E+00 -0.00000000000E+00 -0.73258135337E+02  0.73258135337E+02  0.00000000000E+00 0.  1.
         25    2    1    2    0    0  0.12497630570E+02  0.10127504895E+02 -0.18863548224E+02  0.12743605112E+03  0.12500142619E+03 0.  0.
          5    1    3    3  501    0 -0.52626657625E+02 -0.14147328111E+02  0.29976538742E+01  0.54577540382E+02  0.10000000000E+00 0. -1.
         -5    1    3    3    0  501  0.65124288195E+02  0.24274833006E+02 -0.21861202098E+02  0.72858510742E+02  0.10000000000E+00 0. -1.
         21    1    1    2  504  502 -0.12497630570E+02 -0.10127504895E+02  0.59701065216E+03  0.59722732349E+03  0.00000000000E+00 0.  1.
<mgrwt>
<rscale>  1 0.12603219E+03</rscale>
<asrwt>0</asrwt>
<pdfrwt beam="1">  1       21 0.10021619E+00 0.12603219E+03</pdfrwt>
<pdfrwt beam="2">  1       21 0.11270483E-01 0.12603219E+03</pdfrwt>
<totfact> 0.55494467E+04</totfact>
</mgrwt>
</event>
<event>
 6    1  0.4187588E-002  0.1296405E+03  0.7546771E-02  0.1227990E+00
         21   -1    0    0  504  502  0.00000000000E+00  0.00000000000E+00  0.23046631105E+03  0.23046631105E+03  0.00000000000E+00 0. -1.
         21   -1    0    0  502  503 -0.00000000000E+00 -0.00000000000E+00 -0.49215432225E+02  0.49215432225E+02  0.00000000000E+00 0. -1.
         25    2    1    2    0    0  0.32291944327E+02  0.11805707310E+02  0.42038108099E+02  0.13628599743E+03  0.12499810466E+03 0.  0.
          5    1    3    3  501    0  0.76876895827E+02 -0.10527826288E+02  0.13282838111E+02  0.78723160675E+02  0.10000000000E+00 0.  1.
         -5    1    3    3    0  501 -0.44584951500E+02  0.22333533597E+02  0.28755269988E+02  0.57562836755E+02  0.10000000000E+00 0.  1.
         21    1    1    2  504  503 -0.32291944327E+02 -0.11805707310E+02  0.13921277072E+03  0.14339574584E+03  0.00000000000E+00 0. -1.
<mgrwt>
<rscale>  1 0.12964054E+03</rscale>
<asrwt>0</asrwt>
<pdfrwt beam="1">  1       21 0.35456355E-01 0.12964054E+03</pdfrwt>
<pdfrwt beam="2">  1       21 0.75716051E-02 0.12964054E+03</pdfrwt>
<totfact> 0.10141082E+06</totfact>
</mgrwt>
</event>
<event>
 6    1  0.4187588E-002  0.1309029E+03  0.7546771E-02  0.1226122E+00
         21   -1    0    0  503  502  0.00000000000E+00  0.00000000000E+00  0.29121675330E+02  0.29121675330E+02  0.00000000000E+00 0. -1.
         21   -1    0    0  504  503 -0.00000000000E+00 -0.00000000000E+00 -0.28309275087E+03  0.28309275087E+03  0.00000000000E+00 0. -1.
         25    2    1    2    0    0  0.34455524549E+02  0.17973269226E+02 -0.23493160472E+03  0.26893945621E+03  0.12500140252E+03 0.  0.
          5    1    3    3  501    0  0.41013947040E+02  0.39697773305E+02 -0.23914150196E+03  0.24585915687E+03  0.10000000000E+00 0.  1.
         -5    1    3    3    0  501 -0.65584224917E+01 -0.21724504079E+02  0.42098972355E+01  0.23080299343E+02  0.10000000000E+00 0.  1.
         21    1    1    2  504  502 -0.34455524549E+02 -0.17973269226E+02 -0.19039470820E+02  0.43274969991E+02  0.00000000000E+00 0. -1.
<mgrwt>
<rscale>  1 0.13090291E+03</rscale>
<asrwt>0</asrwt>
<pdfrwt beam="1">  1       21 0.44802575E-02 0.13090291E+03</pdfrwt>
<pdfrwt beam="2">  1       21 0.43552733E-01 0.13090291E+03</pdfrwt>
<totfact> 0.16367069E+06</totfact>
</mgrwt>
</event>
<event>
 6    1  0.4187588E-002  0.1952522E+03  0.7546771E-02  0.1153808E+00
         21   -1    0    0  504  502  0.00000000000E+00  0.00000000000E+00  0.46369695760E+03  0.46369695760E+03  0.00000000000E+00 0.  1.
         21   -1    0    0  502  503 -0.00000000000E+00 -0.00000000000E+00 -0.66013113203E+02  0.66013113203E+02  0.00000000000E+00 0.  1.
         25    2    1    2    0    0 -0.86229002900E+02 -0.12272300459E+03  0.26700525039E+03  0.33077975203E+03  0.12500825501E+03 0.  0.
          5    1    3    3  501    0  0.55801838723E+01 -0.33624740069E+02  0.16119121514E+03  0.16475551412E+03  0.10000000000E+00 0.  1.
         -5    1    3    3    0  501 -0.91809186772E+02 -0.89098264517E+02  0.10581403525E+03  0.16602423791E+03  0.10000000000E+00 0.  1.
         21    1    1    2  504  503  0.86229002900E+02  0.12272300459E+03  0.13067859401E+03  0.19893031877E+03  0.00000000000E+00 0.  1.
<mgrwt>
<rscale>  1 0.19525225E+03</rscale>
<asrwt>0</asrwt>
<pdfrwt beam="1">  1       21 0.71337991E-01 0.19525225E+03</pdfrwt>
<pdfrwt beam="2">  1       21 0.10155864E-01 0.19525225E+03</pdfrwt>
<totfact> 0.14017791E+05</totfact>
</mgrwt>
</event>
<event>
 6    1  0.4187588E-002  0.1263902E+03  0.7546771E-02  0.1232912E+00
         21   -1    0    0  503  502  0.00000000000E+00  0.00000000000E+00  0.25239051440E+02  0.25239051440E+02  0.00000000000E+00 0.  1.
         21   -1    0    0  504  503 -0.00000000000E+00 -0.00000000000E+00 -0.59740308506E+03  0.59740308506E+03  0.00000000000E+00 0.  1.
         25    2    1    2    0    0  0.17301971575E+02  0.70055578516E+01 -0.58595665995E+03  0.59943281505E+03  0.12500422535E+03 0.  0.
          5    1    3    3  501    0 -0.12298594712E+02  0.28725060599E+02 -0.53862689021E+03  0.53953250263E+03  0.10000000000E+00 0.  1.
         -5    1    3    3    0  501  0.29600566287E+02 -0.21719502748E+02 -0.47329769741E+02  0.59900312419E+02  0.10000000000E+00 0.  1.
         21    1    1    2  504  502 -0.17301971575E+02 -0.70055578516E+01  0.13792626329E+02  0.23209321452E+02  0.00000000000E+00 0.  1.
<mgrwt>
<rscale>  1 0.12639024E+03</rscale>
<asrwt>0</asrwt>
<pdfrwt beam="1">  1       21 0.38829314E-02 0.12639024E+03</pdfrwt>
<pdfrwt beam="2">  1       21 0.91908157E-01 0.12639024E+03</pdfrwt>
<totfact> 0.41766210E+05</totfact>
</mgrwt>
</event>
<event>
 6    1  0.4187588E-002  0.1427996E+03  0.7546771E-02  0.1209611E+00
         21   -1    0    0  503  502  0.00000000000E+00  0.00000000000E+00  0.12455797396E+03  0.12455797396E+03  0.00000000000E+00 0.  1.
         21   -1    0    0  504  503 -0.00000000000E+00 -0.00000000000E+00 -0.53633442377E+03  0.53633442377E+03  0.00000000000E+00 0. -1.
         25    2    1    2    0    0  0.12322332589E+02 -0.67933340170E+02 -0.51626708873E+03  0.53565233942E+03  0.12499977294E+03 0.  0.
          5    1    3    3  501    0 -0.10853890126E+02  0.54648435898E+01 -0.37146967759E+03  0.37166840438E+03  0.10000000000E+00 0.  1.
         -5    1    3    3    0  501  0.23176222714E+02 -0.73398183760E+02 -0.14479741114E+03  0.16398393504E+03  0.10000000000E+00 0.  1.
         21    1    1    2  504  502 -0.12322332589E+02  0.67933340170E+02  0.10449063891E+03  0.12524005832E+03  0.00000000000E+00 0.  1.
<mgrwt>
<rscale>  1 0.14279959E+03</rscale>
<asrwt>0</asrwt>
<pdfrwt beam="1">  1       21 0.19162765E-01 0.14279959E+03</pdfrwt>
<pdfrwt beam="2">  1       21 0.82512988E-01 0.14279959E+03</pdfrwt>
<totfact> 0.32975852E+04</totfact>
</mgrwt>
</event>
<event>
 6    1  0.4187588E-002  0.1293936E+03  0.7546771E-02  0.1228358E+00
         21   -1    0    0  504  502  0.00000000000E+00  0.00000000000E+00  0.53167987138E+02  0.53167987138E+02  0.00000000000E+00 0.  1.
         21   -1    0    0  502  503 -0.00000000000E+00 -0.00000000000E+00 -0.19564802079E+03  0.19564802079E+03  0.00000000000E+00 0.  1.
         25    2    1    2    0    0 -0.19253318392E+02  0.27267702262E+02 -0.16415181031E+03  0.20901797080E+03  0.12501390897E+03 0.  0.
          5    1    3    3  501    0 -0.22769678533E+01  0.75421733761E+02 -0.11873500718E+03  0.14068274391E+03  0.10000000000E+00 0.  1.
         -5    1    3    3    0  501 -0.16976350539E+02 -0.48154031499E+02 -0.45416803130E+02  0.68335226888E+02  0.10000000000E+00 0.  1.
         21    1    1    2  504  503  0.19253318392E+02 -0.27267702262E+02  0.21671776654E+02  0.39798037126E+02  0.00000000000E+00 0.  1.
<mgrwt>
<rscale>  1 0.12939357E+03</rscale>
<asrwt>0</asrwt>
<pdfrwt beam="1">  1       21 0.81796903E-02 0.12939357E+03</pdfrwt>
<pdfrwt beam="2">  1       21 0.30099695E-01 0.12939357E+03</pdfrwt>
<totfact> 0.12214729E+06</totfact>
</mgrwt>
</event>
<event>
 6    1  0.4187588E-002  0.1279643E+03  0.7546771E-02  0.1230508E+00
         21   -1    0    0  504  502  0.00000000000E+00  0.00000000000E+00  0.12765872658E+03  0.12765872658E+03  0.00000000000E+00 0.  1.
         21   -1    0    0  502  503 -0.00000000000E+00 -0.00000000000E+00 -0.57383360269E+02  0.57383360269E+02  0.00000000000E+00 0.  1.
         25    2    1    2    0    0  0.69320825989E+01 -0.26495673535E+02  0.22433705639E+02  0.12991587728E+03  0.12499915814E+03 0.  0.
          5    1    3    3  501    0  0.27611929763E+02 -0.23841845521E+02 -0.45808277416E+02  0.58559888515E+02  0.10000000000E+00 0. -1.
         -5    1    3    3    0  501 -0.20679847164E+02 -0.26538280142E+01  0.68241983055E+02  0.71355988768E+02  0.10000000000E+00 0. -1.
         21    1    1    2  504  503 -0.69320825989E+01  0.26495673535E+02  0.47841660672E+02  0.55126209566E+02  0.00000000000E+00 0.  1.
<mgrwt>
<rscale>  1 0.12796431E+03</rscale>
<asrwt>0</asrwt>
<pdfrwt beam="1">  1       21 0.19639804E-01 0.12796431E+03</pdfrwt>
<pdfrwt beam="2">  1       21 0.88282093E-02 0.12796431E+03</pdfrwt>
<totfact> 0.23935617E+06</totfact>
</mgrwt>
</event>
<event>
 6    1  0.4187588E-002  0.1266051E+03  0.7546771E-02  0.1232582E+00
         21   -1    0    0  504  502  0.00000000000E+00  0.00000000000E+00  0.35692283928E+03  0.35692283928E+03  0.00000000000E+00 0. -1.
         21   -1    0    0  502  503 -0.00000000000E+00 -0.00000000000E+00 -0.15110585901E+02  0.15110585901E+02  0.00000000000E+00 0. -1.
         25    2    1    2    0    0  0.19511066972E+02 -0.48089540073E+01  0.28838083577E+03  0.31494818925E+03  0.12500019081E+03 0.  0.
          5    1    3    3  501    0  0.66176308704E+02  0.78669927167E+01  0.97932108389E+02  0.11845632639E+03  0.10000000000E+00 0. -1.
         -5    1    3    3    0  501 -0.46665241732E+02 -0.12675946724E+02  0.19044872738E+03  0.19649186286E+03  0.10000000000E+00 0. -1.
         21    1    1    2  504  503 -0.19511066972E+02  0.48089540073E+01  0.53431417613E+02  0.57085235930E+02  0.00000000000E+00 0.  1.
<mgrwt>
<rscale>  1 0.12660512E+03</rscale>
<asrwt>0</asrwt>
<pdfrwt beam="1">  1       21 0.54911200E-01 0.12660512E+03</pdfrwt>
<pdfrwt beam="2">  1       21 0.23247058E-02 0.12660512E+03</pdfrwt>
<totfact> 0.29886149E+06</totfact>
</mgrwt>
</event>
<event>
 6    1  0.4187588E-002  0.1339349E+03  0.7546771E-02  0.1221731E+00
         21   -1    0    0  503  502  0.00000000000E+00  0.00000000000E+00  0.12972066414E+03  0.12972066414E+03  0.00000000000E+00 0. -1.
         21   -1    0    0  504  503 -0.00000000000E+00 -0.00000000000E+00 -0.13151029302E+03  0.13151029302E+03  0.00000000000E+00 0. -1.
         25    2    1    2    0    0  0.44942679322E+02  0.17140858224E+02 -0.89577324834E+02  0.16112934377E+03  0.12499965941E+03 0.  0.
          5    1    3    3  501    0  0.31970346390E+02 -0.29341769153E+02  0.15032825743E+02  0.45924267171E+02  0.10000000000E+00 0.  1.
         -5    1    3    3    0  501  0.12972332932E+02  0.46482627376E+02 -0.10461015058E+03  0.11520507659E+03  0.10000000000E+00 0.  1.
         21    1    1    2  504  502 -0.44942679322E+02 -0.17140858224E+02  0.87787695953E+02  0.10010161340E+03  0.00000000000E+00 0. -1.
<mgrwt>
<rscale>  1 0.13393494E+03</rscale>
<asrwt>0</asrwt>
<pdfrwt beam="1">  1       21 0.19957025E-01 0.13393494E+03</pdfrwt>
<pdfrwt beam="2">  1       21 0.20232353E-01 0.13393494E+03</pdfrwt>
<totfact> 0.52728497E+05</totfact>
</mgrwt>
</event>
<event>
 6    1  0.4187588E-002  0.1363610E+03  0.7546771E-02  0.1218311E+00
         21   -1    0    0  503  502  0.00000000000E+00  0.00000000000E+00  0.73792680130E+02  0.73792680130E+02  0.00000000000E+00 0.  1.
         21   -1    0    0  504  503 -0.00000000000E+00 -0.00000000000E+00 -0.27257466469E+03  0.27257466469E+03  0.00000000000E+00 0.  1.
         25    2    1    2    0    0 -0.54517905157E+02 -0.15729378317E+01 -0.24133216218E+03  0.27719225008E+03  0.12497861772E+03 0.  0.
          5    1    3    3  501    0 -0.95353006011E+02 -0.41479792263E+01 -0.16832827104E+03  0.19350405246E+03  0.10000000000E+00 0.  1.
         -5    1    3    3    0  501  0.40835100854E+02  0.25750413946E+01 -0.73003891140E+02  0.83688197623E+02  0.10000000000E+00 0.  1.
         21    1    1    2  504  502  0.54517905157E+02  0.15729378317E+01  0.42550177620E+02  0.69175094736E+02  0.00000000000E+00 0.  1.
<mgrwt>
<rscale>  1 0.13636103E+03</rscale>
<asrwt>0</asrwt>
<pdfrwt beam="1">  1       21 0.11352720E-01 0.13636103E+03</pdfrwt>
<pdfrwt beam="2">  1       21 0.41934564E-01 0.13636103E+03</pdfrwt>
<totfact> 0.35841542E+05</totfact>
</mgrwt>
</event>
<event>
 6    1  0.4187588E-002  0.1293784E+03  0.7546771E-02  0.1228381E+00
         21   -1    0    0  503  502  0.00000000000E+00  0.00000000000E+00  0.81905212540E+03  0.81905212540E+03  0.00000000000E+00 0.  1.
         21   -1    0    0  504  503 -0.00000000000E+00 -0.00000000000E+00 -0.12770710291E+02  0.12770710291E+02  0.00000000000E+00 0.  1.
         25    2    1    2    0    0 -0.67567496045E+01 -0.32680561085E+02  0.33123491561E+03  0.35560560645E+03  0.12500042113E+03 0.  0.
          5    1    3    3  501    0 -0.41183235451E+02 -0.67910967113E+02  0.22195211468E+03  0.23573440467E+03  0.10000000000E+00 0.  1.
         -5    1    3    3    0  501  0.34426485847E+02  0.35230406028E+02  0.10928280093E+03  0.11987120178E+03  0.10000000000E+00 0.  1.
         21    1    1    2  504  502  0.67567496045E+01  0.32680561085E+02  0.47504649950E+03  0.47621722924E+03  0.00000000000E+00 0.  1.
<mgrwt>
<rscale>  1 0.12937843E+03</rscale>
<asrwt>0</asrwt>
<pdfrwt beam="1">  1       21 0.12600798E+00 0.12937843E+03</pdfrwt>
<pdfrwt beam="2">  1       21 0.19647253E-02 0.12937843E+03</pdfrwt>
<totfact> 0.59992296E+05</totfact>
</mgrwt>
</event>
<event>
 6    1  0.4187588E-002  0.1398138E+03  0.7546771E-02  0.1213580E+00
         21   -1    0    0  504  502  0.00000000000E+00  0.00000000000E+00  0.47760888873E+03  0.47760888873E+03  0.00000000000E+00 0. -1.
         21   -1    0    0  502  503 -0.00000000000E+00 -0.00000000000E+00 -0.26252278910E+02  0.26252278910E+02  0.00000000000E+00 0. -1.
         25    2    1    2    0    0 -0.62235837244E+02 -0.70714914001E+01  0.19487459994E+03  0.23984160999E+03  0.12499833101E+03 0.  0.
          5    1    3    3  501    0 -0.92767353131E+02 -0.34292660876E+02  0.13890069471E+03  0.17051446093E+03  0.10000000000E+00 0. -1.
         -5    1    3    3    0  501  0.30531515887E+02  0.27221169476E+02  0.55973905232E+02  0.69327149061E+02  0.10000000000E+00 0. -1.
         21    1    1    2  504  503  0.62235837244E+02  0.70714914001E+01  0.25648200988E+03  0.26401955765E+03  0.00000000000E+00 0. -1.
<mgrwt>
<rscale>  1 0.13981376E+03</rscale>
<asrwt>0</asrwt>
<pdfrwt beam="1">  1       21 0.73478284E-01 0.13981376E+03</pdfrwt>
<pdfrwt beam="2">  1       21 0.40388125E-02 0.13981376E+03</pdfrwt>
<totfact> 0.64604520E+05</totfact>
</mgrwt>
</event>
<event>
 6    1  0.4187588E-002  0.1402467E+03  0.7546771E-02  0.1212997E+00
         21   -1    0    0  503  502  0.00000000000E+00  0.00000000000E+00  0.38786028006E+03  0.38786028006E+03  0.00000000000E+00 0.  1.
         21   -1    0    0  504  503 -0.00000000000E+00 -0.00000000000E+00 -0.66646698901E+02  0.66646698901E+02  0.00000000000E+00 0.  1.
         25    2    1    2    0    0 -0.24768974466E+02 -0.58598988429E+02  0.14191560563E+02  0.14096293952E+03  0.12498722489E+03 0.  0.
          5    1    3    3  501    0 -0.54015212625E+02 -0.24608260701E+02  0.54563795501E+02  0.80625228490E+02  0.10000000000E+00 0. -1.
         -5    1    3    3    0  501  0.29246238159E+02 -0.33990727727E+02 -0.40372234938E+02  0.60337711025E+02  0.10000000000E+00 0. -1.
         21    1    1    2  504  502  0.24768974466E+02  0.58598988429E+02  0.30702202060E+03  0.31354403945E+03  0.00000000000E+00 0.  1.
<mgrwt>
<rscale>  1 0.14024675E+03</rscale>
<asrwt>0</asrwt>
<pdfrwt beam="1">  1       21 0.59670811E-01 0.14024675E+03</pdfrwt>
<pdfrwt beam="2">  1       21 0.10253339E-01 0.14024675E+03</pdfrwt>
<totfact> 0.20658540E+05</totfact>
</mgrwt>
</event>
<event>
 6    1  0.4187588E-002  0.1259441E+03  0.7546771E-02  0.1233601E+00
         21   -1    0    0  503  502  0.00000000000E+00  0.00000000000E+00  0.31391947407E+02  0.31391947407E+02  0.00000000000E+00 0.  1.
         21   -1    0    0  504  503 -0.00000000000E+00 -0.00000000000E+00 -0.15915497141E+03  0.15915497141E+03  0.00000000000E+00 0.  1.
         25    2    1    2    0    0  0.23512278654E+01 -0.15229750746E+02 -0.11463326663E+03  0.17030181796E+03  0.12499779918E+03 0.  0.
          5    1    3    3  501    0 -0.25460163896E+01  0.45410368456E+02 -0.61116722457E+01  0.45890590544E+02  0.10000000000E+00 0.  1.
         -5    1    3    3    0  501  0.48972442550E+01 -0.60640119202E+02 -0.10852159439E+03  0.12441122741E+03  0.10000000000E+00 0.  1.
         21    1    1    2  504  502 -0.23512278654E+01  0.15229750746E+02 -0.13129757372E+02  0.20245100861E+02  0.00000000000E+00 0. -1.
<mgrwt>
<rscale>  1 0.12594413E+03</rscale>
<asrwt>0</asrwt>
<pdfrwt beam="1">  1       21 0.48295304E-02 0.12594413E+03</pdfrwt>
<pdfrwt beam="2">  1       21 0.24485380E-01 0.12594413E+03</pdfrwt>
<totfact> 0.44309701E+06</totfact>
</mgrwt>
</event>
<event>
 6    1  0.4187588E-002  0.1269445E+03  0.7546771E-02  0.1232061E+00
         21   -1    0    0  503  502  0.00000000000E+00  0.00000000000E+00  0.74543900029E+01  0.74543900029E+01  0.00000000000E+00 0. -1.
         21   -1    0    0  504  503 -0.00000000000E+00 -0.00000000000E+00 -0.95319289587E+03  0.95319289587E+03  0.00000000000E+00 0. -1.
         25    2    1    2    0    0  0.21522151860E+02 -0.51558197178E+01 -0.90852063203E+03  0.91734652802E+03  0.12500051259E+03 0.  0.
          5    1    3    3  501    0  0.43190319808E+02  0.46722739960E+01 -0.87586818451E+03  0.87694487883E+03  0.10000000000E+00 0.  1.
         -5    1    3    3    0  501 -0.21668167948E+02 -0.98280937138E+01 -0.32652447525E+02  0.40401649195E+02  0.10000000000E+00 0.  1.
         21    1    1    2  504  502 -0.21522151860E+02  0.51558197178E+01 -0.37217873832E+02  0.43300757848E+02  0.00000000000E+00 0. -1.
<mgrwt>
<rscale>  1 0.12694453E+03</rscale>
<asrwt>0</asrwt>
<pdfrwt beam="1">  1       21 0.11468291E-02 0.12694453E+03</pdfrwt>
<pdfrwt beam="2">  1       21 0.14664508E+00 0.12694453E+03</pdfrwt>
<totfact> 0.96761843E+05</totfact>
</mgrwt>
</event>
<event>
 6    1  0.4187588E-002  0.1364959E+03  0.7546771E-02  0.1218123E+00
         21   -1    0    0  504  502  0.00000000000E+00  0.00000000000E+00  0.11187393660E+02  0.11187393660E+02  0.00000000000E+00 0. -1.
         21   -1    0    0  502  503 -0.00000000000E+00 -0.00000000000E+00 -0.88554138006E+03  0.88554138006E+03  0.00000000000E+00 0. -1.
         25    2    1    2    0    0  0.54025363750E+02 -0.93689943188E+01 -0.72245610185E+03  0.73523733335E+03  0.12499839705E+03 0.  0.
          5    1    3    3  501    0 -0.23710588001E+02 -0.27559089099E+02 -0.80410349648E+02  0.88246981285E+02  0.10000000000E+00 0.  1.
         -5    1    3    3    0  501  0.77735951751E+02  0.18190094780E+02 -0.64204575220E+03  0.64699035207E+03  0.10000000000E+00 0.  1.
         21    1    1    2  504  503 -0.54025363750E+02  0.93689943188E+01 -0.15189788455E+03  0.16149144037E+03  0.00000000000E+00 0. -1.
<mgrwt>
<rscale>  1 0.13649585E+03</rscale>
<asrwt>0</asrwt>
<pdfrwt beam="1">  1       21 0.17211373E-02 0.13649585E+03</pdfrwt>
<pdfrwt beam="2">  1       21 0.13623715E+00 0.13649585E+03</pdfrwt>
<totfact> 0.61031636E+05</totfact>
</mgrwt>
</event>
<event>
 6    1  0.4187588E-002  0.1281930E+03  0.7546771E-02  0.1230162E+00
         21   -1    0    0  503  502  0.00000000000E+00  0.00000000000E+00  0.29235808312E+03  0.29235808312E+03  0.00000000000E+00 0.  1.
         21   -1    0    0  504  503 -0.00000000000E+00 -0.00000000000E+00 -0.30131370923E+02  0.30131370923E+02  0.00000000000E+00 0.  1.
         25    2    1    2    0    0 -0.27813307148E+02  0.60340507191E+01  0.11398389248E+03  0.17153938475E+03  0.12499377165E+03 0.  0.
          5    1    3    3  501    0 -0.44668079455E+02 -0.50756096581E+02  0.73027358635E+02  0.99520971516E+02  0.10000000000E+00 0. -1.
         -5    1    3    3    0  501  0.16854772306E+02  0.56790147300E+02  0.40956533845E+02  0.72018413232E+02  0.10000000000E+00 0. -1.
         21    1    1    2  504  502  0.27813307148E+02 -0.60340507191E+01  0.14824281972E+03  0.15095006929E+03  0.00000000000E+00 0.  1.
<mgrwt>
<rscale>  1 0.12819295E+03</rscale>
<asrwt>0</asrwt>
<pdfrwt beam="1">  1       21 0.44978165E-01 0.12819295E+03</pdfrwt>
<pdfrwt beam="2">  1       21 0.46355957E-02 0.12819295E+03</pdfrwt>
<totfact> 0.14477540E+06</totfact>
</mgrwt>
</event>
<event>
 6    1  0.4187588E-002  0.1324263E+03  0.7546771E-02  0.1223899E+00
         21   -1    0    0  503  502  0.00000000000E+00  0.00000000000E+00  0.69472992889E+02  0.69472992889E+02  0.00000000000E+00 0. -1.
         21   -1    0    0  504  503 -0.00000000000E+00 -0.00000000000E+00 -0.12131312136E+03  0.12131312136E+03  0.00000000000E+00 0. -1.
         25    2    1    2    0    0  0.30573750517E+02  0.31622441643E+02 -0.61090720563E+02  0.14583829461E+03  0.12490796212E+03 0.  0.
          5    1    3    3  501    0  0.66590374322E+02  0.19547800615E+02  0.50300917147E+01  0.69582370497E+02  0.10000000000E+00 0. -1.
         -5    1    3    3    0  501 -0.36016623805E+02  0.12074641028E+02 -0.66120812278E+02  0.76255924115E+02  0.10000000000E+00 0. -1.
         21    1    1    2  504  502 -0.30573750517E+02 -0.31622441643E+02  0.92505920926E+01  0.44947819638E+02  0.00000000000E+00 0. -1.
<mgrwt>
<rscale>  1 0.13242633E+03</rscale>
<asrwt>0</asrwt>
<pdfrwt beam="1">  1       21 0.10688153E-01 0.13242633E+03</pdfrwt>
<pdfrwt beam="2">  1       21 0.18663557E-01 0.13242633E+03</pdfrwt>
<totfact> 0.18848148E+06</totfact>
</mgrwt>
</event>
<event>
 6    1  0.4187588E-002  0.1334344E+03  0.7546771E-02  0.1222447E+00
         21   -1    0    0  504  502  0.00000000000E+00  0.00000000000E+00  0.97910239256E+02  0.97910239256E+02  0.00000000000E+00 0. -1.
         21   -1    0    0  502  503 -0.00000000000E+00 -0.00000000000E+00 -0.31977368825E+03  0.31977368825E+03  0.00000000000E+00 0. -1.
         25    2    1    2    0    0 -0.21611710687E+02  0.41383278040E+02 -0.29905442322E+03  0.32747257432E+03  0.12500038858E+03 0.  0.
          5    1    3    3  501    0 -0.29177124260E+02  0.33047332959E+02 -0.30919454695E+03  0.31232148287E+03  0.10000000000E+00 0. -1.
         -5    1    3    3    0  501  0.75654135726E+01  0.83359450807E+01  0.10140123731E+02  0.15151091453E+02  0.10000000000E+00 0. -1.
         21    1    1    2  504  503  0.21611710687E+02 -0.41383278040E+02  0.77190974231E+02  0.90211353182E+02  0.00000000000E+00 0. -1.
<mgrwt>
<rscale>  1 0.13343440E+03</rscale>
<asrwt>0</asrwt>
<pdfrwt beam="1">  1       21 0.15063114E-01 0.13343440E+03</pdfrwt>
<pdfrwt beam="2">  1       21 0.49195952E-01 0.13343440E+03</pdfrwt>
<totfact> 0.15634988E+05</totfact>
</mgrwt>
</event>
<event>
 6    1  0.4187588E-002  0.1280836E+03  0.7546771E-02  0.1230327E+00
         21   -1    0    0  504  502  0.00000000000E+00  0.00000000000E+00  0.29840155148E+02  0.29840155148E+02  0.00000000000E+00 0. -1.
         21   -1    0    0  502  503 -0.00000000000E+00 -0.00000000000E+00 -0.30421167048E+03  0.30421167048E+03  0.00000000000E+00 0. -1.
         25    2    1    2    0    0 -0.44271037023E+01  0.27596021438E+02 -0.27778819414E+03  0.30589488438E+03  0.12499703932E+03 0.  0.
          5    1    3    3  501    0  0.35157953726E+02  0.12038375475E+02 -0.25490024591E+03  0.25759493310E+03  0.10000000000E+00 0.  1.
         -5    1    3    3    0  501 -0.39585057428E+02  0.15557645963E+02 -0.22887948232E+02  0.48299951281E+02  0.10000000000E+00 0.  1.
         21    1    1    2  504  503  0.44271037023E+01 -0.27596021438E+02  0.34166788076E+01  0.28156941249E+02  0.00000000000E+00 0. -1.
<mgrwt>
<rscale>  1 0.12808356E+03</rscale>
<asrwt>0</asrwt>
<pdfrwt beam="1">  1       21 0.45907932E-02 0.12808356E+03</pdfrwt>
<pdfrwt beam="2">  1       21 0.46801794E-01 0.12808356E+03</pdfrwt>
<totfact> 0.13570025E+06</totfact>
</mgrwt>
</event>
<event>
 6    1  0.4187588E-002  0.1470393E+03  0.7546771E-02  0.1204159E+00
         21   -1    0    0  503  502  0.00000000000E+00  0.00000000000E+00  0.12058764881E+03  0.12058764881E+03  0.00000000000E+00 0.  1.
         21   -1    0    0  504  503 -0.00000000000E+00 -0.00000000000E+00 -0.23139442497E+03  0.23139442497E+03  0.00000000000E+00 0. -1.
         25    2    1    2    0    0 -0.65612309791E+02  0.41107984299E+02 -0.19064811717E+03  0.24076390393E+03  0.12500284512E+03 0.  0.
          5    1    3    3  501    0 -0.65432759422E+02 -0.18567292207E+02 -0.40426809165E+02  0.79123493633E+02  0.10000000000E+00 0.  1.
         -5    1    3    3    0  501 -0.17955036846E+00  0.59675276506E+02 -0.15022130800E+03  0.16164041030E+03  0.10000000000E+00 0.  1.
         21    1    1    2  504  502  0.65612309791E+02 -0.41107984299E+02  0.79841341012E+02  0.11121816985E+03  0.00000000000E+00 0.  1.
<mgrwt>
<rscale>  1 0.14703929E+03</rscale>
<asrwt>0</asrwt>
<pdfrwt beam="1">  1       21 0.18551946E-01 0.14703929E+03</pdfrwt>
<pdfrwt beam="2">  1       21 0.35599142E-01 0.14703929E+03</pdfrwt>
<totfact> 0.20455722E+05</totfact>
</mgrwt>
</event>
<event>
 6    1  0.4187588E-002  0.1261129E+03  0.7546771E-02  0.1233340E+00
         21   -1    0    0  503  502  0.00000000000E+00  0.00000000000E+00  0.16472816419E+02  0.16472816419E+02  0.00000000000E+00 0.  1.
         21   -1    0    0  504  503 -0.00000000000E+00 -0.00000000000E+00 -0.37302666929E+03  0.37302666929E+03  0.00000000000E+00 0.  1.
         25    2    1    2    0    0  0.10908524492E+02  0.11900649117E+02 -0.35008576047E+03  0.37210817825E+03  0.12507531842E+03 0.  0.
          5    1    3    3  501    0 -0.29423503760E+02  0.14719695435E+02 -0.17867677935E+02  0.37438962619E+02  0.10000000000E+00 0. -1.
         -5    1    3    3    0  501  0.40332028253E+02 -0.28190463180E+01 -0.33221808254E+03  0.33466921563E+03  0.10000000000E+00 0. -1.
         21    1    1    2  504  502 -0.10908524492E+02 -0.11900649117E+02 -0.64680924047E+01  0.17391307466E+02  0.00000000000E+00 0.  1.
<mgrwt>
<rscale>  1 0.12611287E+03</rscale>
<asrwt>0</asrwt>
<pdfrwt beam="1">  1       21 0.25342795E-02 0.12611287E+03</pdfrwt>
<pdfrwt beam="2">  1       21 0.57388716E-01 0.12611287E+03</pdfrwt>
<totfact> 0.23674811E+06</totfact>
</mgrwt>
</event>
<event>
 6    1  0.4187588E-002  0.1263417E+03  0.7546771E-02  0.1232987E+00
         21   -1    0    0  504  502  0.00000000000E+00  0.00000000000E+00  0.85113814005E+03  0.85113814005E+03  0.00000000000E+00 0. -1.
         21   -1    0    0  502  503 -0.00000000000E+00 -0.00000000000E+00 -0.36101795295E+03  0.36101795295E+03  0.00000000000E+00 0. -1.
         25    2    1    2    0    0 -0.12660615227E+02  0.13329345995E+02 -0.34986068193E+03  0.37197407523E+03  0.12499701291E+03 0.  0.
          5    1    3    3  501    0 -0.18878326358E+02 -0.54763089190E+02 -0.16513415505E+03  0.17499910373E+03  0.10000000000E+00 0.  1.
         -5    1    3    3    0  501  0.62177111309E+01  0.68092435185E+02 -0.18472652689E+03  0.19697497150E+03  0.10000000000E+00 0.  1.
         21    1    1    2  504  503  0.12660615227E+02 -0.13329345995E+02  0.83998086903E+03  0.84018201777E+03  0.00000000000E+00 0. -1.
<mgrwt>
<rscale>  1 0.12634166E+03</rscale>
<asrwt>0</asrwt>
<pdfrwt beam="1">  1       21 0.13094433E+00 0.12634166E+03</pdfrwt>
<pdfrwt beam="2">  1       21 0.55541224E-01 0.12634166E+03</pdfrwt>
<totfact> 0.14001924E+03</totfact>
</mgrwt>
</event>
<event>
 6    1  0.4187588E-002  0.1265657E+03  0.7546771E-02  0.1232642E+00
         21   -1    0    0  503  502  0.00000000000E+00  0.00000000000E+00  0.32604687508E+03  0.32604687508E+03  0.00000000000E+00 0.  1.
         21   -1    0    0  504  503 -0.00000000000E+00 -0.00000000000E+00 -0.20601219041E+02  0.20601219041E+02  0.00000000000E+00 0.  1.
         25    2    1    2    0    0 -0.17942840052E+02 -0.84760475203E+01  0.18238746090E+03  0.22200015678E+03  0.12500037931E+03 0.  0.
          5    1    3    3  501    0  0.10361690377E+02 -0.46211772776E+02  0.16510397930E+03  0.17176212200E+03  0.10000000000E+00 0.  1.
         -5    1    3    3    0  501 -0.28304530430E+02  0.37735725256E+02  0.17283481595E+02  0.50238034789E+02  0.10000000000E+00 0.  1.
         21    1    1    2  504  502  0.17942840052E+02  0.84760475203E+01  0.12305819514E+03  0.12464793733E+03  0.00000000000E+00 0.  1.
<mgrwt>
<rscale>  1 0.12656573E+03</rscale>
<asrwt>0</asrwt>
<pdfrwt beam="1">  1       21 0.50161054E-01 0.12656573E+03</pdfrwt>
<pdfrwt beam="2">  1       21 0.31694186E-02 0.12656573E+03</pdfrwt>
<totfact> 0.21743776E+06</totfact>
</mgrwt>
</event>
<event>
 6    1  0.4187588E-002  0.1337983E+03  0.7546771E-02  0.1221926E+00
         21   -1    0    0  504  502  0.00000000000E+00  0.00000000000E+00  0.70973690399E+02  0.70973690399E+02  0.00000000000E+00 0. -1.
         21   -1    0    0  502  503 -0.00000000000E+00 -0.00000000000E+00 -0.40676271629E+03  0.40676271629E+03  0.00000000000E+00 0.  1.
         25    2    1    2    0    0  0.26010165978E+02  0.40008547576E+02 -0.38596092711E+03  0.40849456757E+03  0.12499904745E+03 0.  0.
          5    1    3    3  501    0  0.74538426495E+02  0.41024836958E+02 -0.23552090931E+03  0.25041789671E+03  0.10000000000E+00 0. -1.
         -5    1    3    3    0  501 -0.48528260517E+02 -0.10162893814E+01 -0.15044001780E+03  0.15807667086E+03  0.10000000000E+00 0. -1.
         21    1    1    2  504  503 -0.26010165978E+02 -0.40008547576E+02  0.50171901217E+02  0.69241839122E+02  0.00000000000E+00 0. -1.
<mgrwt>
<rscale>  1 0.13379826E+03</rscale>
<asrwt>0</asrwt>
<pdfrwt beam="1">  1       21 0.10919029E-01 0.13379826E+03</pdfrwt>
<pdfrwt beam="2">  1       21 0.62578879E-01 0.13379826E+03</pdfrwt>
<totfact> 0.16740265E+05</totfact>
</mgrwt>
</event>
<event>
 6    1  0.4187588E-002  0.1435111E+03  0.7546771E-02  0.1208681E+00
         21   -1    0    0  503  502  0.00000000000E+00  0.00000000000E+00  0.16521981280E+03  0.16521981280E+03  0.00000000000E+00 0. -1.
         21   -1    0    0  504  503 -0.00000000000E+00 -0.00000000000E+00 -0.94062726585E+02  0.94062726585E+02  0.00000000000E+00 0. -1.
         25    2    1    2    0    0 -0.54427288684E+02 -0.44819791707E+02 -0.19072196398E+02  0.14477285891E+03  0.12499715404E+03 0.  0.
          5    1    3    3  501    0 -0.89964233788E+01 -0.81564695657E+02  0.34992105855E+01  0.82133974006E+02  0.10000000000E+00 0.  1.
         -5    1    3    3    0  501 -0.45430865305E+02  0.36744903950E+02 -0.22571406984E+02  0.62638884903E+02  0.10000000000E+00 0.  1.
         21    1    1    2  504  502  0.54427288684E+02  0.44819791707E+02  0.90229282617E+02  0.11450968048E+03  0.00000000000E+00 0. -1.
<mgrwt>
<rscale>  1 0.14351109E+03</rscale>
<asrwt>0</asrwt>
<pdfrwt beam="1">  1       21 0.25418433E-01 0.14351109E+03</pdfrwt>
<pdfrwt beam="2">  1       21 0.14471189E-01 0.14351109E+03</pdfrwt>
<totfact> 0.61767863E+05</totfact>
</mgrwt>
</event>
<event>
 6    1  0.4187588E-002  0.1316899E+03  0.7546771E-02  0.1224970E+00
         21   -1    0    0  503  502  0.00000000000E+00  0.00000000000E+00  0.20575092740E+03  0.20575092740E+03  0.00000000000E+00 0. -1.
         21   -1    0    0  504  503 -0.00000000000E+00 -0.00000000000E+00 -0.27773815603E+03  0.27773815603E+03  0.00000000000E+00 0.  1.
         25    2    1    2    0    0  0.35336013202E+02  0.21708619035E+02 -0.25973682538E+03  0.29121373647E+03  0.12498929505E+03 0.  0.
          5    1    3    3  501    0  0.48003127914E+02  0.51671732429E+02 -0.72403716930E+02  0.10107708171E+03  0.10000000000E+00 0. -1.
         -5    1    3    3    0  501 -0.12667114712E+02 -0.29963113394E+02 -0.18733310846E+03  0.19013665476E+03  0.10000000000E+00 0. -1.
         21    1    1    2  504  502 -0.35336013202E+02 -0.21708619035E+02  0.18774959675E+03  0.19227534696E+03  0.00000000000E+00 0. -1.
<mgrwt>
<rscale>  1 0.13168987E+03</rscale>
<asrwt>0</asrwt>
<pdfrwt beam="1">  1       21 0.31653989E-01 0.13168987E+03</pdfrwt>
<pdfrwt beam="2">  1       21 0.42728947E-01 0.13168987E+03</pdfrwt>
<totfact> 0.52083596E+04</totfact>
</mgrwt>
</event>
<event>
 6    1  0.4187588E-002  0.1366487E+03  0.7546771E-02  0.1217911E+00
         21   -1    0    0  504  502  0.00000000000E+00  0.00000000000E+00  0.12693816853E+02  0.12693816853E+02  0.00000000000E+00 0.  1.
         21   -1    0    0  502  503 -0.00000000000E+00 -0.00000000000E+00 -0.13209781369E+04  0.13209781369E+04  0.00000000000E+00 0.  1.
         25    2    1    2    0    0  0.99056066652E+01  0.54344387725E+02 -0.12316305544E+04  0.12391879164E+04  0.12498574387E+03 0.  0.
          5    1    3    3  501    0  0.22924669919E+02  0.83817904621E+02 -0.11088581295E+04  0.11122577682E+04  0.10000000000E+00 0. -1.
         -5    1    3    3    0  501 -0.13019063253E+02 -0.29473516896E+02 -0.12277242488E+03  0.12693014818E+03  0.10000000000E+00 0. -1.
         21    1    1    2  504  503 -0.99056066652E+01 -0.54344387725E+02 -0.76653765626E+02  0.94484037304E+02  0.00000000000E+00 0.  1.
<mgrwt>
<rscale>  1 0.13664871E+03</rscale>
<asrwt>0</asrwt>
<pdfrwt beam="1">  1       21 0.19528946E-02 0.13664871E+03</pdfrwt>
<pdfrwt beam="2">  1       21 0.20322743E+00 0.13664871E+03</pdfrwt>
<totfact> 0.16892482E+05</totfact>
</mgrwt>
</event>
<event>
 6    1  0.4187588E-002  0.1809890E+03  0.7546771E-02  0.1166849E+00
         21   -1    0    0  503  502  0.00000000000E+00  0.00000000000E+00  0.61238182221E+03  0.61238182221E+03  0.00000000000E+00 0. -1.
         21   -1    0    0  504  503 -0.00000000000E+00 -0.00000000000E+00 -0.42787894598E+02  0.42787894598E+02  0.00000000000E+00 0. -1.
         25    2    1    2    0    0 -0.13088887766E+03 -0.81878044223E+00  0.24044357228E+03  0.30094870514E+03  0.12499777189E+03 0.  0.
          5    1    3    3  501    0 -0.10689875977E+03  0.30771319188E+02  0.83558919254E+02  0.13912699922E+03  0.10000000000E+00 0.  1.
         -5    1    3    3    0  501 -0.23990117889E+02 -0.31590099630E+02  0.15688465303E+03  0.16182170592E+03  0.10000000000E+00 0.  1.
         21    1    1    2  504  502  0.13088887766E+03  0.81878044223E+00  0.32915035533E+03  0.35422101167E+03  0.00000000000E+00 0. -1.
<mgrwt>
<rscale>  1 0.18098898E+03</rscale>
<asrwt>0</asrwt>
<pdfrwt beam="1">  1       21 0.94212582E-01 0.18098898E+03</pdfrwt>
<pdfrwt beam="2">  1       21 0.65827535E-02 0.18098898E+03</pdfrwt>
<totfact> 0.15949425E+05</totfact>
</mgrwt>
</event>
<event>
 6    1  0.4187588E-002  0.1403087E+03  0.7546771E-02  0.1212914E+00
         21   -1    0    0  503  502  0.00000000000E+00  0.00000000000E+00  0.72192744845E+02  0.72192744845E+02  0.00000000000E+00 0.  1.
         21   -1    0    0  504  503 -0.00000000000E+00 -0.00000000000E+00 -0.70247842114E+03  0.70247842114E+03  0.00000000000E+00 0.  1.
         25    2    1    2    0    0 -0.32893311931E+02  0.54579742596E+02 -0.67970073677E+03  0.69403143339E+03  0.12500248273E+03 0.  0.
          5    1    3    3  501    0  0.17435591159E+02  0.14116991426E+02 -0.53620710395E+03  0.53667621302E+03  0.10000000000E+00 0. -1.
         -5    1    3    3    0  501 -0.50328903090E+02  0.40462751171E+02 -0.14349363282E+03  0.15735522037E+03  0.10000000000E+00 0. -1.
         21    1    1    2  504  502  0.32893311931E+02 -0.54579742596E+02  0.49415060477E+02  0.80639732598E+02  0.00000000000E+00 0.  1.
<mgrwt>
<rscale>  1 0.14030873E+03</rscale>
<asrwt>0</asrwt>
<pdfrwt beam="1">  1       21 0.11106576E-01 0.14030873E+03</pdfrwt>
<pdfrwt beam="2">  1       21 0.10807360E+00 0.14030873E+03</pdfrwt>
<totfact> 0.47234218E+04</totfact>
</mgrwt>
</event>
<event>
 6    1  0.4187588E-002  0.1514994E+03  0.7546771E-02  0.1198643E+00
         21   -1    0    0  504  502  0.00000000000E+00  0.00000000000E+00  0.96676703123E+02  0.96676703123E+02  0.00000000000E+00 0. -1.
         21   -1    0    0  502  503 -0.00000000000E+00 -0.00000000000E+00 -0.14718498231E+03  0.14718498231E+03  0.00000000000E+00 0. -1.
         25    2    1    2    0    0 -0.73286790797E+02  0.44229712221E+02 -0.45198441240E+02  0.15809796625E+03  0.12499938678E+03 0.  0.
          5    1    3    3  501    0  0.25351925403E+02 -0.67147665097E+01  0.16600602778E+02  0.31038656922E+02  0.10000000000E+00 0.  1.
         -5    1    3    3    0  501 -0.98638716200E+02  0.50944478731E+02 -0.61799044018E+02  0.12705930933E+03  0.10000000000E+00 0.  1.
         21    1    1    2  504  503  0.73286790797E+02 -0.44229712221E+02 -0.53098379488E+01  0.85763719179E+02  0.00000000000E+00 0. -1.
<mgrwt>
<rscale>  1 0.15149940E+03</rscale>
<asrwt>0</asrwt>
<pdfrwt beam="1">  1       21 0.14873339E-01 0.15149940E+03</pdfrwt>
<pdfrwt beam="2">  1       21 0.22643843E-01 0.15149940E+03</pdfrwt>
<totfact> 0.73105799E+05</totfact>
</mgrwt>
</event>
<event>
 6    1  0.4187588E-002  0.1293178E+03  0.7546771E-02  0.1228471E+00
         21   -1    0    0  503  502  0.00000000000E+00  0.00000000000E+00  0.21549915021E+03  0.21549915021E+03  0.00000000000E+00 0.  1.
         21   -1    0    0  504  503 -0.00000000000E+00 -0.00000000000E+00 -0.15470906788E+03  0.15470906788E+03  0.00000000000E+00 0.  1.
         25    2    1    2    0    0 -0.28340164328E+02 -0.17187622843E+02 -0.12596911500E+03  0.18053065726E+03  0.12499808393E+03 0.  0.
          5    1    3    3  501    0 -0.53510352661E+02 -0.48035683989E+02 -0.12052494486E+03  0.14034620448E+03  0.10000000000E+00 0. -1.
         -5    1    3    3    0  501  0.25170188332E+02  0.30848061147E+02 -0.54441701353E+01  0.40184452785E+02  0.10000000000E+00 0. -1.
         21    1    1    2  504  502  0.28340164328E+02  0.17187622843E+02  0.18675919732E+03  0.18967756082E+03  0.00000000000E+00 0.  1.
<mgrwt>
<rscale>  1 0.12931783E+03</rscale>
<asrwt>0</asrwt>
<pdfrwt beam="1">  1       21 0.33153715E-01 0.12931783E+03</pdfrwt>
<pdfrwt beam="2">  1       21 0.23801395E-01 0.12931783E+03</pdfrwt>
<totfact> 0.14869197E+05</totfact>
</mgrwt>
</event>
<event>
 6    1  0.4187588E-002  0.1262147E+03  0.7546771E-02  0.1233183E+00
         21   -1    0    0  503  502  0.00000000000E+00  0.00000000000E+00  0.15633701234E+02  0.15633701234E+02  0.00000000000E+00 0.  1.
         21   -1    0    0  504  503 -0.00000000000E+00 -0.00000000000E+00 -0.44896843585E+03  0.44896843585E+03  0.00000000000E+00 0.  1.
         25    2    1    2    0    0 -0.34892332693E+01  0.17105677688E+02 -0.42818644257E+03  0.44640093193E+03  0.12500153386E+03 0.  0.
          5    1    3    3  501    0  0.29581200276E+02 -0.34840905143E+02 -0.30784064531E+03  0.31121505263E+03  0.10000000000E+00 0. -1.
         -5    1    3    3    0  501 -0.33070433545E+02  0.51946582831E+02 -0.12034579726E+03  0.13518587930E+03  0.10000000000E+00 0. -1.
         21    1    1    2  504  502  0.34892332693E+01 -0.17105677688E+02 -0.51482920413E+01  0.18201205150E+02  0.00000000000E+00 0.  1.
<mgrwt>
<rscale>  1 0.12621475E+03</rscale>
<asrwt>0</asrwt>
<pdfrwt beam="1">  1       21 0.24051846E-02 0.12621475E+03</pdfrwt>
<pdfrwt beam="2">  1       21 0.69072073E-01 0.12621475E+03</pdfrwt>
<totfact> 0.17338194E+06</totfact>
</mgrwt>
</event>
<event>
 6    1  0.4187588E-002  0.1260252E+03  0.7546771E-02  0.1233476E+00
         21   -1    0    0  503  502  0.00000000000E+00  0.00000000000E+00  0.75223769247E+02  0.75223769247E+02  0.00000000000E+00 0. -1.
         21   -1    0    0  504  503 -0.00000000000E+00 -0.00000000000E+00 -0.71487695080E+02  0.71487695080E+02  0.00000000000E+00 0. -1.
         25    2    1    2    0    0  0.15820466596E+02  0.25902643397E+01 -0.88418237932E+01  0.12633500365E+03  0.12500143466E+03 0.  0.
          5    1    3    3  501    0  0.44480257845E+01 -0.30077548351E+02  0.49743572537E+02  0.58299887281E+02  0.10000000000E+00 0. -1.
         -5    1    3    3    0  501  0.11372440812E+02  0.32667812691E+02 -0.58585396330E+02  0.68035116368E+02  0.10000000000E+00 0. -1.
         21    1    1    2  504  502 -0.15820466596E+02 -0.25902643397E+01  0.12577897960E+02  0.20376460678E+02  0.00000000000E+00 0. -1.
<mgrwt>
<rscale>  1 0.12602522E+03</rscale>
<asrwt>0</asrwt>
<pdfrwt beam="1">  1       21 0.11572888E-01 0.12602522E+03</pdfrwt>
<pdfrwt beam="2">  1       21 0.10998107E-01 0.12602522E+03</pdfrwt>
<totfact> 0.42295453E+06</totfact>
</mgrwt>
</event>
<event>
 6    1  0.4187588E-002  0.1268567E+03  0.7546771E-02  0.1232196E+00
         21   -1    0    0  504  502  0.00000000000E+00  0.00000000000E+00  0.53196690938E+03  0.53196690938E+03  0.00000000000E+00 0. -1.
         21   -1    0    0  502  503 -0.00000000000E+00 -0.00000000000E+00 -0.40030699939E+02  0.40030699939E+02  0.00000000000E+00 0.  1.
         25    2    1    2    0    0 -0.85004996037E-01 -0.22096213193E+02  0.61470997800E+02  0.14096565192E+03  0.12491749913E+03 0.  0.
          5    1    3    3  501    0 -0.60746539207E+02 -0.21205095166E+02  0.43591855101E+02  0.77717809527E+02  0.10000000000E+00 0. -1.
         -5    1    3    3    0  501  0.60661534211E+02 -0.89111802703E+00  0.17879142699E+02  0.63247842396E+02  0.10000000000E+00 0. -1.
         21    1    1    2  504  503  0.85004996037E-01  0.22096213193E+02  0.43046521164E+03  0.43103195740E+03  0.00000000000E+00 0. -1.
<mgrwt>
<rscale>  1 0.12685674E+03</rscale>
<asrwt>0</asrwt>
<pdfrwt beam="1">  1       21 0.81841058E-01 0.12685674E+03</pdfrwt>
<pdfrwt beam="2">  1       21 0.61585696E-02 0.12685674E+03</pdfrwt>
<totfact> 0.25067699E+05</totfact>
</mgrwt>
</event>
<event>
 6    1  0.4187588E-002  0.1269721E+03  0.7546771E-02  0.1232019E+00
         21   -1    0    0  503  502  0.00000000000E+00  0.00000000000E+00  0.61166473870E+02  0.61166473870E+02  0.00000000000E+00 0. -1.
         21   -1    0    0  504  503 -0.00000000000E+00 -0.00000000000E+00 -0.16043593685E+03  0.16043593685E+03  0.00000000000E+00 0. -1.
         25    2    1    2    0    0  0.15840322933E+01 -0.22413721005E+02 -0.13118603878E+03  0.18256970829E+03  0.12496814621E+03 0.  0.
          5    1    3    3  501    0 -0.44348091686E+02 -0.64870016901E+01 -0.12593359249E+03  0.13367166546E+03  0.10000000000E+00 0.  1.
         -5    1    3    3    0  501  0.45932123979E+02 -0.15926719315E+02 -0.52524462895E+01  0.48898042838E+02  0.10000000000E+00 0.  1.
         21    1    1    2  504  502 -0.15840322933E+01  0.22413721005E+02  0.31916575804E+02  0.39032702426E+02  0.00000000000E+00 0. -1.
<mgrwt>
<rscale>  1 0.12697213E+03</rscale>
<asrwt>0</asrwt>
<pdfrwt beam="1">  1       21 0.94102267E-02 0.12697213E+03</pdfrwt>
<pdfrwt beam="2">  1       21 0.24682452E-01 0.12697213E+03</pdfrwt>
<totfact> 0.13983145E+06</totfact>
</mgrwt>
</event>
<event>
 6    1  0.4187588E-002  0.1273805E+03  0.7546771E-02  0.1231395E+00
         21   -1    0    0  504  502  0.00000000000E+00  0.00000000000E+00  0.10301225082E+02  0.10301225082E+02  0.00000000000E+00 0.  1.
         21   -1    0    0  502  503 -0.00000000000E+00 -0.00000000000E+00 -0.67196895588E+03  0.67196895588E+03  0.00000000000E+00 0.  1.
         25    2    1    2    0    0 -0.17207177946E+02  0.17451285185E+02 -0.62703715817E+03  0.63984482430E+03  0.12500066852E+03 0.  0.
          5    1    3    3  501    0 -0.47222472870E+02 -0.31967485720E+02 -0.17336373302E+03  0.18250171510E+03  0.10000000000E+00 0. -1.
         -5    1    3    3    0  501  0.30015294924E+02  0.49418770904E+02 -0.45367342515E+03  0.45734310920E+03  0.10000000000E+00 0. -1.
         21    1    1    2  504  503  0.17207177946E+02 -0.17451285185E+02 -0.34630572635E+02  0.42425356669E+02  0.00000000000E+00 0.  1.
<mgrwt>
<rscale>  1 0.12738054E+03</rscale>
<asrwt>0</asrwt>
<pdfrwt beam="1">  1       21 0.15848039E-02 0.12738054E+03</pdfrwt>
<pdfrwt beam="2">  1       21 0.10337984E+00 0.12738054E+03</pdfrwt>
<totfact> 0.13653587E+06</totfact>
</mgrwt>
</event>
<event>
 6    1  0.4187588E-002  0.1558844E+03  0.7546771E-02  0.1193423E+00
         21   -1    0    0  504  502  0.00000000000E+00  0.00000000000E+00  0.91470106547E+03  0.91470106547E+03  0.00000000000E+00 0. -1.
         21   -1    0    0  502  503 -0.00000000000E+00 -0.00000000000E+00 -0.37159395828E+02  0.37159395828E+02  0.00000000000E+00 0. -1.
         25    2    1    2    0    0 -0.35586892667E+02  0.86046314264E+02  0.14331374972E+03  0.21175166286E+03  0.12501816163E+03 0.  0.
          5    1    3    3  501    0 -0.11629633669E+01 -0.12253253188E+02 -0.16749318635E+02  0.20785677093E+02  0.10000000000E+00 0. -1.
         -5    1    3    3    0  501 -0.34423929300E+02  0.98299567453E+02  0.16006306836E+03  0.19096598577E+03  0.10000000000E+00 0. -1.
         21    1    1    2  504  503  0.35586892667E+02 -0.86046314264E+02  0.73422791993E+03  0.74010879844E+03  0.00000000000E+00 0. -1.
<mgrwt>
<rscale>  1 0.15588437E+03</rscale>
<asrwt>0</asrwt>
<pdfrwt beam="1">  1       21 0.14072322E+00 0.15588437E+03</pdfrwt>
<pdfrwt beam="2">  1       21 0.57168308E-02 0.15588437E+03</pdfrwt>
<totfact> 0.77060639E+04</totfact>
</mgrwt>
</event>
<event>
 6    1  0.4187588E-002  0.1272232E+03  0.7546771E-02  0.1231635E+00
         21   -1    0    0  504  502  0.00000000000E+00  0.00000000000E+00  0.17201768327E+02  0.17201768327E+02  0.00000000000E+00 0.  1.
         21   -1    0    0  502  503 -0.00000000000E+00 -0.00000000000E+00 -0.47004494795E+03  0.47004494795E+03  0.00000000000E+00 0.  1.
         25    2    1    2    0    0 -0.67524825858E+01  0.22716687333E+02 -0.44413659925E+03  0.46199897487E+03  0.12499636027E+03 0.  0.
          5    1    3    3  501    0  0.54999853663E+01 -0.10153546134E+01  0.76204190170E+01  0.94531248809E+01  0.10000000000E+00 0.  1.
         -5    1    3    3    0  501 -0.12252467952E+02  0.23732041947E+02 -0.45175701827E+03  0.45254584999E+03  0.10000000000E+00 0.  1.
         21    1    1    2  504  503  0.67524825858E+01 -0.22716687333E+02 -0.87065803709E+01  0.25247741409E+02  0.00000000000E+00 0.  1.
<mgrwt>
<rscale>  1 0.12722317E+03</rscale>
<asrwt>0</asrwt>
<pdfrwt beam="1">  1       21 0.26464261E-02 0.12722317E+03</pdfrwt>
<pdfrwt beam="2">  1       21 0.72314602E-01 0.12722317E+03</pdfrwt>
<totfact> 0.13427720E+06</totfact>
</mgrwt>
</event>
<event>
 6    1  0.4187588E-002  0.1334067E+03  0.7546771E-02  0.1222487E+00
         21   -1    0    0  503  502  0.00000000000E+00  0.00000000000E+00  0.22923053633E+03  0.22923053633E+03  0.00000000000E+00 0.  1.
         21   -1    0    0  504  503 -0.00000000000E+00 -0.00000000000E+00 -0.58397414947E+02  0.58397414947E+02  0.00000000000E+00 0.  1.
         25    2    1    2    0    0  0.46602020080E+02  0.31036731874E+00  0.26573546852E+02  0.13602759030E+03  0.12500202930E+03 0.  0.
          5    1    3    3  501    0 -0.33772424025E+02  0.14205373495E+02  0.39010418963E+02  0.53518146906E+02  0.10000000000E+00 0.  1.
         -5    1    3    3    0  501  0.80374444105E+02 -0.13895006176E+02 -0.12436872111E+02  0.82509443397E+02  0.10000000000E+00 0.  1.
         21    1    1    2  504  502 -0.46602020080E+02 -0.31036731874E+00  0.14425957453E+03  0.15160036098E+03  0.00000000000E+00 0.  1.
<mgrwt>
<rscale>  1 0.13340672E+03</rscale>
<asrwt>0</asrwt>
<pdfrwt beam="1">  1       21 0.35266236E-01 0.13340672E+03</pdfrwt>
<pdfrwt beam="2">  1       21 0.89842178E-02 0.13340672E+03</pdfrwt>
<totfact> 0.76268820E+05</totfact>
</mgrwt>
</event>
<event>
 6    1  0.4187588E-002  0.1283916E+03  0.7546771E-02  0.1229862E+00
         21   -1    0    0  504  502  0.00000000000E+00  0.00000000000E+00  0.23764401330E+02  0.23764401330E+02  0.00000000000E+00 0.  1.
         21   -1    0    0  502  503 -0.00000000000E+00 -0.00000000000E+00 -0.26609335281E+03  0.26609335281E+03  0.00000000000E+00 0.  1.
         25    2    1    2    0    0 -0.19604059695E+02 -0.21834532218E+02 -0.18150172726E+03  0.22232245107E+03  0.12499331702E+03 0.  0.
          5    1    3    3  501    0 -0.30911302598E+02 -0.61944562725E+02 -0.16227977674E+03  0.17642951402E+03  0.10000000000E+00 0.  1.
         -5    1    3    3    0  501  0.11307242903E+02  0.40110030507E+02 -0.19221950517E+02  0.45892937050E+02  0.10000000000E+00 0.  1.
         21    1    1    2  504  503  0.19604059695E+02  0.21834532218E+02 -0.60827224225E+02  0.67535303069E+02  0.00000000000E+00 0.  1.
<mgrwt>
<rscale>  1 0.12839157E+03</rscale>
<asrwt>0</asrwt>
<pdfrwt beam="1">  1       21 0.36560617E-02 0.12839157E+03</pdfrwt>
<pdfrwt beam="2">  1       21 0.40937439E-01 0.12839157E+03</pdfrwt>
<totfact> 0.25983616E+06</totfact>
</mgrwt>
</event>
<event>
 6    1  0.4187588E-002  0.1274771E+03  0.7546771E-02  0.1231248E+00
         21   -1    0    0  504  502  0.00000000000E+00  0.00000000000E+00  0.36036190559E+03  0.36036190559E+03  0.00000000000E+00 0. -1.
         21   -1    0    0  502  503 -0.00000000000E+00 -0.00000000000E+00 -0.39426583467E+02  0.39426583467E+02  0.00000000000E+00 0. -1.
         25    2    1    2    0    0  0.67474565703E+01  0.24122738176E+02  0.65857788926E+02  0.14348401658E+03  0.12499191968E+03 0.  0.
          5    1    3    3  501    0  0.20370263891E+02 -0.47630813966E+02  0.41874159072E+02  0.66611540202E+02  0.10000000000E+00 0. -1.
         -5    1    3    3    0  501 -0.13622807321E+02  0.71753552142E+02  0.23983629854E+02  0.76872476383E+02  0.10000000000E+00 0. -1.
         21    1    1    2  504  503 -0.67474565703E+01 -0.24122738176E+02  0.25507753320E+03  0.25630447248E+03  0.00000000000E+00 0. -1.
<mgrwt>
<rscale>  1 0.12747711E+03</rscale>
<asrwt>0</asrwt>
<pdfrwt beam="1">  1       21 0.55440291E-01 0.12747711E+03</pdfrwt>
<pdfrwt beam="2">  1       21 0.60656284E-02 0.12747711E+03</pdfrwt>
<totfact> 0.59798437E+05</totfact>
</mgrwt>
</event>
<event>
 6    1  0.4187588E-002  0.1835310E+03  0.7546771E-02  0.1164429E+00
         21   -1    0    0  504  502  0.00000000000E+00  0.00000000000E+00  0.25566545677E+02  0.25566545677E+02  0.00000000000E+00 0. -1.
         21   -1    0    0  502  503 -0.00000000000E+00 -0.00000000000E+00 -0.10857380937E+04  0.10857380937E+04  0.00000000000E+00 0. -1.
         25    2    1    2    0    0  0.38439276927E+02  0.12876952800E+03 -0.76931117939E+03  0.79090032699E+03  0.12499786856E+03 0.  0.
          5    1    3    3  501    0 -0.44728464795E+02  0.27629939964E+02 -0.21606650156E+03  0.22237084396E+03  0.10000000000E+00 0.  1.
         -5    1    3    3    0  501  0.83167741722E+02  0.10113958804E+03 -0.55324467783E+03  0.56852948303E+03  0.10000000000E+00 0.  1.
         21    1    1    2  504  503 -0.38439276927E+02 -0.12876952800E+03 -0.29086036859E+03  0.32040431234E+03  0.00000000000E+00 0. -1.
<mgrwt>
<rscale>  1 0.18353102E+03</rscale>
<asrwt>0</asrwt>
<pdfrwt beam="1">  1       21 0.39333146E-02 0.18353102E+03</pdfrwt>
<pdfrwt beam="2">  1       21 0.16703663E+00 0.18353102E+03</pdfrwt>
<totfact> 0.90679919E+04</totfact>
</mgrwt>
</event>
<event>
 6    1  0.4187588E-002  0.1738834E+03  0.7546771E-02  0.1173857E+00
         21   -1    0    0  504  502  0.00000000000E+00  0.00000000000E+00  0.35759770978E+02  0.35759770978E+02  0.00000000000E+00 0.  1.
         21   -1    0    0  502  503 -0.00000000000E+00 -0.00000000000E+00 -0.13613855804E+04  0.13613855804E+04  0.00000000000E+00 0.  1.
         25    2    1    2    0    0 -0.25135853479E+02 -0.11821856521E+03 -0.12321373042E+04  0.12443463301E+04  0.12501204967E+03 0.  0.
          5    1    3    3  501    0 -0.29788799921E+02 -0.19276401866E+02 -0.80870416398E+03  0.80948217220E+03  0.10000000000E+00 0. -1.
         -5    1    3    3    0  501  0.46529464423E+01 -0.98942163343E+02 -0.42343314022E+03  0.43486415791E+03  0.10000000000E+00 0. -1.
         21    1    1    2  504  503  0.25135853479E+02  0.11821856521E+03 -0.93488505205E+02  0.15279902125E+03  0.00000000000E+00 0.  1.
<mgrwt>
<rscale>  1 0.17388345E+03</rscale>
<asrwt>0</asrwt>
<pdfrwt beam="1">  1       21 0.55015036E-02 0.17388345E+03</pdfrwt>
<pdfrwt beam="2">  1       21 0.20944392E+00 0.17388345E+03</pdfrwt>
<totfact> 0.27134435E+04</totfact>
</mgrwt>
</event>
<event>
 6    1  0.4187588E-002  0.1711141E+03  0.7546771E-02  0.1176691E+00
         21   -1    0    0  504  502  0.00000000000E+00  0.00000000000E+00  0.62575590185E+02  0.62575590185E+02  0.00000000000E+00 0.  1.
         21   -1    0    0  502  503 -0.00000000000E+00 -0.00000000000E+00 -0.41582749670E+03  0.41582749670E+03  0.00000000000E+00 0.  1.
         25    2    1    2    0    0 -0.73093201951E+02 -0.91164579573E+02 -0.30946037350E+03  0.35361809138E+03  0.12500574003E+03 0.  0.
          5    1    3    3  501    0  0.61335686095E+01 -0.65802879137E+02 -0.22724048660E+03  0.23665563234E+03  0.10000000000E+00 0.  1.
         -5    1    3    3    0  501 -0.79226770560E+02 -0.25361700436E+02 -0.82219886903E+02  0.11696245904E+03  0.10000000000E+00 0.  1.
         21    1    1    2  504  503  0.73093201951E+02  0.91164579573E+02 -0.43791533009E+02  0.12478499551E+03  0.00000000000E+00 0.  1.
<mgrwt>
<rscale>  1 0.17111409E+03</rscale>
<asrwt>0</asrwt>
<pdfrwt beam="1">  1       21 0.96270137E-02 0.17111409E+03</pdfrwt>
<pdfrwt beam="2">  1       21 0.63973462E-01 0.17111409E+03</pdfrwt>
<totfact> 0.19706039E+05</totfact>
</mgrwt>
</event>
<event>
 6    1  0.4187588E-002  0.1503385E+03  0.7546771E-02  0.1200058E+00
         21   -1    0    0  504  502  0.00000000000E+00  0.00000000000E+00  0.22671713071E+03  0.22671713071E+03  0.00000000000E+00 0.  1.
         21   -1    0    0  502  503 -0.00000000000E+00 -0.00000000000E+00 -0.22729900117E+03  0.22729900117E+03  0.00000000000E+00 0.  1.
         25    2    1    2    0    0  0.77039943809E+02 -0.32295016516E+02 -0.19276762682E+03  0.24446068340E+03  0.12499418685E+03 0.  0.
          5    1    3    3  501    0  0.10986575676E+03 -0.27604670122E+02 -0.16981882656E+03  0.20413462757E+03  0.10000000000E+00 0.  1.
         -5    1    3    3    0  501 -0.32825812952E+02 -0.46903463935E+01 -0.22948800267E+02  0.40326055832E+02  0.10000000000E+00 0.  1.
         21    1    1    2  504  503 -0.77039943809E+02  0.32295016516E+02  0.19218575636E+03  0.20955544847E+03  0.00000000000E+00 0.  1.
<mgrwt>
<rscale>  1 0.15033851E+03</rscale>
<asrwt>0</asrwt>
<pdfrwt beam="1">  1       21 0.34879558E-01 0.15033851E+03</pdfrwt>
<pdfrwt beam="2">  1       21 0.34969077E-01 0.15033851E+03</pdfrwt>
<totfact> 0.63667866E+04</totfact>
</mgrwt>
</event>
<event>
 6    1  0.4187588E-002  0.1264570E+03  0.7546771E-02  0.1232810E+00
         21   -1    0    0  503  502  0.00000000000E+00  0.00000000000E+00  0.79763373898E+01  0.79763373898E+01  0.00000000000E+00 0.  1.
         21   -1    0    0  504  503 -0.00000000000E+00 -0.00000000000E+00 -0.87075089712E+03  0.87075089712E+03  0.00000000000E+00 0.  1.
         25    2    1    2    0    0  0.24792263659E+01 -0.18974701400E+02 -0.83766822167E+03  0.84715962346E+03  0.12500076867E+03 0.  0.
          5    1    3    3  501    0 -0.39397955455E+02  0.15396606556E+02 -0.11619100400E+03  0.12365117790E+03  0.10000000000E+00 0.  1.
         -5    1    3    3    0  501  0.41877181821E+02 -0.34371307957E+02 -0.72147721768E+03  0.72350844556E+03  0.10000000000E+00 0.  1.
         21    1    1    2  504  502 -0.24792263659E+01  0.18974701400E+02 -0.25106338060E+02  0.31567611050E+02  0.00000000000E+00 0. -1.
<mgrwt>
<rscale>  1 0.12645702E+03</rscale>
<asrwt>0</asrwt>
<pdfrwt beam="1">  1       21 0.12271297E-02 0.12645702E+03</pdfrwt>
<pdfrwt beam="2">  1       21 0.13396158E+00 0.12645702E+03</pdfrwt>
<totfact> 0.10938567E+06</totfact>
</mgrwt>
</event>
<event>
 6    1  0.4187588E-002  0.1261119E+03  0.7546771E-02  0.1233342E+00
         21   -1    0    0  504  502  0.00000000000E+00  0.00000000000E+00  0.76986138255E+01  0.76986138255E+01  0.00000000000E+00 0.  1.
         21   -1    0    0  502  503 -0.00000000000E+00 -0.00000000000E+00 -0.66582707729E+03  0.66582707729E+03  0.00000000000E+00 0.  1.
         25    2    1    2    0    0  0.13441280090E+02  0.98679218768E+01 -0.59616772913E+03  0.60936046305E+03  0.12500467506E+03 0.  0.
          5    1    3    3  501    0  0.22234949347E+02 -0.47702685251E+02 -0.14136884563E+03  0.15084793558E+03  0.10000000000E+00 0. -1.
         -5    1    3    3    0  501 -0.87936692565E+01  0.57570607128E+02 -0.45479888350E+03  0.45851252748E+03  0.10000000000E+00 0. -1.
         21    1    1    2  504  503 -0.13441280090E+02 -0.98679218768E+01 -0.61960734341E+02  0.64165228066E+02  0.00000000000E+00 0. -1.
<mgrwt>
<rscale>  1 0.12611191E+03</rscale>
<asrwt>0</asrwt>
<pdfrwt beam="1">  1       21 0.11844015E-02 0.12611191E+03</pdfrwt>
<pdfrwt beam="2">  1       21 0.10243499E+00 0.12611191E+03</pdfrwt>
<totfact> 0.22176219E+06</totfact>
</mgrwt>
</event>
<event>
 6    1  0.4187588E-002  0.1260000E+03  0.7546771E-02  0.1233515E+00
         21   -1    0    0  504  502  0.00000000000E+00  0.00000000000E+00  0.10295323198E+02  0.10295323198E+02  0.00000000000E+00 0.  1.
         21   -1    0    0  502  503 -0.00000000000E+00 -0.00000000000E+00 -0.53697127312E+03  0.53697127312E+03  0.00000000000E+00 0.  1.
         25    2    1    2    0    0  0.15811183427E+02 -0.30764669534E+00 -0.50471026012E+03  0.52020038682E+03  0.12500363041E+03 0.  0.
          5    1    3    3  501    0  0.24004737219E+01  0.55491528558E+02 -0.36438100747E+03  0.36859001698E+03  0.10000000000E+00 0.  1.
         -5    1    3    3    0  501  0.13410709705E+02 -0.55799175254E+02 -0.14032925265E+03  0.15161036984E+03  0.10000000000E+00 0.  1.
         21    1    1    2  504  503 -0.15811183427E+02  0.30764669534E+00 -0.21965689804E+02  0.27066209495E+02  0.00000000000E+00 0.  1.
<mgrwt>
<rscale>  1 0.12599998E+03</rscale>
<asrwt>0</asrwt>
<pdfrwt beam="1">  1       21 0.15838958E-02 0.12599998E+03</pdfrwt>
<pdfrwt beam="2">  1       21 0.82610968E-01 0.12599998E+03</pdfrwt>
<totfact> 0.22887266E+06</totfact>
</mgrwt>
</event>
<event>
 6    1  0.4187588E-002  0.1267568E+03  0.7546771E-02  0.1232349E+00
         21   -1    0    0  504  502  0.00000000000E+00  0.00000000000E+00  0.10279054910E+03  0.10279054910E+03  0.00000000000E+00 0. -1.
         21   -1    0    0  502  503 -0.00000000000E+00 -0.00000000000E+00 -0.54722697430E+02  0.54722697430E+02  0.00000000000E+00 0. -1.
         25    2    1    2    0    0  0.29909097284E+01 -0.20816023159E+02  0.50285514531E+02  0.13636684283E+03  0.12500012196E+03 0.  0.
          5    1    3    3  501    0 -0.48798457869E+02 -0.39863403943E+02  0.51181605783E+02  0.81178489977E+02  0.10000000000E+00 0.  1.
         -5    1    3    3    0  501  0.51789367597E+02  0.19047380784E+02 -0.89609125219E+00  0.55188352851E+02  0.10000000000E+00 0.  1.
         21    1    1    2  504  503 -0.29909097284E+01  0.20816023159E+02 -0.22176628569E+01  0.21146403707E+02  0.00000000000E+00 0.  1.
<mgrwt>
<rscale>  1 0.12675679E+03</rscale>
<asrwt>0</asrwt>
<pdfrwt beam="1">  1       21 0.15813931E-01 0.12675679E+03</pdfrwt>
<pdfrwt beam="2">  1       21 0.84188765E-02 0.12675679E+03</pdfrwt>
<totfact> 0.38590534E+06</totfact>
</mgrwt>
</event>
<event>
 6    1  0.4187588E-002  0.1515507E+03  0.7546771E-02  0.1198580E+00
         21   -1    0    0  503  502  0.00000000000E+00  0.00000000000E+00  0.24833803700E+02  0.24833803700E+02  0.00000000000E+00 0. -1.
         21   -1    0    0  504  503 -0.00000000000E+00 -0.00000000000E+00 -0.58009862824E+03  0.58009862824E+03  0.00000000000E+00 0. -1.
         25    2    1    2    0    0 -0.12198812346E+02  0.84811319471E+02 -0.30849956692E+03  0.34371439408E+03  0.12500332386E+03 0.  0.
          5    1    3    3  501    0 -0.11644466720E+02  0.79122348505E+02 -0.32055040247E+03  0.33037631598E+03  0.10000000000E+00 0.  1.
         -5    1    3    3    0  501 -0.55434562569E+00  0.56889709660E+01  0.12050835555E+02  0.13338078096E+02  0.10000000000E+00 0.  1.
         21    1    1    2  504  502  0.12198812346E+02 -0.84811319471E+02 -0.24676525762E+03  0.26121803786E+03  0.00000000000E+00 0. -1.
<mgrwt>
<rscale>  1 0.15155066E+03</rscale>
<asrwt>0</asrwt>
<pdfrwt beam="1">  1       21 0.38205853E-02 0.15155066E+03</pdfrwt>
<pdfrwt beam="2">  1       21 0.89245939E-01 0.15155066E+03</pdfrwt>
<totfact> 0.45713188E+05</totfact>
</mgrwt>
</event>
<event>
 6    1  0.4187588E-002  0.1271735E+03  0.7546771E-02  0.1231711E+00
         21   -1    0    0  504  502  0.00000000000E+00  0.00000000000E+00  0.27063662003E+03  0.27063662003E+03  0.00000000000E+00 0.  1.
         21   -1    0    0  502  503 -0.00000000000E+00 -0.00000000000E+00 -0.25421261256E+02  0.25421261256E+02  0.00000000000E+00 0.  1.
         25    2    1    2    0    0  0.22747340136E+02  0.63069566990E+01  0.14396024893E+03  0.19208761412E+03  0.12496351083E+03 0.  0.
          5    1    3    3  501    0  0.25809865396E+02  0.62204235302E+02  0.10156571026E+03  0.12186516952E+03  0.10000000000E+00 0.  1.
         -5    1    3    3    0  501 -0.30625252601E+01 -0.55897278603E+02  0.42394538675E+02  0.70222444600E+02  0.10000000000E+00 0.  1.
         21    1    1    2  504  503 -0.22747340136E+02 -0.63069566990E+01  0.10125510984E+03  0.10397026717E+03  0.00000000000E+00 0.  1.
<mgrwt>
<rscale>  1 0.12717350E+03</rscale>
<asrwt>0</asrwt>
<pdfrwt beam="1">  1       21 0.41636401E-01 0.12717350E+03</pdfrwt>
<pdfrwt beam="2">  1       21 0.39109635E-02 0.12717350E+03</pdfrwt>
<totfact> 0.22455996E+06</totfact>
</mgrwt>
</event>
<event>
 6    1  0.4187588E-002  0.1380552E+03  0.7546771E-02  0.1215970E+00
         21   -1    0    0  504  502  0.00000000000E+00  0.00000000000E+00  0.33228583927E+03  0.33228583927E+03  0.00000000000E+00 0.  1.
         21   -1    0    0  502  503 -0.00000000000E+00 -0.00000000000E+00 -0.29097411542E+02  0.29097411542E+02  0.00000000000E+00 0.  1.
         25    2    1    2    0    0  0.54952131153E+02  0.20352143564E+02  0.21383916375E+03  0.25453177708E+03  0.12500116448E+03 0.  0.
          5    1    3    3  501    0 -0.67180437283E+01 -0.14074477226E+02  0.17145258648E+03  0.17216045548E+03  0.10000000000E+00 0. -1.
         -5    1    3    3    0  501  0.61670174881E+02  0.34426620790E+02  0.42386577272E+02  0.82371321598E+02  0.10000000000E+00 0. -1.
         21    1    1    2  504  503 -0.54952131153E+02 -0.20352143564E+02  0.89349263974E+02  0.10685147373E+03  0.00000000000E+00 0.  1.
<mgrwt>
<rscale>  1 0.13805520E+03</rscale>
<asrwt>0</asrwt>
<pdfrwt beam="1">  1       21 0.51120896E-01 0.13805520E+03</pdfrwt>
<pdfrwt beam="2">  1       21 0.44765251E-02 0.13805520E+03</pdfrwt>
<totfact> 0.11812321E+06</totfact>
</mgrwt>
</event>
<event>
 6    1  0.4187588E-002  0.1359867E+03  0.7546771E-02  0.1218833E+00
         21   -1    0    0  504  502  0.00000000000E+00  0.00000000000E+00  0.19573296226E+03  0.19573296226E+03  0.00000000000E+00 0. -1.
         21   -1    0    0  502  503 -0.00000000000E+00 -0.00000000000E+00 -0.14922612984E+03  0.14922612984E+03  0.00000000000E+00 0.  1.
         25    2    1    2    0    0  0.12510734706E+02  0.52069579523E+02 -0.11293312582E+03  0.17676616753E+03  0.12499850991E+03 0.  0.
          5    1    3    3  501    0  0.10904715513E+02  0.93608477156E+02 -0.74175604501E+02  0.11993118910E+03  0.10000000000E+00 0. -1.
         -5    1    3    3    0  501  0.16060191931E+01 -0.41538897633E+02 -0.38757521318E+02  0.56834978428E+02  0.10000000000E+00 0. -1.
         21    1    1    2  504  503 -0.12510734706E+02 -0.52069579523E+02  0.15943995824E+03  0.16819292458E+03  0.00000000000E+00 0. -1.
<mgrwt>
<rscale>  1 0.13598672E+03</rscale>
<asrwt>0</asrwt>
<pdfrwt beam="1">  1       21 0.30112763E-01 0.13598672E+03</pdfrwt>
<pdfrwt beam="2">  1       21 0.22957866E-01 0.13598672E+03</pdfrwt>
<totfact> 0.19143059E+05</totfact>
</mgrwt>
</event>
<event>
 6    1  0.4187588E-002  0.1340584E+03  0.7546771E-02  0.1221555E+00
         21   -1    0    0  503  502  0.00000000000E+00  0.00000000000E+00  0.28090309185E+02  0.28090309185E+02  0.00000000000E+00 0. -1.
         21   -1    0    0  504  503 -0.00000000000E+00 -0.00000000000E+00 -0.13314115705E+04  0.13314115705E+04  0.00000000000E+00 0. -1.
         25    2    1    2    0    0 -0.21277260687E+01  0.48391787869E+02 -0.13041837677E+04  0.13110556593E+04  0.12500139789E+03 0.  0.
          5    1    3    3  501    0 -0.57805576942E+02  0.25675705862E+02 -0.92230407183E+03  0.92447040921E+03  0.10000000000E+00 0.  1.
         -5    1    3    3    0  501  0.55677850873E+02  0.22716082006E+02 -0.38187969589E+03  0.38658525010E+03  0.10000000000E+00 0.  1.
         21    1    1    2  504  502  0.21277260687E+01 -0.48391787869E+02  0.86250640521E+00  0.48446220375E+02  0.00000000000E+00 0. -1.
<mgrwt>
<rscale>  1 0.13405835E+03</rscale>
<asrwt>0</asrwt>
<pdfrwt beam="1">  1       21 0.43215860E-02 0.13405835E+03</pdfrwt>
<pdfrwt beam="2">  1       21 0.20483255E+00 0.13405835E+03</pdfrwt>
<totfact> 0.44940469E+04</totfact>
</mgrwt>
</event>
<event>
 6    1  0.4187588E-002  0.1272359E+03  0.7546771E-02  0.1231616E+00
         21   -1    0    0  504  502  0.00000000000E+00  0.00000000000E+00  0.38526588115E+02  0.38526588115E+02  0.00000000000E+00 0.  1.
         21   -1    0    0  502  503 -0.00000000000E+00 -0.00000000000E+00 -0.19998601574E+03  0.19998601574E+03  0.00000000000E+00 0.  1.
         25    2    1    2    0    0 -0.10340257213E+02 -0.21490510697E+02 -0.17072901935E+03  0.21292572635E+03  0.12498081423E+03 0.  0.
          5    1    3    3  501    0  0.49217821398E+02 -0.32131960155E+02 -0.12133411323E+03  0.13482148879E+03  0.10000000000E+00 0. -1.
         -5    1    3    3    0  501 -0.59558078611E+02  0.10641449458E+02 -0.49394906117E+02  0.78104237559E+02  0.10000000000E+00 0. -1.
         21    1    1    2  504  503  0.10340257213E+02  0.21490510697E+02  0.92695917284E+01  0.25586877497E+02  0.00000000000E+00 0.  1.
<mgrwt>
<rscale>  1 0.12723587E+03</rscale>
<asrwt>0</asrwt>
<pdfrwt beam="1">  1       21 0.59271674E-02 0.12723587E+03</pdfrwt>
<pdfrwt beam="2">  1       21 0.30767079E-01 0.12723587E+03</pdfrwt>
<totfact> 0.20302296E+06</totfact>
</mgrwt>
</event>
<event>
 6    1  0.4187588E-002  0.1569893E+03  0.7546771E-02  0.1192138E+00
         21   -1    0    0  503  502  0.00000000000E+00  0.00000000000E+00  0.25881883525E+03  0.25881883525E+03  0.00000000000E+00 0. -1.
         21   -1    0    0  504  503 -0.00000000000E+00 -0.00000000000E+00 -0.10131947922E+03  0.10131947922E+03  0.00000000000E+00 0.  1.
         25    2    1    2    0    0 -0.51688402187E+02  0.79677791136E+02 -0.20563111733E+02  0.15833027761E+03  0.12500157568E+03 0.  0.
          5    1    3    3  501    0 -0.55382480413E+02  0.10886911869E+03 -0.32783430824E+02  0.12646923530E+03  0.10000000000E+00 0. -1.
         -5    1    3    3    0  501  0.36940782258E+01 -0.29191327551E+02  0.12220319092E+02  0.31861042306E+02  0.10000000000E+00 0. -1.
         21    1    1    2  504  502  0.51688402187E+02 -0.79677791136E+02  0.17806246776E+03  0.20180803687E+03  0.00000000000E+00 0. -1.
<mgrwt>
<rscale>  1 0.15698928E+03</rscale>
<asrwt>0</asrwt>
<pdfrwt beam="1">  1       21 0.39818282E-01 0.15698928E+03</pdfrwt>
<pdfrwt beam="2">  1       21 0.15587612E-01 0.15698928E+03</pdfrwt>
<totfact> 0.22453450E+05</totfact>
</mgrwt>
</event>
<event>
 6    1  0.4187588E-002  0.1734831E+03  0.7546771E-02  0.1174263E+00
         21   -1    0    0  504  502  0.00000000000E+00  0.00000000000E+00  0.80795317516E+02  0.80795317516E+02  0.00000000000E+00 0. -1.
         21   -1    0    0  502  503 -0.00000000000E+00 -0.00000000000E+00 -0.50194006769E+03  0.50194006769E+03  0.00000000000E+00 0. -1.
         25    2    1    2    0    0  0.11907480310E+03  0.17170901593E+02 -0.42841693740E+03  0.46220931623E+03  0.12499092435E+03 0.  0.
          5    1    3    3  501    0  0.93145086790E+02  0.15754841232E+02 -0.42574942798E+03  0.43610412477E+03  0.10000000000E+00 0.  1.
         -5    1    3    3    0  501  0.25929716307E+02  0.14160603606E+01 -0.26675094126E+01  0.26105191460E+02  0.10000000000E+00 0.  1.
         21    1    1    2  504  503 -0.11907480310E+03 -0.17170901593E+02  0.72721872258E+01  0.12052606897E+03  0.00000000000E+00 0. -1.
<mgrwt>
<rscale>  1 0.17348308E+03</rscale>
<asrwt>0</asrwt>
<pdfrwt beam="1">  1       21 0.12430049E-01 0.17348308E+03</pdfrwt>
<pdfrwt beam="2">  1       21 0.77221547E-01 0.17348308E+03</pdfrwt>
<totfact> 0.82722405E+04</totfact>
</mgrwt>
</event>
<event>
 6    1  0.4187588E-002  0.1320830E+03  0.7546771E-02  0.1224397E+00
         21   -1    0    0  504  502  0.00000000000E+00  0.00000000000E+00  0.12326297825E+03  0.12326297825E+03  0.00000000000E+00 0.  1.
         21   -1    0    0  502  503 -0.00000000000E+00 -0.00000000000E+00 -0.70347144856E+02  0.70347144856E+02  0.00000000000E+00 0.  1.
         25    2    1    2    0    0  0.17443910090E+02  0.38916992640E+02  0.89928699149E+01  0.13238881116E+03  0.12500841290E+03 0.  0.
          5    1    3    3  501    0  0.70524707172E+02  0.15041806632E+02 -0.57733563905E+01  0.72341771560E+02  0.10000000000E+00 0.  1.
         -5    1    3    3    0  501 -0.53080797082E+02  0.23875186008E+02  0.14766226305E+02  0.60047039603E+02  0.10000000000E+00 0.  1.
         21    1    1    2  504  503 -0.17443910090E+02 -0.38916992640E+02  0.43922963483E+02  0.61221311947E+02  0.00000000000E+00 0.  1.
<mgrwt>
<rscale>  1 0.13208303E+03</rscale>
<asrwt>0</asrwt>
<pdfrwt beam="1">  1       21 0.18963535E-01 0.13208303E+03</pdfrwt>
<pdfrwt beam="2">  1       21 0.10822638E-01 0.13208303E+03</pdfrwt>
<totfact> 0.17903879E+06</totfact>
</mgrwt>
</event>
<event>
 6    1  0.4187588E-002  0.1269732E+03  0.7546771E-02  0.1232017E+00
         21   -1    0    0  503  502  0.00000000000E+00  0.00000000000E+00  0.45082996090E+02  0.45082996090E+02  0.00000000000E+00 0.  1.
         21   -1    0    0  504  503 -0.00000000000E+00 -0.00000000000E+00 -0.54715885910E+03  0.54715885910E+03  0.00000000000E+00 0. -1.
         25    2    1    2    0    0 -0.19751627006E+02  0.10362228169E+02 -0.53644627636E+03  0.55126835331E+03  0.12499874957E+03 0.  0.
          5    1    3    3  501    0 -0.39826390647E+02  0.60222049032E+02 -0.34144319703E+03  0.34899327125E+03  0.10000000000E+00 0. -1.
         -5    1    3    3    0  501  0.20074763642E+02 -0.49859820863E+02 -0.19500307934E+03  0.20227508206E+03  0.10000000000E+00 0. -1.
         21    1    1    2  504  502  0.19751627006E+02 -0.10362228169E+02  0.34370413355E+02  0.40973501879E+02  0.00000000000E+00 0.  1.
<mgrwt>
<rscale>  1 0.12697319E+03</rscale>
<asrwt>0</asrwt>
<pdfrwt beam="1">  1       21 0.69358451E-02 0.12697319E+03</pdfrwt>
<pdfrwt beam="2">  1       21 0.84178292E-01 0.12697319E+03</pdfrwt>
<totfact> 0.19216320E+05</totfact>
</mgrwt>
</event>
<event>
 6    1  0.4187588E-002  0.1284639E+03  0.7546771E-02  0.1229753E+00
         21   -1    0    0  503  502  0.00000000000E+00  0.00000000000E+00  0.82087758824E+03  0.82087758824E+03  0.00000000000E+00 0. -1.
         21   -1    0    0  504  503 -0.00000000000E+00 -0.00000000000E+00 -0.55456214930E+02  0.55456214930E+02  0.00000000000E+00 0. -1.
         25    2    1    2    0    0  0.22121998855E+02 -0.19705981565E+02  0.19631004818E+02  0.12995522478E+03  0.12500110222E+03 0.  0.
          5    1    3    3  501    0 -0.18258489593E+02 -0.61986979453E+02 -0.83160852396E+01  0.65153091543E+02  0.10000000000E+00 0.  1.
         -5    1    3    3    0  501  0.40380488448E+02  0.42280997887E+02  0.27947090058E+02  0.64802133239E+02  0.10000000000E+00 0.  1.
         21    1    1    2  504  502 -0.22121998855E+02  0.19705981565E+02  0.74579036849E+03  0.74637857839E+03  0.00000000000E+00 0. -1.
<mgrwt>
<rscale>  1 0.12846394E+03</rscale>
<asrwt>0</asrwt>
<pdfrwt beam="1">  1       21 0.12628885E+00 0.12846394E+03</pdfrwt>
<pdfrwt beam="2">  1       21 0.85317260E-02 0.12846394E+03</pdfrwt>
<totfact> 0.51694072E+04</totfact>
</mgrwt>
</event>
<event>
 6    1  0.4187588E-002  0.1284381E+03  0.7546771E-02  0.1229792E+00
         21   -1    0    0  503  502  0.00000000000E+00  0.00000000000E+00  0.53184134921E+02  0.53184134921E+02  0.00000000000E+00 0. -1.
         21   -1    0    0  504  503 -0.00000000000E+00 -0.00000000000E+00 -0.77456714658E+03  0.77456714658E+03  0.00000000000E+00 0.  1.
         25    2    1    2    0    0 -0.13949647772E+02 -0.26014684918E+02 -0.76465666348E+03  0.77536840791E+03  0.12499999391E+03 0.  0.
          5    1    3    3  501    0 -0.47436214329E+02 -0.62545158848E+02 -0.49736288308E+03  0.50351955155E+03  0.10000000000E+00 0.  1.
         -5    1    3    3    0  501  0.33486566557E+02  0.36530473930E+02 -0.26729378040E+03  0.27184885636E+03  0.10000000000E+00 0.  1.
         21    1    1    2  504  502  0.13949647772E+02  0.26014684918E+02  0.43273651818E+02  0.52382873594E+02  0.00000000000E+00 0. -1.
<mgrwt>
<rscale>  1 0.12843814E+03</rscale>
<asrwt>0</asrwt>
<pdfrwt beam="1">  1       21 0.81821747E-02 0.12843814E+03</pdfrwt>
<pdfrwt beam="2">  1       21 0.11916417E+00 0.12843814E+03</pdfrwt>
<totfact> 0.64093396E+04</totfact>
</mgrwt>
</event>
<event>
 6    1  0.4187588E-002  0.1259799E+03  0.7546771E-02  0.1233546E+00
         21   -1    0    0  504  502  0.00000000000E+00  0.00000000000E+00  0.37195861820E+03  0.37195861820E+03  0.00000000000E+00 0. -1.
         21   -1    0    0  502  503 -0.00000000000E+00 -0.00000000000E+00 -0.17818665444E+02  0.17818665444E+02  0.00000000000E+00 0. -1.
         25    2    1    2    0    0 -0.72311701139E+01  0.13876518208E+02  0.21072802150E+03  0.24551422667E+03  0.12500435543E+03 0.  0.
          5    1    3    3  501    0 -0.64635042146E+02  0.17518663858E+02  0.94379938742E+02  0.11572456564E+03  0.10000000000E+00 0.  1.
         -5    1    3    3    0  501  0.57403872032E+02 -0.36421456498E+01  0.11634808275E+03  0.12978966103E+03  0.10000000000E+00 0.  1.
         21    1    1    2  504  503  0.72311701139E+01 -0.13876518208E+02  0.14341193126E+03  0.14426305697E+03  0.00000000000E+00 0. -1.
<mgrwt>
<rscale>  1 0.12597990E+03</rscale>
<asrwt>0</asrwt>
<pdfrwt beam="1">  1       21 0.57224397E-01 0.12597990E+03</pdfrwt>
<pdfrwt beam="2">  1       21 0.27413334E-02 0.12597990E+03</pdfrwt>
<totfact> 0.20955604E+06</totfact>
</mgrwt>
</event>
<event>
 6    1  0.4187588E-002  0.1261125E+03  0.7546771E-02  0.1233341E+00
         21   -1    0    0  504  502  0.00000000000E+00  0.00000000000E+00  0.50063637077E+02  0.50063637077E+02  0.00000000000E+00 0. -1.
         21   -1    0    0  502  503 -0.00000000000E+00 -0.00000000000E+00 -0.11500842961E+03  0.11500842961E+03  0.00000000000E+00 0. -1.
         25    2    1    2    0    0  0.89622780918E+01 -0.14057261885E+02 -0.35131963647E+02  0.13091458132E+03  0.12500577464E+03 0.  0.
          5    1    3    3  501    0 -0.11987174001E+01 -0.69611793740E+02 -0.20371980621E+02  0.72541480172E+02  0.10000000000E+00 0.  1.
         -5    1    3    3    0  501  0.10160995492E+02  0.55554531855E+02 -0.14759983027E+02  0.58373101151E+02  0.10000000000E+00 0.  1.
         21    1    1    2  504  503 -0.89622780918E+01  0.14057261885E+02 -0.29812828889E+02  0.34157485368E+02  0.00000000000E+00 0. -1.
<mgrwt>
<rscale>  1 0.12611254E+03</rscale>
<asrwt>0</asrwt>
<pdfrwt beam="1">  1       21 0.77020981E-02 0.12611254E+03</pdfrwt>
<pdfrwt beam="2">  1       21 0.17693604E-01 0.12611254E+03</pdfrwt>
<totfact> 0.36671207E+06</totfact>
</mgrwt>
</event>
<event>
 6    1  0.4187588E-002  0.1314719E+03  0.7546771E-02  0.1225288E+00
         21   -1    0    0  503  502  0.00000000000E+00  0.00000000000E+00  0.33123137306E+02  0.33123137306E+02  0.00000000000E+00 0.  1.
         21   -1    0    0  504  503 -0.00000000000E+00 -0.00000000000E+00 -0.22528540402E+03  0.22528540402E+03  0.00000000000E+00 0.  1.
         25    2    1    2    0    0 -0.27281769967E+02 -0.30225859432E+02 -0.13739455794E+03  0.19016339882E+03  0.12500782435E+03 0.  0.
          5    1    3    3  501    0 -0.72101841974E+02 -0.27899623381E+02 -0.11845123807E+03  0.14144882609E+03  0.10000000000E+00 0.  1.
         -5    1    3    3    0  501  0.44820072007E+02 -0.23262360512E+01 -0.18943319863E+02  0.48714572730E+02  0.10000000000E+00 0.  1.
         21    1    1    2  504  502  0.27281769967E+02  0.30225859432E+02 -0.54767708781E+02  0.68245142509E+02  0.00000000000E+00 0. -1.
<mgrwt>
<rscale>  1 0.13147187E+03</rscale>
<asrwt>0</asrwt>
<pdfrwt beam="1">  1       21 0.50958672E-02 0.13147187E+03</pdfrwt>
<pdfrwt beam="2">  1       21 0.34659294E-01 0.13147187E+03</pdfrwt>
<totfact> 0.20792758E+06</totfact>
</mgrwt>
</event>
<event>
 6    1  0.4187588E-002  0.1285192E+03  0.7546771E-02  0.1229670E+00
         21   -1    0    0  504  502  0.00000000000E+00  0.00000000000E+00  0.13426520579E+03  0.13426520579E+03  0.00000000000E+00 0. -1.
         21   -1    0    0  502  503 -0.00000000000E+00 -0.00000000000E+00 -0.50392773710E+03  0.50392773710E+03  0.00000000000E+00 0.  1.
         25    2    1    2    0    0 -0.29774699555E+02 -0.31061892999E+01 -0.49392696846E+03  0.51037341587E+03  0.12498396823E+03 0.  0.
          5    1    3    3  501    0  0.33776605799E+02 -0.41802927546E+02 -0.18827483468E+03  0.19579521758E+03  0.10000000000E+00 0.  1.
         -5    1    3    3    0  501 -0.63551305354E+02  0.38696738246E+02 -0.30565213377E+03  0.31457819829E+03  0.10000000000E+00 0.  1.
         21    1    1    2  504  503  0.29774699555E+02  0.31061892999E+01  0.12426443715E+03  0.12781952701E+03  0.00000000000E+00 0. -1.
<mgrwt>
<rscale>  1 0.12851916E+03</rscale>
<asrwt>0</asrwt>
<pdfrwt beam="1">  1       21 0.20656185E-01 0.12851916E+03</pdfrwt>
<pdfrwt beam="2">  1       21 0.77527345E-01 0.12851916E+03</pdfrwt>
<totfact> 0.33290766E+04</totfact>
</mgrwt>
</event>
<event>
 6    1  0.4187588E-002  0.1261178E+03  0.7546771E-02  0.1233333E+00
         21   -1    0    0  504  502  0.00000000000E+00  0.00000000000E+00  0.65712920117E+02  0.65712920117E+02  0.00000000000E+00 0. -1.
         21   -1    0    0  502  503 -0.00000000000E+00 -0.00000000000E+00 -0.77935310736E+02  0.77935310736E+02  0.00000000000E+00 0. -1.
         25    2    1    2    0    0  0.13768059494E+02  0.95539452508E+01 -0.13516822706E+02  0.12684011119E+03  0.12499948792E+03 0.  0.
          5    1    3    3  501    0 -0.21608618342E+01 -0.45657455825E+02 -0.42559229256E+02  0.62454548202E+02  0.10000000000E+00 0.  1.
         -5    1    3    3    0  501  0.15928921329E+02  0.55211401076E+02  0.29042406550E+02  0.64385562991E+02  0.10000000000E+00 0.  1.
         21    1    1    2  504  503 -0.13768059494E+02 -0.95539452508E+01  0.12944320867E+01  0.16808119661E+02  0.00000000000E+00 0. -1.
<mgrwt>
<rscale>  1 0.12611784E+03</rscale>
<asrwt>0</asrwt>
<pdfrwt beam="1">  1       21 0.10109680E-01 0.12611784E+03</pdfrwt>
<pdfrwt beam="2">  1       21 0.11990048E-01 0.12611784E+03</pdfrwt>
<totfact> 0.46057591E+06</totfact>
</mgrwt>
</event>
<event>
 6    1  0.4187588E-002  0.1280317E+03  0.7546771E-02  0.1230406E+00
         21   -1    0    0  504  502  0.00000000000E+00  0.00000000000E+00  0.49817801684E+03  0.49817801684E+03  0.00000000000E+00 0. -1.
         21   -1    0    0  502  503 -0.00000000000E+00 -0.00000000000E+00 -0.43484331194E+03  0.43484331194E+03  0.00000000000E+00 0.  1.
         25    2    1    2    0    0  0.18236106644E+02  0.20872251577E+02 -0.42501768342E+03  0.44388304400E+03  0.12499567618E+03 0.  0.
          5    1    3    3  501    0  0.53409358142E+02  0.44689670816E+02 -0.35671068588E+03  0.36344497470E+03  0.10000000000E+00 0.  1.
         -5    1    3    3    0  501 -0.35173251498E+02 -0.23817419239E+02 -0.68306997536E+02  0.80438069299E+02  0.10000000000E+00 0.  1.
         21    1    1    2  504  503 -0.18236106644E+02 -0.20872251577E+02  0.48835238831E+03  0.48913828478E+03  0.00000000000E+00 0. -1.
<mgrwt>
<rscale>  1 0.12803174E+03</rscale>
<asrwt>0</asrwt>
<pdfrwt beam="1">  1       21 0.76642772E-01 0.12803174E+03</pdfrwt>
<pdfrwt beam="2">  1       21 0.66898971E-01 0.12803174E+03</pdfrwt>
<totfact> 0.32995676E+03</totfact>
</mgrwt>
</event>
<event>
 6    1  0.4187588E-002  0.1849944E+03  0.7546771E-02  0.1163055E+00
         21   -1    0    0  503  502  0.00000000000E+00  0.00000000000E+00  0.32340832937E+03  0.32340832937E+03  0.00000000000E+00 0.  1.
         21   -1    0    0  504  503 -0.00000000000E+00 -0.00000000000E+00 -0.66014595691E+03  0.66014595691E+03  0.00000000000E+00 0. -1.
         25    2    1    2    0    0 -0.10113071114E+03 -0.91504099776E+02 -0.63189115390E+03  0.65841427776E+03  0.12499003872E+03 0.  0.
          5    1    3    3  501    0 -0.13352274065E+01 -0.13246101283E+02 -0.33880610242E+03  0.33906758481E+03  0.10000000000E+00 0.  1.
         -5    1    3    3    0  501 -0.99795483733E+02 -0.78257998493E+02 -0.29308505148E+03  0.31934669295E+03  0.10000000000E+00 0.  1.
         21    1    1    2  504  502  0.10113071114E+03  0.91504099776E+02  0.29515352636E+03  0.32514000851E+03  0.00000000000E+00 0.  1.
<mgrwt>
<rscale>  1 0.18499441E+03</rscale>
<asrwt>0</asrwt>
<pdfrwt beam="1">  1       21 0.49755128E-01 0.18499441E+03</pdfrwt>
<pdfrwt beam="2">  1       21 0.10156092E+00 0.18499441E+03</pdfrwt>
<totfact> 0.30662412E+03</totfact>
</mgrwt>
</event>
<event>
 6    1  0.4187588E-002  0.1268162E+03  0.7546771E-02  0.1232258E+00
         21   -1    0    0  503  502  0.00000000000E+00  0.00000000000E+00  0.23575588859E+03  0.23575588859E+03  0.00000000000E+00 0. -1.
         21   -1    0    0  504  503 -0.00000000000E+00 -0.00000000000E+00 -0.31914039088E+02  0.31914039088E+02  0.00000000000E+00 0. -1.
         25    2    1    2    0    0 -0.19067953316E+02  0.90797520978E+01  0.99442214051E+02  0.16115555013E+03  0.12504530643E+03 0.  0.
          5    1    3    3  501    0  0.22625275842E+02  0.57695512599E+02  0.39892724116E+02  0.73702881344E+02  0.10000000000E+00 0.  1.
         -5    1    3    3    0  501 -0.41693229158E+02 -0.48615760501E+02  0.59549489935E+02  0.87452668789E+02  0.10000000000E+00 0.  1.
         21    1    1    2  504  502  0.19067953316E+02 -0.90797520978E+01  0.10439963545E+03  0.10651437754E+03  0.00000000000E+00 0. -1.
<mgrwt>
<rscale>  1 0.12681623E+03</rscale>
<asrwt>0</asrwt>
<pdfrwt beam="1">  1       21 0.36270136E-01 0.12681623E+03</pdfrwt>
<pdfrwt beam="2">  1       21 0.49098523E-02 0.12681623E+03</pdfrwt>
<totfact> 0.20220764E+06</totfact>
</mgrwt>
</event>
<event>
 6    1  0.4187588E-002  0.1291159E+03  0.7546771E-02  0.1228774E+00
         21   -1    0    0  503  502  0.00000000000E+00  0.00000000000E+00  0.57488558334E+02  0.57488558334E+02  0.00000000000E+00 0.  1.
         21   -1    0    0  504  503 -0.00000000000E+00 -0.00000000000E+00 -0.11502370341E+03  0.11502370341E+03  0.00000000000E+00 0.  1.
         25    2    1    2    0    0 -0.18267577026E+02  0.26583376278E+02 -0.54390567224E+02  0.14010441339E+03  0.12502212838E+03 0.  0.
          5    1    3    3  501    0 -0.21181520779E+02  0.66701608254E+01  0.38832384186E+02  0.44733789573E+02  0.10000000000E+00 0.  1.
         -5    1    3    3    0  501  0.29139437537E+01  0.19913215453E+02 -0.93222951411E+02  0.95370623819E+02  0.10000000000E+00 0.  1.
         21    1    1    2  504  502  0.18267577026E+02 -0.26583376278E+02 -0.31445778480E+01  0.32407848349E+02  0.00000000000E+00 0.  1.
<mgrwt>
<rscale>  1 0.12911589E+03</rscale>
<asrwt>0</asrwt>
<pdfrwt beam="1">  1       21 0.88443937E-02 0.12911589E+03</pdfrwt>
<pdfrwt beam="2">  1       21 0.17695954E-01 0.12911589E+03</pdfrwt>
<totfact> 0.28901936E+06</totfact>
</mgrwt>
</event>
<event>
 6    1  0.4187588E-002  0.1273742E+03  0.7546771E-02  0.1231405E+00
         21   -1    0    0  503  502  0.00000000000E+00  0.00000000000E+00  0.32158525706E+03  0.32158525706E+03  0.00000000000E+00 0.  1.
         21   -1    0    0  504  503 -0.00000000000E+00 -0.00000000000E+00 -0.96781685249E+02  0.96781685249E+02  0.00000000000E+00 0.  1.
         25    2    1    2    0    0 -0.78835263181E+01  0.23158972405E+02 -0.54103851144E+02  0.13838865999E+03  0.12500282603E+03 0.  0.
          5    1    3    3  501    0 -0.17977313808E+01 -0.43952403776E+02  0.10295291987E+02  0.45177966675E+02  0.10000000000E+00 0. -1.
         -5    1    3    3    0  501 -0.60857949373E+01  0.67111376180E+02 -0.64399143131E+02  0.93210693318E+02  0.10000000000E+00 0. -1.
         21    1    1    2  504  502  0.78835263181E+01 -0.23158972405E+02  0.27890742295E+03  0.27997828231E+03  0.00000000000E+00 0.  1.
<mgrwt>
<rscale>  1 0.12737423E+03</rscale>
<asrwt>0</asrwt>
<pdfrwt beam="1">  1       21 0.49474654E-01 0.12737423E+03</pdfrwt>
<pdfrwt beam="2">  1       21 0.14889490E-01 0.12737423E+03</pdfrwt>
<totfact> 0.15810391E+05</totfact>
</mgrwt>
</event>
<event>
 6    1  0.4187588E-002  0.1290791E+03  0.7546771E-02  0.1228829E+00
         21   -1    0    0  503  502  0.00000000000E+00  0.00000000000E+00  0.42424688159E+03  0.42424688159E+03  0.00000000000E+00 0. -1.
         21   -1    0    0  504  503 -0.00000000000E+00 -0.00000000000E+00 -0.16682879745E+03  0.16682879745E+03  0.00000000000E+00 0.  1.
         25    2    1    2    0    0 -0.25177082062E+02 -0.20557656883E+02 -0.14109986466E+03  0.19123438774E+03  0.12491964030E+03 0.  0.
          5    1    3    3  501    0  0.34574720821E+02 -0.43070858305E+02 -0.29392300306E+02  0.62565385576E+02  0.10000000000E+00 0. -1.
         -5    1    3    3    0  501 -0.59751802883E+02  0.22513201422E+02 -0.11170756435E+03  0.12866900217E+03  0.10000000000E+00 0. -1.
         21    1    1    2  504  502  0.25177082062E+02  0.20557656883E+02  0.39851794879E+03  0.39984129130E+03  0.00000000000E+00 0. -1.
<mgrwt>
<rscale>  1 0.12907912E+03</rscale>
<asrwt>0</asrwt>
<pdfrwt beam="1">  1       21 0.65268751E-01 0.12907912E+03</pdfrwt>
<pdfrwt beam="2">  1       21 0.25665969E-01 0.12907912E+03</pdfrwt>
<totfact> 0.32275304E+04</totfact>
</mgrwt>
</event>
<event>
 6    1  0.4187588E-002  0.1287130E+03  0.7546771E-02  0.1229378E+00
         21   -1    0    0  504  502  0.00000000000E+00  0.00000000000E+00  0.16402109003E+03  0.16402109003E+03  0.00000000000E+00 0.  1.
         21   -1    0    0  502  503 -0.00000000000E+00 -0.00000000000E+00 -0.57715920442E+02  0.57715920442E+02  0.00000000000E+00 0.  1.
         25    2    1    2    0    0  0.30149142418E+02  0.56516879939E+01  0.20145651336E+02  0.13028005365E+03  0.12500453090E+03 0.  0.
          5    1    3    3  501    0  0.61270950018E+02 -0.36103315477E+02  0.30161321957E+02  0.77248262419E+02  0.10000000000E+00 0.  1.
         -5    1    3    3    0  501 -0.31121807601E+02  0.41755003471E+02 -0.10015670621E+02  0.53031791231E+02  0.10000000000E+00 0.  1.
         21    1    1    2  504  503 -0.30149142418E+02 -0.56516879939E+01  0.86159518248E+02  0.91456956818E+02  0.00000000000E+00 0.  1.
<mgrwt>
<rscale>  1 0.12871303E+03</rscale>
<asrwt>0</asrwt>
<pdfrwt beam="1">  1       21 0.25234014E-01 0.12871303E+03</pdfrwt>
<pdfrwt beam="2">  1       21 0.88793724E-02 0.12871303E+03</pdfrwt>
<totfact> 0.14840111E+06</totfact>
</mgrwt>
</event>
<event>
 6    1  0.4187588E-002  0.2164712E+03  0.7546771E-02  0.1136542E+00
         21   -1    0    0  504  502  0.00000000000E+00  0.00000000000E+00  0.86568059182E+02  0.86568059182E+02  0.00000000000E+00 0.  1.
         21   -1    0    0  502  503 -0.00000000000E+00 -0.00000000000E+00 -0.20127988846E+04  0.20127988846E+04  0.00000000000E+00 0. -1.
         25    2    1    2    0    0 -0.15034669780E+03  0.92895109049E+02 -0.19096282325E+04  0.19218584175E+04  0.12500463835E+03 0.  0.
          5    1    3    3  501    0 -0.15122026434E+03  0.30958584437E+02 -0.13275098499E+04  0.13364536707E+04  0.10000000000E+00 0.  1.
         -5    1    3    3    0  501  0.87356654426E+00  0.61936524612E+02 -0.58211838255E+03  0.58540474674E+03  0.10000000000E+00 0.  1.
         21    1    1    2  504  503  0.15034669780E+03 -0.92895109049E+02 -0.16602592923E+02  0.17750852632E+03  0.00000000000E+00 0.  1.
<mgrwt>
<rscale>  1 0.21647122E+03</rscale>
<asrwt>0</asrwt>
<pdfrwt beam="1">  1       21 0.13318164E-01 0.21647122E+03</pdfrwt>
<pdfrwt beam="2">  1       21 0.30966134E+00 0.21647122E+03</pdfrwt>
<totfact> 0.14180032E+03</totfact>
</mgrwt>
</event>
<event>
 6    1  0.4187588E-002  0.1502728E+03  0.7546771E-02  0.1200138E+00
         21   -1    0    0  503  502  0.00000000000E+00  0.00000000000E+00  0.21408557692E+03  0.21408557692E+03  0.00000000000E+00 0.  1.
         21   -1    0    0  504  503 -0.00000000000E+00 -0.00000000000E+00 -0.19742658583E+03  0.19742658583E+03  0.00000000000E+00 0. -1.
         25    2    1    2    0    0 -0.45411803135E+02 -0.69964808168E+02 -0.15794351754E+03  0.21800934039E+03  0.12499844606E+03 0.  0.
          5    1    3    3  501    0  0.12294406712E+02  0.31350205362E+02 -0.35788286925E+02  0.49140607380E+02  0.10000000000E+00 0.  1.
         -5    1    3    3    0  501 -0.57706209848E+02 -0.10131501353E+03 -0.12215523061E+03  0.16886873301E+03  0.10000000000E+00 0.  1.
         21    1    1    2  504  502  0.45411803135E+02  0.69964808168E+02  0.17460250863E+03  0.19350282237E+03  0.00000000000E+00 0.  1.
<mgrwt>
<rscale>  1 0.15027281E+03</rscale>
<asrwt>0</asrwt>
<pdfrwt beam="1">  1       21 0.32936242E-01 0.15027281E+03</pdfrwt>
<pdfrwt beam="2">  1       21 0.30373321E-01 0.15027281E+03</pdfrwt>
<totfact> 0.93866466E+04</totfact>
</mgrwt>
</event>
<event>
 6    1  0.4187588E-002  0.1565722E+03  0.7546771E-02  0.1192622E+00
         21   -1    0    0  503  502  0.00000000000E+00  0.00000000000E+00  0.60165187296E+03  0.60165187296E+03  0.00000000000E+00 0.  1.
         21   -1    0    0  504  503 -0.00000000000E+00 -0.00000000000E+00 -0.30282913361E+02  0.30282913361E+02  0.00000000000E+00 0. -1.
         25    2    1    2    0    0  0.44103953492E+02 -0.83338506971E+02  0.23334609547E+03  0.28100755436E+03  0.12499751949E+03 0.  0.
          5    1    3    3  501    0  0.85858754132E+01 -0.10025941834E+03  0.99554658494E+02  0.14155143323E+03  0.10000000000E+00 0. -1.
         -5    1    3    3    0  501  0.35518078079E+02  0.16920911366E+02  0.13379143698E+03  0.13945612113E+03  0.10000000000E+00 0. -1.
         21    1    1    2  504  502 -0.44103953492E+02  0.83338506971E+02  0.33802286413E+03  0.35092723196E+03  0.00000000000E+00 0. -1.
<mgrwt>
<rscale>  1 0.15657217E+03</rscale>
<asrwt>0</asrwt>
<pdfrwt beam="1">  1       21 0.92561817E-01 0.15657217E+03</pdfrwt>
<pdfrwt beam="2">  1       21 0.46589102E-02 0.15657217E+03</pdfrwt>
<totfact> 0.30133748E+05</totfact>
</mgrwt>
</event>
<event>
 6    1  0.4187588E-002  0.1325830E+03  0.7546771E-02  0.1223673E+00
         21   -1    0    0  503  502  0.00000000000E+00  0.00000000000E+00  0.31635160125E+03  0.31635160125E+03  0.00000000000E+00 0. -1.
         21   -1    0    0  504  503 -0.00000000000E+00 -0.00000000000E+00 -0.12928500967E+03  0.12928500967E+03  0.00000000000E+00 0.  1.
         25    2    1    2    0    0 -0.43578915466E+02 -0.73784702901E+01 -0.93099541369E+02  0.16200546709E+03  0.12499873226E+03 0.  0.
          5    1    3    3  501    0  0.39173018970E+02  0.15261415305E+02 -0.52020401544E+02  0.66884739583E+02  0.10000000000E+00 0.  1.
         -5    1    3    3    0  501 -0.82751934436E+02 -0.22639885595E+02 -0.41079139824E+02  0.95120727506E+02  0.10000000000E+00 0.  1.
         21    1    1    2  504  502  0.43578915466E+02  0.73784702901E+01  0.28016613295E+03  0.28363114383E+03  0.00000000000E+00 0. -1.
<mgrwt>
<rscale>  1 0.13258298E+03</rscale>
<asrwt>0</asrwt>
<pdfrwt beam="1">  1       21 0.48669477E-01 0.13258298E+03</pdfrwt>
<pdfrwt beam="2">  1       21 0.19890002E-01 0.13258298E+03</pdfrwt>
<totfact> 0.96247562E+04</totfact>
</mgrwt>
</event>
<event>
 6    1  0.4187588E-002  0.1802630E+03  0.7546771E-02  0.1167549E+00
         21   -1    0    0  504  502  0.00000000000E+00  0.00000000000E+00  0.19223699997E+03  0.19223699997E+03  0.00000000000E+00 0.  1.
         21   -1    0    0  502  503 -0.00000000000E+00 -0.00000000000E+00 -0.15435866745E+03  0.15435866745E+03  0.00000000000E+00 0.  1.
         25    2    1    2    0    0 -0.11965221853E+03  0.50534858709E+02 -0.53210848855E+02  0.18795246930E+03  0.12499724372E+03 0.  0.
          5    1    3    3  501    0 -0.63328778989E+02 -0.22109964193E+02  0.20485370230E+02  0.70135904916E+02  0.10000000000E+00 0.  1.
         -5    1    3    3    0  501 -0.56323439545E+02  0.72644822902E+02 -0.73696219085E+02  0.11781656439E+03  0.10000000000E+00 0.  1.
         21    1    1    2  504  503  0.11965221853E+03 -0.50534858709E+02  0.91089181381E+02  0.15864319812E+03  0.00000000000E+00 0.  1.
<mgrwt>
<rscale>  1 0.18026296E+03</rscale>
<asrwt>0</asrwt>
<pdfrwt beam="1">  1       21 0.29574923E-01 0.18026296E+03</pdfrwt>
<pdfrwt beam="2">  1       21 0.23747487E-01 0.18026296E+03</pdfrwt>
<totfact> 0.18368486E+05</totfact>
</mgrwt>
</event>
<event>
 6    1  0.4187588E-002  0.1304417E+03  0.7546771E-02  0.1226802E+00
         21   -1    0    0  504  502  0.00000000000E+00  0.00000000000E+00  0.42050625798E+02  0.42050625798E+02  0.00000000000E+00 0.  1.
         21   -1    0    0  502  503 -0.00000000000E+00 -0.00000000000E+00 -0.16724768099E+03  0.16724768099E+03  0.00000000000E+00 0.  1.
         25    2    1    2    0    0  0.33093565220E+02  0.17168920230E+02 -0.97608164585E+02  0.16291832441E+03  0.12500028301E+03 0.  0.
          5    1    3    3  501    0  0.63574741427E+02  0.53385907779E+02 -0.59270051380E+02  0.10200368566E+03  0.10000000000E+00 0.  1.
         -5    1    3    3    0  501 -0.30481176207E+02 -0.36216987549E+02 -0.38338113205E+02  0.60914638752E+02  0.10000000000E+00 0.  1.
         21    1    1    2  504  503 -0.33093565220E+02 -0.17168920230E+02 -0.27588890611E+02  0.46379982384E+02  0.00000000000E+00 0.  1.
<mgrwt>
<rscale>  1 0.13044166E+03</rscale>
<asrwt>0</asrwt>
<pdfrwt beam="1">  1       21 0.64693270E-02 0.13044166E+03</pdfrwt>
<pdfrwt beam="2">  1       21 0.25730413E-01 0.13044166E+03</pdfrwt>
<totfact> 0.24658280E+06</totfact>
</mgrwt>
</event>
<event>
 6    1  0.4187588E-002  0.1277931E+03  0.7546771E-02  0.1230768E+00
         21   -1    0    0  504  502  0.00000000000E+00  0.00000000000E+00  0.10288585112E+03  0.10288585112E+03  0.00000000000E+00 0. -1.
         21   -1    0    0  502  503 -0.00000000000E+00 -0.00000000000E+00 -0.58597833587E+02  0.58597833587E+02  0.00000000000E+00 0. -1.
         25    2    1    2    0    0 -0.21722264518E+02 -0.15331739393E+02  0.43113661572E+02  0.13486981387E+03  0.12499663944E+03 0.  0.
          5    1    3    3  501    0  0.82143004303E+01  0.43932502986E+02 -0.14473769904E+02  0.46979139684E+02  0.10000000000E+00 0.  1.
         -5    1    3    3    0  501 -0.29936564948E+02 -0.59264242379E+02  0.57587431477E+02  0.87890674191E+02  0.10000000000E+00 0.  1.
         21    1    1    2  504  503  0.21722264518E+02  0.15331739393E+02  0.11743559570E+01  0.26613870829E+02  0.00000000000E+00 0. -1.
<mgrwt>
<rscale>  1 0.12779311E+03</rscale>
<asrwt>0</asrwt>
<pdfrwt beam="1">  1       21 0.15828592E-01 0.12779311E+03</pdfrwt>
<pdfrwt beam="2">  1       21 0.90150514E-02 0.12779311E+03</pdfrwt>
<totfact> 0.34231455E+06</totfact>
</mgrwt>
</event>
<event>
 6    1  0.4187588E-002  0.1269634E+03  0.7546771E-02  0.1232032E+00
         21   -1    0    0  504  502  0.00000000000E+00  0.00000000000E+00  0.34343922612E+03  0.34343922612E+03  0.00000000000E+00 0. -1.
         21   -1    0    0  502  503 -0.00000000000E+00 -0.00000000000E+00 -0.59698169762E+02  0.59698169762E+02  0.00000000000E+00 0. -1.
         25    2    1    2    0    0 -0.42991618956E+01  0.21713776707E+02  0.87582438085E+01  0.12726511005E+03  0.12501892061E+03 0.  0.
          5    1    3    3  501    0  0.34025780433E+02  0.44932530219E+02  0.42981671631E+02  0.70881027802E+02  0.10000000000E+00 0.  1.
         -5    1    3    3    0  501 -0.38324942329E+02 -0.23218753513E+02 -0.34223427823E+02  0.56384082249E+02  0.10000000000E+00 0.  1.
         21    1    1    2  504  503  0.42991618956E+01 -0.21713776707E+02  0.27498281255E+03  0.27587228583E+03  0.00000000000E+00 0. -1.
<mgrwt>
<rscale>  1 0.12696339E+03</rscale>
<asrwt>0</asrwt>
<pdfrwt beam="1">  1       21 0.52836803E-01 0.12696339E+03</pdfrwt>
<pdfrwt beam="2">  1       21 0.91843340E-02 0.12696339E+03</pdfrwt>
<totfact> 0.32433795E+05</totfact>
</mgrwt>
</event>
<event>
 6    1  0.4187588E-002  0.1482538E+03  0.7546771E-02  0.1202635E+00
         21   -1    0    0  503  502  0.00000000000E+00  0.00000000000E+00  0.92809955617E+02  0.92809955617E+02  0.00000000000E+00 0. -1.
         21   -1    0    0  504  503 -0.00000000000E+00 -0.00000000000E+00 -0.21887869338E+03  0.21887869338E+03  0.00000000000E+00 0.  1.
         25    2    1    2    0    0  0.27527936436E+02 -0.74831693568E+02 -0.16595746372E+03  0.22253327840E+03  0.12498644161E+03 0.  0.
          5    1    3    3  501    0 -0.10704759925E+02  0.32143232693E+02 -0.29023574336E+02  0.44611177526E+02  0.10000000000E+00 0. -1.
         -5    1    3    3    0  501  0.38232696361E+02 -0.10697492626E+03 -0.13693388938E+03  0.17792210088E+03  0.10000000000E+00 0. -1.
         21    1    1    2  504  502 -0.27527936436E+02  0.74831693568E+02  0.39888725957E+02  0.89155370591E+02  0.00000000000E+00 0. -1.
<mgrwt>
<rscale>  1 0.14825377E+03</rscale>
<asrwt>0</asrwt>
<pdfrwt beam="1">  1       21 0.14278455E-01 0.14825377E+03</pdfrwt>
<pdfrwt beam="2">  1       21 0.33673645E-01 0.14825377E+03</pdfrwt>
<totfact> 0.36758466E+05</totfact>
</mgrwt>
</event>
<event>
 6    1  0.4187588E-002  0.1295013E+03  0.7546771E-02  0.1228198E+00
         21   -1    0    0  504  502  0.00000000000E+00  0.00000000000E+00  0.74930620636E+01  0.74930620636E+01  0.00000000000E+00 0.  1.
         21   -1    0    0  502  503 -0.00000000000E+00 -0.00000000000E+00 -0.19394338225E+04  0.19394338225E+04  0.00000000000E+00 0. -1.
         25    2    1    2    0    0  0.16000018534E+02 -0.29964422773E+02 -0.18824557794E+04  0.18869049671E+04  0.12496690100E+03 0.  0.
          5    1    3    3  501    0  0.64625999835E+02 -0.70303117122E+01 -0.64156618329E+03  0.64485124073E+03  0.10000000000E+00 0. -1.
         -5    1    3    3    0  501 -0.48625981301E+02 -0.22934111061E+02 -0.12408895961E+04  0.12420537264E+04  0.10000000000E+00 0. -1.
         21    1    1    2  504  503 -0.16000018534E+02  0.29964422773E+02 -0.49484981064E+02  0.60021917464E+02  0.00000000000E+00 0.  1.
<mgrwt>
<rscale>  1 0.12950133E+03</rscale>
<asrwt>0</asrwt>
<pdfrwt beam="1">  1       21 0.11527771E-02 0.12950133E+03</pdfrwt>
<pdfrwt beam="2">  1       21 0.29837486E+00 0.12950133E+03</pdfrwt>
<totfact> 0.11053565E+05</totfact>
</mgrwt>
</event>
<event>
 6    1  0.4187588E-002  0.1263283E+03  0.7546771E-02  0.1233008E+00
         21   -1    0    0  504  502  0.00000000000E+00  0.00000000000E+00  0.18249074311E+03  0.18249074311E+03  0.00000000000E+00 0.  1.
         21   -1    0    0  502  503 -0.00000000000E+00 -0.00000000000E+00 -0.33114412561E+02  0.33114412561E+02  0.00000000000E+00 0.  1.
         25    2    1    2    0    0 -0.56968788696E+01  0.17532251859E+02  0.94636373208E+02  0.15784446650E+03  0.12497599044E+03 0.  0.
          5    1    3    3  501    0  0.19250753393E+02  0.66006666434E+02  0.35383785966E+02  0.77327186870E+02  0.10000000000E+00 0.  1.
         -5    1    3    3    0  501 -0.24947632263E+02 -0.48474414575E+02  0.59252587242E+02  0.80517279628E+02  0.10000000000E+00 0.  1.
         21    1    1    2  504  503  0.56968788696E+01 -0.17532251859E+02  0.54739957338E+02  0.57760689171E+02  0.00000000000E+00 0.  1.
<mgrwt>
<rscale>  1 0.12632827E+03</rscale>
<asrwt>0</asrwt>
<pdfrwt beam="1">  1       21 0.28075498E-01 0.12632827E+03</pdfrwt>
<pdfrwt beam="2">  1       21 0.50945251E-02 0.12632827E+03</pdfrwt>
<totfact> 0.31248202E+06</totfact>
</mgrwt>
</event>
<event>
 6    1  0.4187588E-002  0.1315363E+03  0.7546771E-02  0.1225194E+00
         21   -1    0    0  504  502  0.00000000000E+00  0.00000000000E+00  0.26836648531E+02  0.26836648531E+02  0.00000000000E+00 0.  1.
         21   -1    0    0  502  503 -0.00000000000E+00 -0.00000000000E+00 -0.35053831148E+03  0.35053831148E+03  0.00000000000E+00 0.  1.
         25    2    1    2    0    0  0.32753860456E+00 -0.40940211402E+02 -0.30541348138E+03  0.33253451202E+03  0.12500239552E+03 0.  0.
          5    1    3    3  501    0 -0.11270413551E+00 -0.59541343276E+02 -0.30804157436E+03  0.31374321634E+03  0.10000000000E+00 0. -1.
         -5    1    3    3    0  501  0.44024274006E+00  0.18601131875E+02  0.26280929839E+01  0.18791295682E+02  0.10000000000E+00 0. -1.
         21    1    1    2  504  503 -0.32753860456E+00  0.40940211402E+02 -0.18288181573E+02  0.44840447995E+02  0.00000000000E+00 0.  1.
<mgrwt>
<rscale>  1 0.13153633E+03</rscale>
<asrwt>0</asrwt>
<pdfrwt beam="1">  1       21 0.41287154E-02 0.13153633E+03</pdfrwt>
<pdfrwt beam="2">  1       21 0.53928968E-01 0.13153633E+03</pdfrwt>
<totfact> 0.12091372E+06</totfact>
</mgrwt>
</event>
<event>
 6    1  0.4187588E-002  0.1376657E+03  0.7546771E-02  0.1216505E+00
         21   -1    0    0  503  502  0.00000000000E+00  0.00000000000E+00  0.28642037145E+03  0.28642037145E+03  0.00000000000E+00 0.  1.
         21   -1    0    0  504  503 -0.00000000000E+00 -0.00000000000E+00 -0.34939990090E+02  0.34939990090E+02  0.00000000000E+00 0.  1.
         25    2    1    2    0    0 -0.40546033008E+02  0.41001525738E+02  0.14293893960E+03  0.19845246722E+03  0.12500694136E+03 0.  0.
          5    1    3    3  501    0 -0.49454489189E+02  0.12133679696E+02 -0.14448015312E+01  0.50941830899E+02  0.10000000000E+00 0.  1.
         -5    1    3    3    0  501  0.89084561807E+01  0.28867846042E+02  0.14438374113E+03  0.14751063632E+03  0.10000000000E+00 0.  1.
         21    1    1    2  504  502  0.40546033008E+02 -0.41001525738E+02  0.10854144176E+03  0.12290789432E+03  0.00000000000E+00 0.  1.
<mgrwt>
<rscale>  1 0.13766569E+03</rscale>
<asrwt>0</asrwt>
<pdfrwt beam="1">  1       21 0.44064671E-01 0.13766569E+03</pdfrwt>
<pdfrwt beam="2">  1       21 0.53753833E-02 0.13766569E+03</pdfrwt>
<totfact> 0.11778471E+06</totfact>
</mgrwt>
</event>
<event>
 6    1  0.4187588E-002  0.1313476E+03  0.7546771E-02  0.1225470E+00
         21   -1    0    0  503  502  0.00000000000E+00  0.00000000000E+00  0.26679784226E+03  0.26679784226E+03  0.00000000000E+00 0.  1.
         21   -1    0    0  504  503 -0.00000000000E+00 -0.00000000000E+00 -0.93745569572E+02  0.93745569572E+02  0.00000000000E+00 0.  1.
         25    2    1    2    0    0  0.40264160109E+02 -0.23765905400E+01 -0.44961571546E+02  0.13882988710E+03  0.12500137545E+03 0.  0.
          5    1    3    3  501    0  0.13286030041E+01 -0.27412741988E+02 -0.77520821889E+02  0.82235706574E+02  0.10000000000E+00 0. -1.
         -5    1    3    3    0  501  0.38935557105E+02  0.25036151448E+02  0.32559250343E+02  0.56594180525E+02  0.10000000000E+00 0. -1.
         21    1    1    2  504  502 -0.40264160109E+02  0.23765905400E+01  0.21801384424E+03  0.22171352474E+03  0.00000000000E+00 0.  1.
<mgrwt>
<rscale>  1 0.13134761E+03</rscale>
<asrwt>0</asrwt>
<pdfrwt beam="1">  1       21 0.41045822E-01 0.13134761E+03</pdfrwt>
<pdfrwt beam="2">  1       21 0.14422395E-01 0.13134761E+03</pdfrwt>
<totfact> 0.24450373E+05</totfact>
</mgrwt>
</event>
<event>
 6    1  0.4187588E-002  0.1327914E+03  0.7546771E-02  0.1223372E+00
         21   -1    0    0  504  502  0.00000000000E+00  0.00000000000E+00  0.12323819906E+04  0.12323819906E+04  0.00000000000E+00 0. -1.
         21   -1    0    0  502  503 -0.00000000000E+00 -0.00000000000E+00 -0.22416543889E+02  0.22416543889E+02  0.00000000000E+00 0. -1.
         25    2    1    2    0    0  0.36921957462E+02  0.25408898383E+02  0.17909511975E+03  0.22295432431E+03  0.12499890301E+03 0.  0.
          5    1    3    3  501    0 -0.37030820523E+02 -0.22044169331E+02  0.77122961971E+02  0.88346976933E+02  0.10000000000E+00 0. -1.
         -5    1    3    3    0  501  0.73952777984E+02  0.47453067714E+02  0.10197215778E+03  0.13460734738E+03  0.10000000000E+00 0. -1.
         21    1    1    2  504  503 -0.36921957462E+02 -0.25408898383E+02  0.10308703270E+04  0.10318442102E+04  0.00000000000E+00 0. -1.
<mgrwt>
<rscale>  1 0.13279145E+03</rscale>
<asrwt>0</asrwt>
<pdfrwt beam="1">  1       21 0.18959718E+00 0.13279145E+03</pdfrwt>
<pdfrwt beam="2">  1       21 0.34487000E-02 0.13279145E+03</pdfrwt>
<totfact> 0.81733856E+04</totfact>
</mgrwt>
</event>
<event>
 6    1  0.4187588E-002  0.1264035E+03  0.7546771E-02  0.1232892E+00
         21   -1    0    0  503  502  0.00000000000E+00  0.00000000000E+00  0.68154437065E+02  0.68154437065E+02  0.00000000000E+00 0.  1.
         21   -1    0    0  504  503 -0.00000000000E+00 -0.00000000000E+00 -0.18625310251E+03  0.18625310251E+03  0.00000000000E+00 0.  1.
         25    2    1    2    0    0 -0.18479833279E+02 -0.40330981507E+01 -0.16265865290E+03  0.20599924895E+03  0.12498033080E+03 0.  0.
          5    1    3    3  501    0  0.34512468483E+02  0.24711742111E+02 -0.13140962828E+03  0.13809518849E+03  0.10000000000E+00 0. -1.
         -5    1    3    3    0  501 -0.52992301762E+02 -0.28744840262E+02 -0.31249024618E+02  0.67904060463E+02  0.10000000000E+00 0. -1.
         21    1    1    2  504  502  0.18479833279E+02  0.40330981507E+01  0.44559987456E+02  0.48408290621E+02  0.00000000000E+00 0.  1.
<mgrwt>
<rscale>  1 0.12640353E+03</rscale>
<asrwt>0</asrwt>
<pdfrwt beam="1">  1       21 0.10485298E-01 0.12640353E+03</pdfrwt>
<pdfrwt beam="2">  1       21 0.28654324E-01 0.12640353E+03</pdfrwt>
<totfact> 0.87143361E+05</totfact>
</mgrwt>
</event>
<event>
 6    1  0.4187588E-002  0.1260064E+03  0.7546771E-02  0.1233505E+00
         21   -1    0    0  504  502  0.00000000000E+00  0.00000000000E+00  0.10992326749E+02  0.10992326749E+02  0.00000000000E+00 0. -1.
         21   -1    0    0  502  503 -0.00000000000E+00 -0.00000000000E+00 -0.53375636991E+03  0.53375636991E+03  0.00000000000E+00 0. -1.
         25    2    1    2    0    0  0.10605434038E+01  0.15861913704E+02 -0.50676009397E+03  0.52219096077E+03  0.12499952645E+03 0.  0.
          5    1    3    3  501    0  0.42529931322E+01 -0.49233130647E+02 -0.33231047720E+03  0.33596465939E+03  0.10000000000E+00 0.  1.
         -5    1    3    3    0  501 -0.31924497284E+01  0.65095044351E+02 -0.17444961676E+03  0.18622630137E+03  0.10000000000E+00 0.  1.
         21    1    1    2  504  503 -0.10605434038E+01 -0.15861913704E+02 -0.16003949195E+02  0.22557735891E+02  0.00000000000E+00 0. -1.
<mgrwt>
<rscale>  1 0.12600638E+03</rscale>
<asrwt>0</asrwt>
<pdfrwt beam="1">  1       21 0.16911268E-02 0.12600638E+03</pdfrwt>
<pdfrwt beam="2">  1       21 0.82116381E-01 0.12600638E+03</pdfrwt>
<totfact> 0.20888262E+06</totfact>
</mgrwt>
</event>
<event>
 6    1  0.4187588E-002  0.1269513E+03  0.7546771E-02  0.1232051E+00
         21   -1    0    0  503  502  0.00000000000E+00  0.00000000000E+00  0.12069156732E+02  0.12069156732E+02  0.00000000000E+00 0.  1.
         21   -1    0    0  504  503 -0.00000000000E+00 -0.00000000000E+00 -0.52347512846E+03  0.52347512846E+03  0.00000000000E+00 0.  1.
         25    2    1    2    0    0 -0.21740548824E+02 -0.36557989327E+01 -0.48399630134E+03  0.50036891939E+03  0.12502247575E+03 0.  0.
          5    1    3    3  501    0 -0.16619685795E+02 -0.61491615955E+02 -0.18156103450E+03  0.19241063390E+03  0.10000000000E+00 0.  1.
         -5    1    3    3    0  501 -0.51208630285E+01  0.57835817022E+02 -0.30243526684E+03  0.30795828549E+03  0.10000000000E+00 0.  1.
         21    1    1    2  504  502  0.21740548824E+02  0.36557989327E+01 -0.27409670381E+02  0.35175365803E+02  0.00000000000E+00 0.  1.
<mgrwt>
<rscale>  1 0.12695131E+03</rscale>
<asrwt>0</asrwt>
<pdfrwt beam="1">  1       21 0.18567939E-02 0.12695131E+03</pdfrwt>
<pdfrwt beam="2">  1       21 0.80534610E-01 0.12695131E+03</pdfrwt>
<totfact> 0.18780818E+06</totfact>
</mgrwt>
</event>
<event>
 6    1  0.4187588E-002  0.1261161E+03  0.7546771E-02  0.1233335E+00
         21   -1    0    0  503  502  0.00000000000E+00  0.00000000000E+00  0.58100693321E+02  0.58100693321E+02  0.00000000000E+00 0.  1.
         21   -1    0    0  504  503 -0.00000000000E+00 -0.00000000000E+00 -0.10828955525E+03  0.10828955525E+03  0.00000000000E+00 0.  1.
         25    2    1    2    0    0 -0.10582763031E+02  0.13066206679E+02 -0.66833880505E+02  0.14273063586E+03  0.12499018441E+03 0.  0.
          5    1    3    3  501    0 -0.25220915810E+02 -0.47562374879E+02 -0.58999048592E+02  0.79869717874E+02  0.10000000000E+00 0. -1.
         -5    1    3    3    0  501  0.14638152779E+02  0.60628581558E+02 -0.78348319127E+01  0.62860917983E+02  0.10000000000E+00 0. -1.
         21    1    1    2  504  502  0.10582763031E+02 -0.13066206679E+02  0.16645018577E+02  0.23659612714E+02  0.00000000000E+00 0.  1.
<mgrwt>
<rscale>  1 0.12611608E+03</rscale>
<asrwt>0</asrwt>
<pdfrwt beam="1">  1       21 0.89385683E-02 0.12611608E+03</pdfrwt>
<pdfrwt beam="2">  1       21 0.16659931E-01 0.12611608E+03</pdfrwt>
<totfact> 0.31644054E+06</totfact>
</mgrwt>
</event>
<event>
 6    1  0.4187588E-002  0.1282459E+03  0.7546771E-02  0.1230082E+00
         21   -1    0    0  504  502  0.00000000000E+00  0.00000000000E+00  0.18095462754E+03  0.18095462754E+03  0.00000000000E+00 0.  1.
         21   -1    0    0  502  503 -0.00000000000E+00 -0.00000000000E+00 -0.50803618624E+02  0.50803618624E+02  0.00000000000E+00 0.  1.
         25    2    1    2    0    0 -0.28140356365E+02 -0.54357061517E+01  0.35798190690E+02  0.13314850595E+03  0.12500235047E+03 0.  0.
          5    1    3    3  501    0 -0.27838498901E+02  0.32405551318E+02  0.70087644268E+02  0.82081603641E+02  0.10000000000E+00 0. -1.
         -5    1    3    3    0  501 -0.30185746474E+00 -0.37841257469E+02 -0.34289453579E+02  0.51066902310E+02  0.10000000000E+00 0. -1.
         21    1    1    2  504  503  0.28140356365E+02  0.54357061517E+01  0.94352818226E+02  0.98609740214E+02  0.00000000000E+00 0.  1.
<mgrwt>
<rscale>  1 0.12824591E+03</rscale>
<asrwt>0</asrwt>
<pdfrwt beam="1">  1       21 0.27839173E-01 0.12824591E+03</pdfrwt>
<pdfrwt beam="2">  1       21 0.78159414E-02 0.12824591E+03</pdfrwt>
<totfact> 0.15346489E+06</totfact>
</mgrwt>
</event>
<event>
 6    1  0.4187588E-002  0.1452121E+03  0.7546771E-02  0.1206483E+00
         21   -1    0    0  503  502  0.00000000000E+00  0.00000000000E+00  0.13311487155E+03  0.13311487155E+03  0.00000000000E+00 0.  1.
         21   -1    0    0  504  503 -0.00000000000E+00 -0.00000000000E+00 -0.95168328989E+02  0.95168328989E+02  0.00000000000E+00 0.  1.
         25    2    1    2    0    0  0.73902691746E+02  0.13576472944E+01  0.49611753840E+02  0.15345320517E+03  0.12499243579E+03 0.  0.
          5    1    3    3  501    0  0.93482532892E+02 -0.36575189939E+02  0.46562546986E+02  0.11065626623E+03  0.10000000000E+00 0.  1.
         -5    1    3    3    0  501 -0.19579841146E+02  0.37932837233E+02  0.30492068543E+01  0.42796938936E+02  0.10000000000E+00 0.  1.
         21    1    1    2  504  502 -0.73902691746E+02 -0.13576472944E+01 -0.11665211275E+02  0.74829995373E+02  0.00000000000E+00 0.  1.
<mgrwt>
<rscale>  1 0.14521212E+03</rscale>
<asrwt>0</asrwt>
<pdfrwt beam="1">  1       21 0.20479211E-01 0.14521212E+03</pdfrwt>
<pdfrwt beam="2">  1       21 0.14641281E-01 0.14521212E+03</pdfrwt>
<totfact> 0.90747348E+05</totfact>
</mgrwt>
</event>
<event>
 6    1  0.4187588E-002  0.1603728E+03  0.7546771E-02  0.1188277E+00
         21   -1    0    0  504  502  0.00000000000E+00  0.00000000000E+00  0.30110216119E+04  0.30110216119E+04  0.00000000000E+00 0. -1.
         21   -1    0    0  502  503 -0.00000000000E+00 -0.00000000000E+00 -0.16824098429E+02  0.16824098429E+02  0.00000000000E+00 0.  1.
         25    2    1    2    0    0  0.77938949034E+02 -0.63407944084E+02  0.38967401199E+03  0.42138494582E+03  0.12499755916E+03 0.  0.
          5    1    3    3  501    0  0.68167926661E+02  0.22360504376E+02  0.21284427106E+03  0.22460977740E+03  0.10000000000E+00 0.  1.
         -5    1    3    3    0  501  0.97710223725E+01 -0.85768448459E+02  0.17682974093E+03  0.19677516842E+03  0.10000000000E+00 0.  1.
         21    1    1    2  504  503 -0.77938949034E+02  0.63407944084E+02  0.26045235014E+04  0.26064607645E+04  0.00000000000E+00 0. -1.
<mgrwt>
<rscale>  1 0.16037281E+03</rscale>
<asrwt>0</asrwt>
<pdfrwt beam="1">  1       21 0.46323367E+00 0.16037281E+03</pdfrwt>
<pdfrwt beam="2">  1       21 0.25883252E-02 0.16037281E+03</pdfrwt>
<totfact> 0.28864929E+03</totfact>
</mgrwt>
</event>
<event>
 6    1  0.4187588E-002  0.1266779E+03  0.7546771E-02  0.1232470E+00
         21   -1    0    0  503  502  0.00000000000E+00  0.00000000000E+00  0.22713453820E+03  0.22713453820E+03  0.00000000000E+00 0. -1.
         21   -1    0    0  504  503 -0.00000000000E+00 -0.00000000000E+00 -0.15877116541E+03  0.15877116541E+03  0.00000000000E+00 0.  1.
         25    2    1    2    0    0  0.13083047701E+02  0.15836891778E+02 -0.13289691380E+03  0.18359980592E+03  0.12500130302E+03 0.  0.
          5    1    3    3  501    0  0.25160444423E+02 -0.39568886605E+02 -0.95659766227E+01  0.47856688764E+02  0.10000000000E+00 0. -1.
         -5    1    3    3    0  501 -0.12077396722E+02  0.55405778384E+02 -0.12333093718E+03  0.13574311716E+03  0.10000000000E+00 0. -1.
         21    1    1    2  504  502 -0.13083047701E+02 -0.15836891778E+02  0.20126028659E+03  0.20230589768E+03  0.00000000000E+00 0. -1.
<mgrwt>
<rscale>  1 0.12667793E+03</rscale>
<asrwt>0</asrwt>
<pdfrwt beam="1">  1       21 0.34943775E-01 0.12667793E+03</pdfrwt>
<pdfrwt beam="2">  1       21 0.24426333E-01 0.12667793E+03</pdfrwt>
<totfact> 0.12787468E+05</totfact>
</mgrwt>
</event>
<event>
 6    1  0.4187588E-002  0.1262580E+03  0.7546771E-02  0.1233116E+00
         21   -1    0    0  503  502  0.00000000000E+00  0.00000000000E+00  0.54143021554E+03  0.54143021554E+03  0.00000000000E+00 0.  1.
         21   -1    0    0  504  503 -0.00000000000E+00 -0.00000000000E+00 -0.97773031708E+01  0.97773031708E+01  0.00000000000E+00 0.  1.
         25    2    1    2    0    0  0.17295741380E+01 -0.17692112938E+02  0.43583554407E+03  0.45375511825E+03  0.12500033432E+03 0.  0.
          5    1    3    3  501    0  0.24321869077E+01 -0.55515353633E+02  0.89417196386E+02  0.10527732439E+03  0.10000000000E+00 0.  1.
         -5    1    3    3    0  501 -0.70261276968E+00  0.37823240695E+02  0.34641834768E+03  0.34847779386E+03  0.10000000000E+00 0.  1.
         21    1    1    2  504  502 -0.17295741380E+01  0.17692112938E+02  0.95817368302E+02  0.97452400459E+02  0.00000000000E+00 0.  1.
<mgrwt>
<rscale>  1 0.12625801E+03</rscale>
<asrwt>0</asrwt>
<pdfrwt beam="1">  1       21 0.83296933E-01 0.12625801E+03</pdfrwt>
<pdfrwt beam="2">  1       21 0.15042009E-02 0.12625801E+03</pdfrwt>
<totfact> 0.24398474E+06</totfact>
</mgrwt>
</event>
<event>
 6    1  0.4187588E-002  0.1259925E+03  0.7546771E-02  0.1233526E+00
         21   -1    0    0  504  502  0.00000000000E+00  0.00000000000E+00  0.10471997783E+03  0.10471997783E+03  0.00000000000E+00 0. -1.
         21   -1    0    0  502  503 -0.00000000000E+00 -0.00000000000E+00 -0.51076989655E+02  0.51076989655E+02  0.00000000000E+00 0. -1.
         25    2    1    2    0    0  0.14773508601E+02  0.55201068897E+01  0.33795376196E+02  0.13044630994E+03  0.12500153675E+03 0.  0.
          5    1    3    3  501    0 -0.47254430195E+01 -0.43647976029E+02  0.57615731037E+02  0.72436579752E+02  0.10000000000E+00 0.  1.
         -5    1    3    3    0  501  0.19498951620E+02  0.49168082919E+02 -0.23820354842E+02  0.58009730193E+02  0.10000000000E+00 0.  1.
         21    1    1    2  504  503 -0.14773508601E+02 -0.55201068897E+01  0.19847611975E+02  0.25350657537E+02  0.00000000000E+00 0. -1.
<mgrwt>
<rscale>  1 0.12599251E+03</rscale>
<asrwt>0</asrwt>
<pdfrwt beam="1">  1       21 0.16110766E-01 0.12599251E+03</pdfrwt>
<pdfrwt beam="2">  1       21 0.78579984E-02 0.12599251E+03</pdfrwt>
<totfact> 0.42012578E+06</totfact>
</mgrwt>
</event>
<event>
 6    1  0.4187588E-002  0.1338888E+03  0.7546771E-02  0.1221797E+00
         21   -1    0    0  504  502  0.00000000000E+00  0.00000000000E+00  0.22963269367E+03  0.22963269367E+03  0.00000000000E+00 0. -1.
         21   -1    0    0  502  503 -0.00000000000E+00 -0.00000000000E+00 -0.56702923824E+02  0.56702923824E+02  0.00000000000E+00 0. -1.
         25    2    1    2    0    0 -0.13129133062E+02  0.46142370939E+02  0.32274173652E+02  0.13772374290E+03  0.12499885816E+03 0.  0.
          5    1    3    3  501    0  0.60034508627E+01  0.87818669716E+02  0.21879458925E+02  0.90702154858E+02  0.10000000000E+00 0. -1.
         -5    1    3    3    0  501 -0.19132583925E+02 -0.41676298778E+02  0.10394714728E+02  0.47021588039E+02  0.10000000000E+00 0. -1.
         21    1    1    2  504  503  0.13129133062E+02 -0.46142370939E+02  0.14065559619E+03  0.14861187459E+03  0.00000000000E+00 0. -1.
<mgrwt>
<rscale>  1 0.13388879E+03</rscale>
<asrwt>0</asrwt>
<pdfrwt beam="1">  1       21 0.35328106E-01 0.13388879E+03</pdfrwt>
<pdfrwt beam="2">  1       21 0.87235268E-02 0.13388879E+03</pdfrwt>
<totfact> 0.79993424E+05</totfact>
</mgrwt>
</event>
<event>
 6    1  0.4187588E-002  0.1298663E+03  0.7546771E-02  0.1227654E+00
         21   -1    0    0  504  502  0.00000000000E+00  0.00000000000E+00  0.99043246142E+02  0.99043246142E+02  0.00000000000E+00 0.  1.
         21   -1    0    0  502  503 -0.00000000000E+00 -0.00000000000E+00 -0.68978424191E+02  0.68978424191E+02  0.00000000000E+00 0.  1.
         25    2    1    2    0    0  0.22854936392E+02 -0.26787025508E+02  0.19983324144E+02  0.13139477515E+03  0.12500144335E+03 0.  0.
          5    1    3    3  501    0  0.34320450855E+02 -0.70161663816E+02 -0.80060784095E+01  0.78515346957E+02  0.10000000000E+00 0. -1.
         -5    1    3    3    0  501 -0.11465514463E+02  0.43374638308E+02  0.27989402553E+02  0.52879428188E+02  0.10000000000E+00 0. -1.
         21    1    1    2  504  503 -0.22854936392E+02  0.26787025508E+02  0.10081497808E+02  0.36626895188E+02  0.00000000000E+00 0.  1.
<mgrwt>
<rscale>  1 0.12986629E+03</rscale>
<asrwt>0</asrwt>
<pdfrwt beam="1">  1       21 0.15237422E-01 0.12986629E+03</pdfrwt>
<pdfrwt beam="2">  1       21 0.10612065E-01 0.12986629E+03</pdfrwt>
<totfact> 0.27596749E+06</totfact>
</mgrwt>
</event>
<event>
 6    1  0.4187588E-002  0.1266911E+03  0.7546771E-02  0.1232450E+00
         21   -1    0    0  504  502  0.00000000000E+00  0.00000000000E+00  0.24077928292E+03  0.24077928292E+03  0.00000000000E+00 0.  1.
         21   -1    0    0  502  503 -0.00000000000E+00 -0.00000000000E+00 -0.26155564586E+02  0.26155564586E+02  0.00000000000E+00 0.  1.
         25    2    1    2    0    0  0.20560488916E+02  0.18169798143E+01  0.13694153662E+03  0.18655726060E+03  0.12499836764E+03 0.  0.
          5    1    3    3  501    0  0.26738873194E+02  0.60833509051E+02  0.61198010309E+02  0.90337642370E+02  0.10000000000E+00 0.  1.
         -5    1    3    3    0  501 -0.61783842784E+01 -0.59016529236E+02  0.75743526308E+02  0.96219618233E+02  0.10000000000E+00 0.  1.
         21    1    1    2  504  503 -0.20560488916E+02 -0.18169798143E+01  0.77682181720E+02  0.80377586906E+02  0.00000000000E+00 0.  1.
<mgrwt>
<rscale>  1 0.12669107E+03</rscale>
<asrwt>0</asrwt>
<pdfrwt beam="1">  1       21 0.37042965E-01 0.12669107E+03</pdfrwt>
<pdfrwt beam="2">  1       21 0.40239332E-02 0.12669107E+03</pdfrwt>
<totfact> 0.27035922E+06</totfact>
</mgrwt>
</event>
<event>
 6    1  0.4187588E-002  0.1273088E+03  0.7546771E-02  0.1231504E+00
         21   -1    0    0  503  502  0.00000000000E+00  0.00000000000E+00  0.23736541207E+02  0.23736541207E+02  0.00000000000E+00 0.  1.
         21   -1    0    0  504  503 -0.00000000000E+00 -0.00000000000E+00 -0.33334021016E+03  0.33334021016E+03  0.00000000000E+00 0.  1.
         25    2    1    2    0    0  0.34977454795E+01  0.23919360854E+02 -0.30749963846E+03  0.33281161194E+03  0.12499268514E+03 0.  0.
          5    1    3    3  501    0 -0.15628161742E+01  0.53713255520E+02 -0.49539017188E+02  0.73086800702E+02  0.10000000000E+00 0.  1.
         -5    1    3    3    0  501  0.50605616537E+01 -0.29793894666E+02 -0.25796062128E+03  0.25972481124E+03  0.10000000000E+00 0.  1.
         21    1    1    2  504  502 -0.34977454795E+01 -0.23919360854E+02 -0.21040304897E+01  0.24265139427E+02  0.00000000000E+00 0.  1.
<mgrwt>
<rscale>  1 0.12730884E+03</rscale>
<asrwt>0</asrwt>
<pdfrwt beam="1">  1       21 0.36517760E-02 0.12730884E+03</pdfrwt>
<pdfrwt beam="2">  1       21 0.51283103E-01 0.12730884E+03</pdfrwt>
<totfact> 0.16448256E+06</totfact>
</mgrwt>
</event>
<event>
 6    1  0.4187588E-002  0.1981910E+03  0.7546771E-02  0.1151274E+00
         21   -1    0    0  503  502  0.00000000000E+00  0.00000000000E+00  0.16048984162E+03  0.16048984162E+03  0.00000000000E+00 0.  1.
         21   -1    0    0  504  503 -0.00000000000E+00 -0.00000000000E+00 -0.20329919060E+03  0.20329919060E+03  0.00000000000E+00 0.  1.
         25    2    1    2    0    0 -0.19893303726E+01  0.15378319632E+03 -0.64607808138E+02  0.20845583638E+03  0.12500575164E+03 0.  0.
          5    1    3    3  501    0 -0.33962963701E+02  0.66708423183E+02 -0.85225712197E+02  0.11343248497E+03  0.10000000000E+00 0.  1.
         -5    1    3    3    0  501  0.31973633328E+02  0.87074773140E+02  0.20617904058E+02  0.95023351411E+02  0.10000000000E+00 0.  1.
         21    1    1    2  504  502  0.19893303726E+01 -0.15378319632E+03  0.21798459153E+02  0.15533319583E+03  0.00000000000E+00 0.  1.
<mgrwt>
<rscale>  1 0.19819099E+03</rscale>
<asrwt>0</asrwt>
<pdfrwt beam="1">  1       21 0.24690745E-01 0.19819099E+03</pdfrwt>
<pdfrwt beam="2">  1       21 0.31276798E-01 0.19819099E+03</pdfrwt>
<totfact> 0.15206687E+05</totfact>
</mgrwt>
</event>
<event>
 6    1  0.4187588E-002  0.1286286E+03  0.7546771E-02  0.1229505E+00
         21   -1    0    0  503  502  0.00000000000E+00  0.00000000000E+00  0.19902213663E+02  0.19902213663E+02  0.00000000000E+00 0.  1.
         21   -1    0    0  504  503 -0.00000000000E+00 -0.00000000000E+00 -0.32167944955E+03  0.32167944955E+03  0.00000000000E+00 0.  1.
         25    2    1    2    0    0  0.13812271084E+02 -0.27004921292E+02 -0.22742571307E+03  0.26128101843E+03  0.12500108409E+03 0.  0.
          5    1    3    3  501    0  0.59628285524E+02 -0.14479091760E+02 -0.19327238759E+03  0.20277919602E+03  0.10000000000E+00 0.  1.
         -5    1    3    3    0  501 -0.45816014440E+02 -0.12525829532E+02 -0.34153325473E+02  0.58501822411E+02  0.10000000000E+00 0.  1.
         21    1    1    2  504  502 -0.13812271084E+02  0.27004921292E+02 -0.74351522820E+02  0.80300644781E+02  0.00000000000E+00 0.  1.
<mgrwt>
<rscale>  1 0.12862860E+03</rscale>
<asrwt>0</asrwt>
<pdfrwt beam="1">  1       21 0.30618792E-02 0.12862860E+03</pdfrwt>
<pdfrwt beam="2">  1       21 0.49489143E-01 0.12862860E+03</pdfrwt>
<totfact> 0.23671110E+06</totfact>
</mgrwt>
</event>
<event>
 6    1  0.4187588E-002  0.1264906E+03  0.7546771E-02  0.1232758E+00
         21   -1    0    0  504  502  0.00000000000E+00  0.00000000000E+00  0.16049460295E+03  0.16049460295E+03  0.00000000000E+00 0. -1.
         21   -1    0    0  502  503 -0.00000000000E+00 -0.00000000000E+00 -0.34318740756E+02  0.34318740756E+02  0.00000000000E+00 0. -1.
         25    2    1    2    0    0 -0.13551454732E+02 -0.14611449265E+02  0.96637906430E+02  0.15918151516E+03  0.12491090198E+03 0.  0.
          5    1    3    3  501    0  0.20044451820E+02 -0.49714986013E+02  0.96732478269E+02  0.11059178195E+03  0.10000000000E+00 0.  1.
         -5    1    3    3    0  501 -0.33595906552E+02  0.35103536748E+02 -0.94571839291E-01  0.48589733207E+02  0.10000000000E+00 0.  1.
         21    1    1    2  504  503  0.13551454732E+02  0.14611449265E+02  0.29537955765E+02  0.35631828549E+02  0.00000000000E+00 0. -1.
<mgrwt>
<rscale>  1 0.12649059E+03</rscale>
<asrwt>0</asrwt>
<pdfrwt beam="1">  1       21 0.24691477E-01 0.12649059E+03</pdfrwt>
<pdfrwt beam="2">  1       21 0.52798063E-02 0.12649059E+03</pdfrwt>
<totfact> 0.37558102E+06</totfact>
</mgrwt>
</event>
<event>
 6    1  0.4187588E-002  0.1261267E+03  0.7546771E-02  0.1233319E+00
         21   -1    0    0  503  502  0.00000000000E+00  0.00000000000E+00  0.22365276795E+03  0.22365276795E+03  0.00000000000E+00 0. -1.
         21   -1    0    0  504  503 -0.00000000000E+00 -0.00000000000E+00 -0.62759800437E+02  0.62759800437E+02  0.00000000000E+00 0. -1.
         25    2    1    2    0    0  0.10129899104E+02  0.13341563135E+02  0.14937023765E+01  0.12613550238E+03  0.12500928626E+03 0.  0.
          5    1    3    3  501    0  0.23908924700E+02 -0.24600332930E+02 -0.50042732170E+02  0.60672053728E+02  0.10000000000E+00 0.  1.
         -5    1    3    3    0  501 -0.13779025596E+02  0.37941896065E+02  0.51536434546E+02  0.65463448650E+02  0.10000000000E+00 0.  1.
         21    1    1    2  504  502 -0.10129899104E+02 -0.13341563135E+02  0.15939926513E+03  0.16027706601E+03  0.00000000000E+00 0. -1.
<mgrwt>
<rscale>  1 0.12612666E+03</rscale>
<asrwt>0</asrwt>
<pdfrwt beam="1">  1       21 0.34408118E-01 0.12612666E+03</pdfrwt>
<pdfrwt beam="2">  1       21 0.96553540E-02 0.12612666E+03</pdfrwt>
<totfact> 0.70607174E+05</totfact>
</mgrwt>
</event>
<event>
 6    1  0.4187588E-002  0.1259887E+03  0.7546771E-02  0.1233532E+00
         21   -1    0    0  503  502  0.00000000000E+00  0.00000000000E+00  0.26787620918E+02  0.26787620918E+02  0.00000000000E+00 0.  1.
         21   -1    0    0  504  503 -0.00000000000E+00 -0.00000000000E+00 -0.19408270478E+03  0.19408270478E+03  0.00000000000E+00 0.  1.
         25    2    1    2    0    0  0.23700924167E+01  0.15569765091E+02 -0.15961831770E+03  0.20334983307E+03  0.12500044937E+03 0.  0.
          5    1    3    3  501    0  0.30002779778E+02  0.43289904827E+02 -0.16829979547E+02  0.55294130483E+02  0.10000000000E+00 0. -1.
         -5    1    3    3    0  501 -0.27632687361E+02 -0.27720139736E+02 -0.14278833815E+03  0.14805570259E+03  0.10000000000E+00 0. -1.
         21    1    1    2  504  502 -0.23700924167E+01 -0.15569765091E+02 -0.76767661645E+01  0.17520492625E+02  0.00000000000E+00 0. -1.
<mgrwt>
<rscale>  1 0.12598868E+03</rscale>
<asrwt>0</asrwt>
<pdfrwt beam="1">  1       21 0.41211723E-02 0.12598868E+03</pdfrwt>
<pdfrwt beam="2">  1       21 0.29858879E-01 0.12598868E+03</pdfrwt>
<totfact> 0.39566945E+06</totfact>
</mgrwt>
</event>
<event>
 6    1  0.4187588E-002  0.1290733E+03  0.7546771E-02  0.1228837E+00
         21   -1    0    0  504  502  0.00000000000E+00  0.00000000000E+00  0.43965028450E+03  0.43965028450E+03  0.00000000000E+00 0. -1.
         21   -1    0    0  502  503 -0.00000000000E+00 -0.00000000000E+00 -0.15334619976E+02  0.15334619976E+02  0.00000000000E+00 0. -1.
         25    2    1    2    0    0 -0.24562745706E+02 -0.20771613072E+02  0.30027502935E+03  0.32684097149E+03  0.12500055603E+03 0.  0.
          5    1    3    3  501    0 -0.52317047733E+02 -0.30843901760E+02  0.62165654884E+02  0.86907988163E+02  0.10000000000E+00 0.  1.
         -5    1    3    3    0  501  0.27754302027E+02  0.10072288688E+02  0.23810937447E+03  0.23993298333E+03  0.10000000000E+00 0.  1.
         21    1    1    2  504  503  0.24562745706E+02  0.20771613072E+02  0.12404063517E+03  0.12814393298E+03  0.00000000000E+00 0. -1.
<mgrwt>
<rscale>  1 0.12907334E+03</rscale>
<asrwt>0</asrwt>
<pdfrwt beam="1">  1       21 0.67638496E-01 0.12907334E+03</pdfrwt>
<pdfrwt beam="2">  1       21 0.23591726E-02 0.12907334E+03</pdfrwt>
<totfact> 0.18731589E+06</totfact>
</mgrwt>
</event>
<event>
 6    1  0.4187588E-002  0.1289052E+03  0.7546771E-02  0.1229089E+00
         21   -1    0    0  503  502  0.00000000000E+00  0.00000000000E+00  0.10210377179E+04  0.10210377179E+04  0.00000000000E+00 0.  1.
         21   -1    0    0  504  503 -0.00000000000E+00 -0.00000000000E+00 -0.63010696602E+01  0.63010696602E+01  0.00000000000E+00 0.  1.
         25    2    1    2    0    0 -0.26545956893E+02 -0.16983907425E+02  0.81635502056E+03  0.82646964822E+03  0.12499367542E+03 0.  0.
          5    1    3    3  501    0 -0.17290224462E+01 -0.67421736211E+02  0.55856570311E+03  0.56262272859E+03  0.10000000000E+00 0. -1.
         -5    1    3    3    0  501 -0.24816934447E+02  0.50437828786E+02  0.25778931745E+03  0.26384691963E+03  0.10000000000E+00 0. -1.
         21    1    1    2  504  502  0.26545956893E+02  0.16983907425E+02  0.19838162772E+03  0.20086913938E+03  0.00000000000E+00 0.  1.
<mgrwt>
<rscale>  1 0.12890524E+03</rscale>
<asrwt>0</asrwt>
<pdfrwt beam="1">  1       21 0.15708259E+00 0.12890524E+03</pdfrwt>
<pdfrwt beam="2">  1       21 0.96939615E-03 0.12890524E+03</pdfrwt>
<totfact> 0.10548276E+06</totfact>
</mgrwt>
</event>
<event>
 6    1  0.4187588E-002  0.1391807E+03  0.7546771E-02  0.1214436E+00
         21   -1    0    0  503  502  0.00000000000E+00  0.00000000000E+00  0.61399722485E+03  0.61399722485E+03  0.00000000000E+00 0. -1.
         21   -1    0    0  504  503 -0.00000000000E+00 -0.00000000000E+00 -0.22180235693E+02  0.22180235693E+02  0.00000000000E+00 0. -1.
         25    2    1    2    0    0 -0.30547694089E+02 -0.53033083311E+02  0.22706413591E+03  0.26632571526E+03  0.12500238098E+03 0.  0.
          5    1    3    3  501    0 -0.68690509320E+02 -0.32628020085E+02  0.20310755453E+03  0.21687706765E+03  0.10000000000E+00 0. -1.
         -5    1    3    3    0  501  0.38142815232E+02 -0.20405063226E+02  0.23956581387E+02  0.49448647614E+02  0.10000000000E+00 0. -1.
         21    1    1    2  504  502  0.30547694089E+02  0.53033083311E+02  0.36475285325E+03  0.36985174529E+03  0.00000000000E+00 0. -1.
<mgrwt>
<rscale>  1 0.13918069E+03</rscale>
<asrwt>0</asrwt>
<pdfrwt beam="1">  1       21 0.94461099E-01 0.13918069E+03</pdfrwt>
<pdfrwt beam="2">  1       21 0.34123444E-02 0.13918069E+03</pdfrwt>
<totfact> 0.48459161E+05</totfact>
</mgrwt>
</event>
<event>
 6    1  0.4187588E-002  0.1271351E+03  0.7546771E-02  0.1231770E+00
         21   -1    0    0  503  502  0.00000000000E+00  0.00000000000E+00  0.14416687474E+03  0.14416687474E+03  0.00000000000E+00 0.  1.
         21   -1    0    0  504  503 -0.00000000000E+00 -0.00000000000E+00 -0.12484278557E+03  0.12484278557E+03  0.00000000000E+00 0.  1.
         25    2    1    2    0    0  0.18440394040E+02 -0.14110253568E+02 -0.90949863308E+02  0.15631763760E+03  0.12499671517E+03 0.  0.
          5    1    3    3  501    0  0.10008976500E+02  0.29188651226E+02 -0.10545883423E+03  0.10988053826E+03  0.10000000000E+00 0. -1.
         -5    1    3    3    0  501  0.84314175398E+01 -0.43298904794E+02  0.14508970925E+02  0.46437099343E+02  0.10000000000E+00 0. -1.
         21    1    1    2  504  502 -0.18440394040E+02  0.14110253568E+02  0.11027395247E+03  0.11269202270E+03  0.00000000000E+00 0.  1.
<mgrwt>
<rscale>  1 0.12713507E+03</rscale>
<asrwt>0</asrwt>
<pdfrwt beam="1">  1       21 0.22179519E-01 0.12713507E+03</pdfrwt>
<pdfrwt beam="2">  1       21 0.19206582E-01 0.12713507E+03</pdfrwt>
<totfact> 0.47726563E+05</totfact>
</mgrwt>
</event>
<event>
 6    1  0.4187588E-002  0.1263516E+03  0.7546771E-02  0.1232972E+00
         21   -1    0    0  504  502  0.00000000000E+00  0.00000000000E+00  0.58509213182E+02  0.58509213182E+02  0.00000000000E+00 0. -1.
         21   -1    0    0  502  503 -0.00000000000E+00 -0.00000000000E+00 -0.89606495939E+02  0.89606495939E+02  0.00000000000E+00 0. -1.
         25    2    1    2    0    0 -0.17618769633E+02 -0.50355716009E+01 -0.29293602210E+02  0.12970290683E+03  0.12501580254E+03 0.  0.
          5    1    3    3  501    0  0.81073108906E-01  0.59452375805E+02 -0.12469594970E+02  0.60746130416E+02  0.10000000000E+00 0. -1.
         -5    1    3    3    0  501 -0.17699842742E+02 -0.64487947406E+02 -0.16824007240E+02  0.68956776414E+02  0.10000000000E+00 0. -1.
         21    1    1    2  504  503  0.17618769633E+02  0.50355716009E+01 -0.18036805470E+01  0.18412802292E+02  0.00000000000E+00 0. -1.
<mgrwt>
<rscale>  1 0.12635161E+03</rscale>
<asrwt>0</asrwt>
<pdfrwt beam="1">  1       21 0.90014174E-02 0.12635161E+03</pdfrwt>
<pdfrwt beam="2">  1       21 0.13785615E-01 0.12635161E+03</pdfrwt>
<totfact> 0.43990885E+06</totfact>
</mgrwt>
</event>
<event>
 6    1  0.4187588E-002  0.1262755E+03  0.7546771E-02  0.1233089E+00
         21   -1    0    0  504  502  0.00000000000E+00  0.00000000000E+00  0.11243086040E+03  0.11243086040E+03  0.00000000000E+00 0. -1.
         21   -1    0    0  502  503 -0.00000000000E+00 -0.00000000000E+00 -0.29692745178E+03  0.29692745178E+03  0.00000000000E+00 0.  1.
         25    2    1    2    0    0  0.11313963237E+02  0.13680241276E+02 -0.28266985186E+03  0.30959286806E+03  0.12502137430E+03 0.  0.
          5    1    3    3  501    0 -0.37051180833E+02  0.39756594708E+02 -0.21828849256E+03  0.22495166772E+03  0.10000000000E+00 0. -1.
         -5    1    3    3    0  501  0.48365144070E+02 -0.26076353432E+02 -0.64381359304E+02  0.84641200341E+02  0.10000000000E+00 0. -1.
         21    1    1    2  504  503 -0.11313963237E+02 -0.13680241276E+02  0.98173260491E+02  0.99765444123E+02  0.00000000000E+00 0. -1.
<mgrwt>
<rscale>  1 0.12627549E+03</rscale>
<asrwt>0</asrwt>
<pdfrwt beam="1">  1       21 0.17297055E-01 0.12627549E+03</pdfrwt>
<pdfrwt beam="2">  1       21 0.45681146E-01 0.12627549E+03</pdfrwt>
<totfact> 0.14193048E+05</totfact>
</mgrwt>
</event>
<event>
 6    1  0.4187588E-002  0.1269222E+03  0.7546771E-02  0.1232095E+00
         21   -1    0    0  504  502  0.00000000000E+00  0.00000000000E+00  0.95760884831E+02  0.95760884831E+02  0.00000000000E+00 0. -1.
         21   -1    0    0  502  503 -0.00000000000E+00 -0.00000000000E+00 -0.68314691847E+02  0.68314691847E+02  0.00000000000E+00 0. -1.
         25    2    1    2    0    0  0.12774583085E+02  0.17884130719E+02 -0.24793795652E+01  0.12694645069E+03  0.12500488756E+03 0.  0.
          5    1    3    3  501    0  0.27020002201E+02  0.67439124568E+02  0.11422669423E+02  0.73543207832E+02  0.10000000000E+00 0. -1.
         -5    1    3    3    0  501 -0.14245419116E+02 -0.49554993849E+02 -0.13902048988E+02  0.53403242853E+02  0.10000000000E+00 0. -1.
         21    1    1    2  504  503 -0.12774583085E+02 -0.17884130719E+02  0.29925572549E+02  0.37129125992E+02  0.00000000000E+00 0. -1.
<mgrwt>
<rscale>  1 0.12692224E+03</rscale>
<asrwt>0</asrwt>
<pdfrwt beam="1">  1       21 0.14732444E-01 0.12692224E+03</pdfrwt>
<pdfrwt beam="2">  1       21 0.10509953E-01 0.12692224E+03</pdfrwt>
<totfact> 0.29800943E+06</totfact>
</mgrwt>
</event>
<event>
 6    1  0.4187588E-002  0.1271107E+03  0.7546771E-02  0.1231807E+00
         21   -1    0    0  504  502  0.00000000000E+00  0.00000000000E+00  0.21279246833E+02  0.21279246833E+02  0.00000000000E+00 0. -1.
         21   -1    0    0  502  503 -0.00000000000E+00 -0.00000000000E+00 -0.42380754152E+03  0.42380754152E+03  0.00000000000E+00 0. -1.
         25    2    1    2    0    0  0.20045159406E+02  0.11453368711E+02 -0.40240128573E+03  0.42199990460E+03  0.12499654656E+03 0.  0.
          5    1    3    3  501    0 -0.22178107098E+02 -0.22849407735E+02 -0.24432738633E+02  0.40136424671E+02  0.10000000000E+00 0.  1.
         -5    1    3    3    0  501  0.42223266504E+02  0.34302776446E+02 -0.37796854710E+03  0.38186347992E+03  0.10000000000E+00 0.  1.
         21    1    1    2  504  503 -0.20045159406E+02 -0.11453368711E+02 -0.12700895930E+00  0.23086883759E+02  0.00000000000E+00 0. -1.
<mgrwt>
<rscale>  1 0.12711068E+03</rscale>
<asrwt>0</asrwt>
<pdfrwt beam="1">  1       21 0.32737304E-02 0.12711068E+03</pdfrwt>
<pdfrwt beam="2">  1       21 0.65201158E-01 0.12711068E+03</pdfrwt>
<totfact> 0.11867128E+06</totfact>
</mgrwt>
</event>
<event>
 6    1  0.4187588E-002  0.1306755E+03  0.7546771E-02  0.1226457E+00
         21   -1    0    0  503  502  0.00000000000E+00  0.00000000000E+00  0.10237895244E+04  0.10237895244E+04  0.00000000000E+00 0. -1.
         21   -1    0    0  504  503 -0.00000000000E+00 -0.00000000000E+00 -0.11084592349E+02  0.11084592349E+02  0.00000000000E+00 0.  1.
         25    2    1    2    0    0 -0.37757940645E+02 -0.50144950666E+01  0.39619957974E+03  0.41719324715E+03  0.12500116494E+03 0.  0.
          5    1    3    3  501    0 -0.47185654099E+02  0.36906758324E+02  0.34585723119E+03  0.35100687903E+03  0.10000000000E+00 0.  1.
         -5    1    3    3    0  501  0.94277134537E+01 -0.41921253390E+02  0.50342348557E+02  0.66186368121E+02  0.10000000000E+00 0.  1.
         21    1    1    2  504  502  0.37757940645E+02  0.50144950666E+01  0.61650535235E+03  0.61768086964E+03  0.00000000000E+00 0. -1.
<mgrwt>
<rscale>  1 0.13067555E+03</rscale>
<asrwt>0</asrwt>
<pdfrwt beam="1">  1       21 0.15750601E+00 0.13067555E+03</pdfrwt>
<pdfrwt beam="2">  1       21 0.17053227E-02 0.13067555E+03</pdfrwt>
<totfact> 0.42670122E+05</totfact>
</mgrwt>
</event>
<event>
 6    1  0.4187588E-002  0.1296838E+03  0.7546771E-02  0.1227926E+00
         21   -1    0    0  504  502  0.00000000000E+00  0.00000000000E+00  0.30633284578E+03  0.30633284578E+03  0.00000000000E+00 0.  1.
         21   -1    0    0  502  503 -0.00000000000E+00 -0.00000000000E+00 -0.22045301846E+02  0.22045301846E+02  0.00000000000E+00 0.  1.
         25    2    1    2    0    0 -0.26285261213E+02  0.22346550804E+02  0.23048996695E+03  0.26446834729E+03  0.12501039382E+03 0.  0.
          5    1    3    3  501    0 -0.44488587350E+02  0.21357669728E+02  0.20093612568E+02  0.53283653465E+02  0.10000000000E+00 0.  1.
         -5    1    3    3    0  501  0.18203326137E+02  0.98888107665E+00  0.21039635438E+03  0.21118469382E+03  0.10000000000E+00 0.  1.
         21    1    1    2  504  503  0.26285261213E+02 -0.22346550804E+02  0.53797576988E+02  0.63909800341E+02  0.00000000000E+00 0.  1.
<mgrwt>
<rscale>  1 0.12968378E+03</rscale>
<asrwt>0</asrwt>
<pdfrwt beam="1">  1       21 0.47128127E-01 0.12968378E+03</pdfrwt>
<pdfrwt beam="2">  1       21 0.33915851E-02 0.12968378E+03</pdfrwt>
<totfact> 0.22121767E+06</totfact>
</mgrwt>
</event>
<event>
 6    1  0.4187588E-002  0.1289151E+03  0.7546771E-02  0.1229074E+00
         21   -1    0    0  503  502  0.00000000000E+00  0.00000000000E+00  0.13899065692E+02  0.13899065692E+02  0.00000000000E+00 0. -1.
         21   -1    0    0  504  503 -0.00000000000E+00 -0.00000000000E+00 -0.12409707657E+04  0.12409707657E+04  0.00000000000E+00 0. -1.
         25    2    1    2    0    0  0.30730908211E+02 -0.70831524013E+01 -0.12138455783E+04  0.12206720235E+04  0.12499816475E+03 0.  0.
          5    1    3    3  501    0 -0.13057430293E+02 -0.58662557036E+02 -0.65308624186E+03  0.65584559264E+03  0.10000000000E+00 0.  1.
         -5    1    3    3    0  501  0.43788338505E+02  0.51579404634E+02 -0.56075933647E+03  0.56482643087E+03  0.10000000000E+00 0.  1.
         21    1    1    2  504  502 -0.30730908211E+02  0.70831524013E+01 -0.13226121640E+02  0.34197807840E+02  0.00000000000E+00 0. -1.
<mgrwt>
<rscale>  1 0.12891509E+03</rscale>
<asrwt>0</asrwt>
<pdfrwt beam="1">  1       21 0.21383171E-02 0.12891509E+03</pdfrwt>
<pdfrwt beam="2">  1       21 0.19091864E+00 0.12891509E+03</pdfrwt>
<totfact> 0.17543417E+05</totfact>
</mgrwt>
</event>
<event>
 6    1  0.4187588E-002  0.1292214E+03  0.7546771E-02  0.1228616E+00
         21   -1    0    0  503  502  0.00000000000E+00  0.00000000000E+00  0.18318175250E+02  0.18318175250E+02  0.00000000000E+00 0. -1.
         21   -1    0    0  504  503 -0.00000000000E+00 -0.00000000000E+00 -0.41488548423E+03  0.41488548423E+03  0.00000000000E+00 0. -1.
         25    2    1    2    0    0 -0.76692635424E+00  0.32862663861E+02 -0.36665423028E+03  0.38875891705E+03  0.12497050914E+03 0.  0.
          5    1    3    3  501    0 -0.43459578379E+02 -0.15355518425E+02 -0.26088251675E+03  0.26492305382E+03  0.10000000000E+00 0.  1.
         -5    1    3    3    0  501  0.42692652025E+02  0.48218182286E+02 -0.10577171353E+03  0.12383586323E+03  0.10000000000E+00 0.  1.
         21    1    1    2  504  502  0.76692635424E+00 -0.32862663861E+02 -0.29913078700E+02  0.44444742426E+02  0.00000000000E+00 0. -1.
<mgrwt>
<rscale>  1 0.12922140E+03</rscale>
<asrwt>0</asrwt>
<pdfrwt beam="1">  1       21 0.28181811E-02 0.12922140E+03</pdfrwt>
<pdfrwt beam="2">  1       21 0.63828530E-01 0.12922140E+03</pdfrwt>
<totfact> 0.15887712E+06</totfact>
</mgrwt>
</event>
<event>
 6    1  0.4187588E-002  0.1341386E+03  0.7546771E-02  0.1221441E+00
         21   -1    0    0  503  502  0.00000000000E+00  0.00000000000E+00  0.10761122711E+03  0.10761122711E+03  0.00000000000E+00 0.  1.
         21   -1    0    0  504  503 -0.00000000000E+00 -0.00000000000E+00 -0.79055110541E+02  0.79055110541E+02  0.00000000000E+00 0.  1.
         25    2    1    2    0    0  0.48157685245E+02 -0.72358361910E+01  0.98529686302E+01  0.13449999106E+03  0.12498658580E+03 0.  0.
          5    1    3    3  501    0  0.86165748332E+02 -0.24188292345E+02  0.19910594075E+02  0.91684521205E+02  0.10000000000E+00 0. -1.
         -5    1    3    3    0  501 -0.38008063087E+02  0.16952456154E+02 -0.10057625445E+02  0.42815469854E+02  0.10000000000E+00 0. -1.
         21    1    1    2  504  502 -0.48157685245E+02  0.72358361910E+01  0.18703147934E+02  0.52166346587E+02  0.00000000000E+00 0.  1.
<mgrwt>
<rscale>  1 0.13413861E+03</rscale>
<asrwt>0</asrwt>
<pdfrwt beam="1">  1       21 0.16555573E-01 0.13413861E+03</pdfrwt>
<pdfrwt beam="2">  1       21 0.12162325E-01 0.13413861E+03</pdfrwt>
<totfact> 0.18681881E+06</totfact>
</mgrwt>
</event>
<event>
 6    1  0.4187588E-002  0.1263246E+03  0.7546771E-02  0.1233013E+00
         21   -1    0    0  504  502  0.00000000000E+00  0.00000000000E+00  0.64364301016E+03  0.64364301016E+03  0.00000000000E+00 0.  1.
         21   -1    0    0  502  503 -0.00000000000E+00 -0.00000000000E+00 -0.19226283889E+02  0.19226283889E+02  0.00000000000E+00 0.  1.
         25    2    1    2    0    0 -0.48148585143E+01  0.17732502604E+02  0.19058983487E+03  0.22865345347E+03  0.12498116704E+03 0.  0.
          5    1    3    3  501    0  0.14832887711E+02 -0.14974441085E+02 -0.10798494738E+02  0.23682608223E+02  0.10000000000E+00 0.  1.
         -5    1    3    3    0  501 -0.19647746225E+02  0.32706943689E+02  0.20138832961E+03  0.20497084525E+03  0.10000000000E+00 0.  1.
         21    1    1    2  504  503  0.48148585143E+01 -0.17732502604E+02  0.43382689140E+03  0.43421584058E+03  0.00000000000E+00 0.  1.
<mgrwt>
<rscale>  1 0.12632465E+03</rscale>
<asrwt>0</asrwt>
<pdfrwt beam="1">  1       21 0.99021985E-01 0.12632465E+03</pdfrwt>
<pdfrwt beam="2">  1       21 0.29578903E-02 0.12632465E+03</pdfrwt>
<totfact> 0.55043013E+05</totfact>
</mgrwt>
</event>
<event>
 6    1  0.4187588E-002  0.1284680E+03  0.7546771E-02  0.1229747E+00
         21   -1    0    0  503  502  0.00000000000E+00  0.00000000000E+00  0.11959217109E+03  0.11959217109E+03  0.00000000000E+00 0.  1.
         21   -1    0    0  504  503 -0.00000000000E+00 -0.00000000000E+00 -0.61498495346E+02  0.61498495346E+02  0.00000000000E+00 0.  1.
         25    2    1    2    0    0  0.20199776882E+00  0.29649679410E+02  0.15795647600E+02  0.12943539103E+03  0.12499949470E+03 0.  0.
          5    1    3    3  501    0 -0.57333055982E+02  0.19444931974E+02  0.32431372921E+02  0.68680336613E+02  0.10000000000E+00 0.  1.
         -5    1    3    3    0  501  0.57535053751E+02  0.10204747436E+02 -0.16635725321E+02  0.60755054418E+02  0.10000000000E+00 0.  1.
         21    1    1    2  504  502 -0.20199776882E+00 -0.29649679410E+02  0.42298028140E+02  0.51655275401E+02  0.00000000000E+00 0.  1.
<mgrwt>
<rscale>  1 0.12846796E+03</rscale>
<asrwt>0</asrwt>
<pdfrwt beam="1">  1       21 0.18398795E-01 0.12846796E+03</pdfrwt>
<pdfrwt beam="2">  1       21 0.94613070E-02 0.12846796E+03</pdfrwt>
<totfact> 0.23930737E+06</totfact>
</mgrwt>
</event>
<event>
 6    1  0.4187588E-002  0.1313449E+03  0.7546771E-02  0.1225474E+00
         21   -1    0    0  504  502  0.00000000000E+00  0.00000000000E+00  0.45152983402E+03  0.45152983402E+03  0.00000000000E+00 0. -1.
         21   -1    0    0  502  503 -0.00000000000E+00 -0.00000000000E+00 -0.35645510201E+02  0.35645510201E+02  0.00000000000E+00 0. -1.
         25    2    1    2    0    0 -0.32134301131E+02  0.24336500714E+02  0.90974057523E+02  0.15977412290E+03  0.12500645036E+03 0.  0.
          5    1    3    3  501    0  0.68948473776E+01 -0.42342227962E+02  0.34666439840E+01  0.43039874648E+02  0.10000000000E+00 0. -1.
         -5    1    3    3    0  501 -0.39029148509E+02  0.66678728677E+02  0.87507413538E+02  0.11673424825E+03  0.10000000000E+00 0. -1.
         21    1    1    2  504  503  0.32134301131E+02 -0.24336500714E+02  0.32491026629E+03  0.32740122132E+03  0.00000000000E+00 0. -1.
<mgrwt>
<rscale>  1 0.13134493E+03</rscale>
<asrwt>0</asrwt>
<pdfrwt beam="1">  1       21 0.69466125E-01 0.13134493E+03</pdfrwt>
<pdfrwt beam="2">  1       21 0.54839249E-02 0.13134493E+03</pdfrwt>
<totfact> 0.43791036E+05</totfact>
</mgrwt>
</event>
<event>
 6    1  0.4187588E-002  0.1277902E+03  0.7546771E-02  0.1230772E+00
         21   -1    0    0  504  502  0.00000000000E+00  0.00000000000E+00  0.27863612241E+03  0.27863612241E+03  0.00000000000E+00 0.  1.
         21   -1    0    0  502  503 -0.00000000000E+00 -0.00000000000E+00 -0.55445115716E+02  0.55445115716E+02  0.00000000000E+00 0.  1.
         25    2    1    2    0    0 -0.11114955623E+02  0.24110464858E+02  0.20218529810E+02  0.12937978936E+03  0.12500193676E+03 0.  0.
          5    1    3    3  501    0 -0.16654201772E+02 -0.22538104535E+02 -0.42568147498E+02  0.50964554095E+02  0.10000000000E+00 0. -1.
         -5    1    3    3    0  501  0.55392461495E+01  0.46648569393E+02  0.62786677308E+02  0.78415235265E+02  0.10000000000E+00 0. -1.
         21    1    1    2  504  503  0.11114955623E+02 -0.24110464858E+02  0.20297247688E+03  0.20470144876E+03  0.00000000000E+00 0.  1.
<mgrwt>
<rscale>  1 0.12779022E+03</rscale>
<asrwt>0</asrwt>
<pdfrwt beam="1">  1       21 0.42867095E-01 0.12779022E+03</pdfrwt>
<pdfrwt beam="2">  1       21 0.85300180E-02 0.12779022E+03</pdfrwt>
<totfact> 0.56572139E+05</totfact>
</mgrwt>
</event>
<event>
 6    1  0.4187588E-002  0.1317980E+03  0.7546771E-02  0.1224812E+00
         21   -1    0    0  504  502  0.00000000000E+00  0.00000000000E+00  0.52009564964E+03  0.52009564964E+03  0.00000000000E+00 0.  1.
         21   -1    0    0  502  503 -0.00000000000E+00 -0.00000000000E+00 -0.46239675617E+03  0.46239675617E+03  0.00000000000E+00 0. -1.
         25    2    1    2    0    0  0.35955284563E+02  0.21292858595E+02 -0.45213287234E+03  0.47095101183E+03  0.12499821188E+03 0.  0.
          5    1    3    3  501    0  0.12896370873E+02  0.28468230387E+02 -0.17838695547E+02  0.35985908102E+02  0.10000000000E+00 0.  1.
         -5    1    3    3    0  501  0.23058913690E+02 -0.71753717921E+01 -0.43429417680E+03  0.43496510373E+03  0.10000000000E+00 0.  1.
         21    1    1    2  504  503 -0.35955284563E+02 -0.21292858595E+02  0.50983176582E+03  0.51154139398E+03  0.00000000000E+00 0.  1.
<mgrwt>
<rscale>  1 0.13179803E+03</rscale>
<asrwt>0</asrwt>
<pdfrwt beam="1">  1       21 0.80014716E-01 0.13179803E+03</pdfrwt>
<pdfrwt beam="2">  1       21 0.71137962E-01 0.13179803E+03</pdfrwt>
<totfact> 0.26114987E+03</totfact>
</mgrwt>
</event>
<event>
 6    1  0.4187588E-002  0.1288209E+03  0.7546771E-02  0.1229216E+00
         21   -1    0    0  504  502  0.00000000000E+00  0.00000000000E+00  0.10664826528E+03  0.10664826528E+03  0.00000000000E+00 0. -1.
         21   -1    0    0  502  503 -0.00000000000E+00 -0.00000000000E+00 -0.10986006967E+03  0.10986006967E+03  0.00000000000E+00 0. -1.
         25    2    1    2    0    0 -0.10036329978E+02 -0.29459408202E+02 -0.67242577214E+02  0.14531476418E+03  0.12500492729E+03 0.  0.
          5    1    3    3  501    0  0.10061858455E+02  0.15582444728E+02 -0.89356648020E+02  0.91261569812E+02  0.10000000000E+00 0. -1.
         -5    1    3    3    0  501 -0.20098188434E+02 -0.45041852929E+02  0.22114070806E+02  0.54053194367E+02  0.10000000000E+00 0. -1.
         21    1    1    2  504  503  0.10036329978E+02  0.29459408202E+02  0.64030772824E+02  0.71193570773E+02  0.00000000000E+00 0. -1.
<mgrwt>
<rscale>  1 0.12882087E+03</rscale>
<asrwt>0</asrwt>
<pdfrwt beam="1">  1       21 0.16407425E-01 0.12882087E+03</pdfrwt>
<pdfrwt beam="2">  1       21 0.16901549E-01 0.12882087E+03</pdfrwt>
<totfact> 0.10503730E+06</totfact>
</mgrwt>
</event>
<event>
 6    1  0.4187588E-002  0.1293054E+03  0.7546771E-02  0.1228490E+00
         21   -1    0    0  503  502  0.00000000000E+00  0.00000000000E+00  0.39071042863E+02  0.39071042863E+02  0.00000000000E+00 0.  1.
         21   -1    0    0  504  503 -0.00000000000E+00 -0.00000000000E+00 -0.44692970350E+03  0.44692970350E+03  0.00000000000E+00 0.  1.
         25    2    1    2    0    0  0.29528630960E+02  0.14907777182E+02 -0.42811272912E+03  0.44721403269E+03  0.12500280132E+03 0.  0.
          5    1    3    3  501    0  0.58765848177E+02 -0.37091594945E+02 -0.24132071188E+03  0.25112727313E+03  0.10000000000E+00 0. -1.
         -5    1    3    3    0  501 -0.29237217217E+02  0.51999372127E+02 -0.18679201724E+03  0.19608675956E+03  0.10000000000E+00 0. -1.
         21    1    1    2  504  502 -0.29528630960E+02 -0.14907777182E+02  0.20254068484E+02  0.38786713667E+02  0.00000000000E+00 0.  1.
<mgrwt>
<rscale>  1 0.12930538E+03</rscale>
<asrwt>0</asrwt>
<pdfrwt beam="1">  1       21 0.60109299E-02 0.12930538E+03</pdfrwt>
<pdfrwt beam="2">  1       21 0.68758413E-01 0.12930538E+03</pdfrwt>
<totfact> 0.38349727E+05</totfact>
</mgrwt>
</event>
