<event>
 6    1  0.4271609E-002  0.1654137E+03  0.7546771E-02  0.1182717E+00
         21   -1    0    0  503  502  0.00000000000E+00  0.00000000000E+00  0.10343526341E+03  0.10343526341E+03  0.00000000000E+00 0. -1.
         21   -1    0    0  504  503 -0.00000000000E+00 -0.00000000000E+00 -0.33784808143E+03  0.33784808143E+03  0.00000000000E+00 0. -1.
         25    2    1    2    0    0 -0.20035316959E+02 -0.10647439317E+03  0.18205023975E+02  0.16641249441E+03  0.12499394014E+03 0.  0.
          5    1    3    3  501    0  0.32199814046E+01 -0.76831181732E+01 -0.45716074133E+02  0.46469000627E+02  0.10000000000E+00 0.  1.
         -5    1    3    3    0  501 -0.23255298364E+02 -0.98791274997E+02  0.63921098108E+02  0.11994349378E+03  0.10000000000E+00 0.  1.
         21    1    1    2  504  502  0.20035316959E+02  0.10647439317E+03 -0.25261784199E+03  0.27487085043E+03  0.00000000000E+00 0. -1.
<mgrwt>
<rscale>  1 0.16541371E+03</rscale>
<asrwt>0</asrwt>
<pdfrwt beam="1">  1       21 0.15913117E-01 0.16541371E+03</pdfrwt>
<pdfrwt beam="2">  1       21 0.51976628E-01 0.16541371E+03</pdfrwt>
<totfact> 0.12496901E+05</totfact>
</mgrwt>
</event>
<event>
 6    1  0.4271609E-002  0.1269623E+03  0.7546771E-02  0.1232034E+00
         21   -1    0    0  503  502  0.00000000000E+00  0.00000000000E+00  0.18942441331E+03  0.18942441331E+03  0.00000000000E+00 0.  1.
         21   -1    0    0  504  503 -0.00000000000E+00 -0.00000000000E+00 -0.30832364970E+02  0.30832364970E+02  0.00000000000E+00 0.  1.
         25    2    1    2    0    0 -0.13404451678E+02 -0.17867996059E+02  0.14950859151E+03  0.19614342522E+03  0.12498191755E+03 0.  0.
          5    1    3    3  501    0 -0.25975896180E+01  0.42446552982E+02  0.12158153230E+03  0.12880425586E+03  0.10000000000E+00 0.  1.
         -5    1    3    3    0  501 -0.10806862060E+02 -0.60314549041E+02  0.27927059208E+02  0.67339169356E+02  0.10000000000E+00 0.  1.
         21    1    1    2  504  502  0.13404451678E+02  0.17867996059E+02  0.90834568337E+01  0.24113353064E+02  0.00000000000E+00 0. -1.
<mgrwt>
<rscale>  1 0.12696229E+03</rscale>
<asrwt>0</asrwt>
<pdfrwt beam="1">  1       21 0.29142217E-01 0.12696229E+03</pdfrwt>
<pdfrwt beam="2">  1       21 0.47434409E-02 0.12696229E+03</pdfrwt>
<totfact> 0.32799713E+06</totfact>
</mgrwt>
</event>
<event>
 6    1  0.4271609E-002  0.1314327E+03  0.7546771E-02  0.1225345E+00
         21   -1    0    0  504  502  0.00000000000E+00  0.00000000000E+00  0.44710894815E+03  0.44710894815E+03  0.00000000000E+00 0.  1.
         21   -1    0    0  502  503 -0.00000000000E+00 -0.00000000000E+00 -0.31899537054E+02  0.31899537054E+02  0.00000000000E+00 0. -1.
         25    2    1    2    0    0  0.36835635456E+02 -0.17115432802E+02  0.41811579919E+03  0.43828687950E+03  0.12499906050E+03 0.  0.
          5    1    3    3  501    0 -0.31657361196E+02 -0.19446730265E+01  0.29408929945E+03  0.29579468609E+03  0.10000000000E+00 0. -1.
         -5    1    3    3    0  501  0.68492996652E+02 -0.15170759775E+02  0.12402649974E+03  0.14249219340E+03  0.10000000000E+00 0. -1.
         21    1    1    2  504  503 -0.36835635456E+02  0.17115432802E+02 -0.29063880966E+01  0.40721605705E+02  0.00000000000E+00 0. -1.
<mgrwt>
<rscale>  1 0.13143275E+03</rscale>
<asrwt>0</asrwt>
<pdfrwt beam="1">  1       21 0.68785988E-01 0.13143275E+03</pdfrwt>
<pdfrwt beam="2">  1       21 0.49076214E-02 0.13143275E+03</pdfrwt>
<totfact> 0.53933500E+05</totfact>
</mgrwt>
</event>
<event>
 6    1  0.4271609E-002  0.1272402E+03  0.7546771E-02  0.1231609E+00
         21   -1    0    0  504  502  0.00000000000E+00  0.00000000000E+00  0.13116417901E+03  0.13116417901E+03  0.00000000000E+00 0. -1.
         21   -1    0    0  502  503 -0.00000000000E+00 -0.00000000000E+00 -0.47226194906E+02  0.47226194906E+02  0.00000000000E+00 0. -1.
         25    2    1    2    0    0 -0.14099083824E+02 -0.19122206781E+02  0.87421917190E+02  0.15437827808E+03  0.12500247270E+03 0.  0.
          5    1    3    3  501    0 -0.39906442326E+02  0.31340053172E+02  0.83315531201E+02  0.97551067709E+02  0.10000000000E+00 0.  1.
         -5    1    3    3    0  501  0.25807358502E+02 -0.50462259953E+02  0.41063859892E+01  0.56827210368E+02  0.10000000000E+00 0.  1.
         21    1    1    2  504  503  0.14099083824E+02  0.19122206781E+02 -0.34839330853E+01  0.24012095839E+02  0.00000000000E+00 0. -1.
<mgrwt>
<rscale>  1 0.12724017E+03</rscale>
<asrwt>0</asrwt>
<pdfrwt beam="1">  1       21 0.20179104E-01 0.12724017E+03</pdfrwt>
<pdfrwt beam="2">  1       21 0.72655685E-02 0.12724017E+03</pdfrwt>
<totfact> 0.31845874E+06</totfact>
</mgrwt>
</event>
<event>
 6    1  0.4271609E-002  0.1270439E+03  0.7546771E-02  0.1231909E+00
         21   -1    0    0  504  502  0.00000000000E+00  0.00000000000E+00  0.14331951338E+02  0.14331951338E+02  0.00000000000E+00 0.  1.
         21   -1    0    0  502  503 -0.00000000000E+00 -0.00000000000E+00 -0.44439692295E+03  0.44439692295E+03  0.00000000000E+00 0.  1.
         25    2    1    2    0    0 -0.22675851036E+02 -0.12953908914E+00 -0.28677849071E+03  0.31365914413E+03  0.12500377977E+03 0.  0.
          5    1    3    3  501    0  0.25727063980E+01  0.57689018362E+02 -0.89275565628E+02  0.10632393087E+03  0.10000000000E+00 0.  1.
         -5    1    3    3    0  501 -0.25248557434E+02 -0.57818557451E+02 -0.19750292508E+03  0.20733521325E+03  0.10000000000E+00 0.  1.
         21    1    1    2  504  503  0.22675851036E+02  0.12953908914E+00 -0.14328648090E+03  0.14506973017E+03  0.00000000000E+00 0.  1.
<mgrwt>
<rscale>  1 0.12704391E+03</rscale>
<asrwt>0</asrwt>
<pdfrwt beam="1">  1       21 0.22049157E-02 0.12704391E+03</pdfrwt>
<pdfrwt beam="2">  1       21 0.68368753E-01 0.12704391E+03</pdfrwt>
<totfact> 0.20414673E+06</totfact>
</mgrwt>
</event>
<event>
 6    1  0.4271609E-002  0.1269698E+03  0.7546771E-02  0.1232023E+00
         21   -1    0    0  504  502  0.00000000000E+00  0.00000000000E+00  0.17746840405E+03  0.17746840405E+03  0.00000000000E+00 0.  1.
         21   -1    0    0  502  503 -0.00000000000E+00 -0.00000000000E+00 -0.46305454767E+02  0.46305454767E+02  0.00000000000E+00 0.  1.
         25    2    1    2    0    0 -0.22335311777E+02  0.95969712178E+00  0.14857470005E+03  0.19543737641E+03  0.12498615697E+03 0.  0.
          5    1    3    3  501    0  0.51593039996E+02 -0.63577019984E+01  0.71372017707E+02  0.88296302654E+02  0.10000000000E+00 0. -1.
         -5    1    3    3    0  501 -0.73928351773E+02  0.73173991202E+01  0.77202682340E+02  0.10714107376E+03  0.10000000000E+00 0. -1.
         21    1    1    2  504  503  0.22335311777E+02 -0.95969712178E+00 -0.17411750760E+02  0.28336482408E+02  0.00000000000E+00 0.  1.
<mgrwt>
<rscale>  1 0.12696979E+03</rscale>
<asrwt>0</asrwt>
<pdfrwt beam="1">  1       21 0.27302831E-01 0.12696979E+03</pdfrwt>
<pdfrwt beam="2">  1       21 0.71239162E-02 0.12696979E+03</pdfrwt>
<totfact> 0.18670572E+06</totfact>
</mgrwt>
</event>
<event>
 6    1  0.4271609E-002  0.1278450E+03  0.7546771E-02  0.1230689E+00
         21   -1    0    0  503  502  0.00000000000E+00  0.00000000000E+00  0.32506366078E+02  0.32506366078E+02  0.00000000000E+00 0.  1.
         21   -1    0    0  504  503 -0.00000000000E+00 -0.00000000000E+00 -0.29228652844E+03  0.29228652844E+03  0.00000000000E+00 0.  1.
         25    2    1    2    0    0 -0.26189109488E+02 -0.60351595029E+01 -0.98768385951E+02  0.16155354648E+03  0.12498824629E+03 0.  0.
          5    1    3    3  501    0  0.58666091581E+01  0.22018978927E+00  0.29045351990E+02  0.29632888127E+02  0.10000000000E+00 0. -1.
         -5    1    3    3    0  501 -0.32055718646E+02 -0.62553492922E+01 -0.12781373794E+03  0.13192065835E+03  0.10000000000E+00 0. -1.
         21    1    1    2  504  502  0.26189109488E+02  0.60351595029E+01 -0.16101177641E+03  0.16323934804E+03  0.00000000000E+00 0.  1.
<mgrwt>
<rscale>  1 0.12784504E+03</rscale>
<asrwt>0</asrwt>
<pdfrwt beam="1">  1       21 0.50009793E-02 0.12784504E+03</pdfrwt>
<pdfrwt beam="2">  1       21 0.44967159E-01 0.12784504E+03</pdfrwt>
<totfact> 0.12754564E+06</totfact>
</mgrwt>
</event>
<event>
 6    1  0.4271609E-002  0.1780326E+03  0.7546771E-02  0.1169721E+00
         21   -1    0    0  503  502  0.00000000000E+00  0.00000000000E+00  0.10602728650E+02  0.10602728650E+02  0.00000000000E+00 0.  1.
         21   -1    0    0  504  503 -0.00000000000E+00 -0.00000000000E+00 -0.22527892668E+04  0.22527892668E+04  0.00000000000E+00 0. -1.
         25    2    1    2    0    0  0.62244072078E+02 -0.11042230797E+03 -0.14901956938E+04  0.15007927294E+04  0.12501280002E+03 0.  0.
          5    1    3    3  501    0  0.39787410184E+02 -0.13364345123E+03 -0.10197676014E+04  0.10292568100E+04  0.10000000000E+00 0.  1.
         -5    1    3    3    0  501  0.22456661895E+02  0.23221143261E+02 -0.47042809242E+03  0.47153591941E+03  0.10000000000E+00 0.  1.
         21    1    1    2  504  502 -0.62244072078E+02  0.11042230797E+03 -0.75199084435E+03  0.76259926605E+03  0.00000000000E+00 0.  1.
<mgrwt>
<rscale>  1 0.17803261E+03</rscale>
<asrwt>0</asrwt>
<pdfrwt beam="1">  1       21 0.16311864E-02 0.17803261E+03</pdfrwt>
<pdfrwt beam="2">  1       21 0.34658351E+00 0.17803261E+03</pdfrwt>
<totfact> 0.31886885E+04</totfact>
</mgrwt>
</event>
<event>
 6    1  0.4271609E-002  0.1267909E+03  0.7546771E-02  0.1232297E+00
         21   -1    0    0  503  502  0.00000000000E+00  0.00000000000E+00  0.77095317866E+02  0.77095317866E+02  0.00000000000E+00 0. -1.
         21   -1    0    0  504  503 -0.00000000000E+00 -0.00000000000E+00 -0.98123220430E+02  0.98123220430E+02  0.00000000000E+00 0. -1.
         25    2    1    2    0    0  0.42501244466E+01 -0.21084106854E+02  0.20513216267E+02  0.12843961491E+03  0.12495334936E+03 0.  0.
          5    1    3    3  501    0  0.21908782907E+02 -0.64322529895E+02 -0.15217056206E+02  0.69634412614E+02  0.10000000000E+00 0.  1.
         -5    1    3    3    0  501 -0.17658658460E+02  0.43238423041E+02  0.35730272473E+02  0.58805202293E+02  0.10000000000E+00 0.  1.
         21    1    1    2  504  502 -0.42501244466E+01  0.21084106854E+02 -0.41541118831E+02  0.46778923388E+02  0.00000000000E+00 0. -1.
<mgrwt>
<rscale>  1 0.12679094E+03</rscale>
<asrwt>0</asrwt>
<pdfrwt beam="1">  1       21 0.11860818E-01 0.12679094E+03</pdfrwt>
<pdfrwt beam="2">  1       21 0.15095880E-01 0.12679094E+03</pdfrwt>
<totfact> 0.23048057E+06</totfact>
</mgrwt>
</event>
<event>
 6    1  0.4271609E-002  0.1259193E+03  0.7546771E-02  0.1233640E+00
         21   -1    0    0  504  502  0.00000000000E+00  0.00000000000E+00  0.71360787292E+02  0.71360787292E+02  0.00000000000E+00 0. -1.
         21   -1    0    0  502  503 -0.00000000000E+00 -0.00000000000E+00 -0.73635906154E+02  0.73635906154E+02  0.00000000000E+00 0. -1.
         25    2    1    2    0    0  0.14837971029E+02 -0.30640364042E+01  0.88044845279E+01  0.12622673568E+03  0.12500446451E+03 0.  0.
          5    1    3    3  501    0 -0.11700233357E+00 -0.55564917505E+02  0.35008290002E+02  0.65673922646E+02  0.10000000000E+00 0.  1.
         -5    1    3    3    0  501  0.14954973363E+02  0.52500881101E+02 -0.26203805474E+02  0.60552813031E+02  0.10000000000E+00 0.  1.
         21    1    1    2  504  503 -0.14837971029E+02  0.30640364042E+01 -0.11079603391E+02  0.18769957769E+02  0.00000000000E+00 0. -1.
<mgrwt>
<rscale>  1 0.12591930E+03</rscale>
<asrwt>0</asrwt>
<pdfrwt beam="1">  1       21 0.10978583E-01 0.12591930E+03</pdfrwt>
<pdfrwt beam="2">  1       21 0.11328601E-01 0.12591930E+03</pdfrwt>
<totfact> 0.44053707E+06</totfact>
</mgrwt>
</event>
<event>
 6    1  0.4271609E-002  0.1356446E+03  0.7546771E-02  0.1219313E+00
         21   -1    0    0  504  502  0.00000000000E+00  0.00000000000E+00  0.72071711863E+02  0.72071711863E+02  0.00000000000E+00 0. -1.
         21   -1    0    0  502  503 -0.00000000000E+00 -0.00000000000E+00 -0.11565026481E+04  0.11565026481E+04  0.00000000000E+00 0.  1.
         25    2    1    2    0    0  0.43289299803E+02  0.30013271153E+02  0.70456437838E+01  0.13582741549E+03  0.12499874311E+03 0.  0.
          5    1    3    3  501    0 -0.22447390215E+02  0.17902175831E+02 -0.43432900913E+02  0.52065344603E+02  0.10000000000E+00 0. -1.
         -5    1    3    3    0  501  0.65736690018E+02  0.12111095322E+02  0.50478544696E+02  0.83762070886E+02  0.10000000000E+00 0. -1.
         21    1    1    2  504  503 -0.43289299803E+02 -0.30013271153E+02 -0.10914765800E+04  0.10927469445E+04  0.00000000000E+00 0.  1.
<mgrwt>
<rscale>  1 0.13564456E+03</rscale>
<asrwt>0</asrwt>
<pdfrwt beam="1">  1       21 0.11087956E-01 0.13564456E+03</pdfrwt>
<pdfrwt beam="2">  1       21 0.17792348E+00 0.13564456E+03</pdfrwt>
<totfact> 0.13333198E+04</totfact>
</mgrwt>
</event>
<event>
 6    1  0.4271609E-002  0.1284590E+03  0.7546771E-02  0.1229760E+00
         21   -1    0    0  503  502  0.00000000000E+00  0.00000000000E+00  0.22562738007E+03  0.22562738007E+03  0.00000000000E+00 0.  1.
         21   -1    0    0  504  503 -0.00000000000E+00 -0.00000000000E+00 -0.27742536391E+02  0.27742536391E+02  0.00000000000E+00 0.  1.
         25    2    1    2    0    0  0.10614080708E+02  0.27668984650E+02  0.15652446313E+03  0.20248855937E+03  0.12499391063E+03 0.  0.
          5    1    3    3  501    0  0.46773287458E+01  0.22163176984E+02 -0.17283336908E+02  0.28492236713E+02  0.10000000000E+00 0. -1.
         -5    1    3    3    0  501  0.59367519625E+01  0.55058076661E+01  0.17380780004E+03  0.17399632265E+03  0.10000000000E+00 0. -1.
         21    1    1    2  504  502 -0.10614080708E+02 -0.27668984650E+02  0.41360380545E+02  0.50881357094E+02  0.00000000000E+00 0.  1.
<mgrwt>
<rscale>  1 0.12845898E+03</rscale>
<asrwt>0</asrwt>
<pdfrwt beam="1">  1       21 0.34711903E-01 0.12845898E+03</pdfrwt>
<pdfrwt beam="2">  1       21 0.42680827E-02 0.12845898E+03</pdfrwt>
<totfact> 0.27873501E+06</totfact>
</mgrwt>
</event>
<event>
 6    1  0.4271609E-002  0.1261690E+03  0.7546771E-02  0.1233254E+00
         21   -1    0    0  504  502  0.00000000000E+00  0.00000000000E+00  0.27972638192E+03  0.27972638192E+03  0.00000000000E+00 0. -1.
         21   -1    0    0  502  503 -0.00000000000E+00 -0.00000000000E+00 -0.86372479202E+02  0.86372479202E+02  0.00000000000E+00 0. -1.
         25    2    1    2    0    0  0.29268464773E+01 -0.16878769850E+02  0.26442985736E+03  0.29298764017E+03  0.12500059412E+03 0.  0.
          5    1    3    3  501    0  0.18138019922E+02  0.26229325507E+02  0.84946857818E+01  0.33002044934E+02  0.10000000000E+00 0.  1.
         -5    1    3    3    0  501 -0.15211173445E+02 -0.43108095357E+02  0.25593517157E+03  0.25998559524E+03  0.10000000000E+00 0.  1.
         21    1    1    2  504  503 -0.29268464773E+01  0.16878769850E+02 -0.71075954635E+02  0.73111220953E+02  0.00000000000E+00 0. -1.
<mgrwt>
<rscale>  1 0.12616897E+03</rscale>
<asrwt>0</asrwt>
<pdfrwt beam="1">  1       21 0.43034828E-01 0.12616897E+03</pdfrwt>
<pdfrwt beam="2">  1       21 0.13288074E-01 0.12616897E+03</pdfrwt>
<totfact> 0.25770670E+05</totfact>
</mgrwt>
</event>
<event>
 6    1  0.4271609E-002  0.1998918E+03  0.7546771E-02  0.1149830E+00
         21   -1    0    0  503  502  0.00000000000E+00  0.00000000000E+00  0.59122763528E+03  0.59122763528E+03  0.00000000000E+00 0.  1.
         21   -1    0    0  504  503 -0.00000000000E+00 -0.00000000000E+00 -0.54212526915E+02  0.54212526915E+02  0.00000000000E+00 0.  1.
         25    2    1    2    0    0  0.27262149443E+02  0.15358795230E+03  0.33652350312E+03  0.39141384927E+03  0.12499699742E+03 0.  0.
          5    1    3    3  501    0 -0.17775608807E+02 -0.86847052835E+01  0.63603740819E+01  0.20781259172E+02  0.10000000000E+00 0.  1.
         -5    1    3    3    0  501  0.45037758249E+02  0.16227265758E+03  0.33016312904E+03  0.37063259010E+03  0.10000000000E+00 0.  1.
         21    1    1    2  504  502 -0.27262149443E+02 -0.15358795230E+03  0.20049160525E+03  0.25402631293E+03  0.00000000000E+00 0.  1.
<mgrwt>
<rscale>  1 0.19989180E+03</rscale>
<asrwt>0</asrwt>
<pdfrwt beam="1">  1       21 0.90958093E-01 0.19989180E+03</pdfrwt>
<pdfrwt beam="2">  1       21 0.83403892E-02 0.19989180E+03</pdfrwt>
<totfact> 0.11405956E+05</totfact>
</mgrwt>
</event>
<event>
 6    1  0.4271609E-002  0.1335250E+03  0.7546771E-02  0.1222317E+00
         21   -1    0    0  504  502  0.00000000000E+00  0.00000000000E+00  0.39686635918E+03  0.39686635918E+03  0.00000000000E+00 0.  1.
         21   -1    0    0  502  503 -0.00000000000E+00 -0.00000000000E+00 -0.21654027499E+02  0.21654027499E+02  0.00000000000E+00 0.  1.
         25    2    1    2    0    0  0.39987559550E+02  0.24594523975E+02  0.31528837299E+03  0.34239695827E+03  0.12500009343E+03 0.  0.
          5    1    3    3  501    0 -0.33259818495E+02  0.14582878488E+02  0.21365629585E+03  0.21672078495E+03  0.10000000000E+00 0. -1.
         -5    1    3    3    0  501  0.73247378045E+02  0.10011645487E+02  0.10163207714E+03  0.12567617332E+03  0.10000000000E+00 0. -1.
         21    1    1    2  504  503 -0.39987559550E+02 -0.24594523975E+02  0.59923958684E+02  0.76123428409E+02  0.00000000000E+00 0.  1.
<mgrwt>
<rscale>  1 0.13352497E+03</rscale>
<asrwt>0</asrwt>
<pdfrwt beam="1">  1       21 0.61056358E-01 0.13352497E+03</pdfrwt>
<pdfrwt beam="2">  1       21 0.33313891E-02 0.13352497E+03</pdfrwt>
<totfact> 0.13279255E+06</totfact>
</mgrwt>
</event>
<event>
 6    1  0.4271609E-002  0.1261254E+03  0.7546771E-02  0.1233321E+00
         21   -1    0    0  504  502  0.00000000000E+00  0.00000000000E+00  0.68745799130E+02  0.68745799130E+02  0.00000000000E+00 0. -1.
         21   -1    0    0  502  503 -0.00000000000E+00 -0.00000000000E+00 -0.75106697633E+02  0.75106697633E+02  0.00000000000E+00 0. -1.
         25    2    1    2    0    0  0.15733246908E+02  0.59142890694E+01 -0.10438980277E+02  0.12655669888E+03  0.12500044739E+03 0.  0.
          5    1    3    3  501    0  0.17771490783E+02  0.37432428112E+02  0.45981320846E+02  0.61897531661E+02  0.10000000000E+00 0.  1.
         -5    1    3    3    0  501 -0.20382438753E+01 -0.31518139042E+02 -0.56420301122E+02  0.64659167219E+02  0.10000000000E+00 0.  1.
         21    1    1    2  504  503 -0.15733246908E+02 -0.59142890694E+01  0.40780817732E+01  0.17295797883E+02  0.00000000000E+00 0. -1.
<mgrwt>
<rscale>  1 0.12612544E+03</rscale>
<asrwt>0</asrwt>
<pdfrwt beam="1">  1       21 0.10576277E-01 0.12612544E+03</pdfrwt>
<pdfrwt beam="2">  1       21 0.11554877E-01 0.12612544E+03</pdfrwt>
<totfact> 0.45431012E+06</totfact>
</mgrwt>
</event>
<event>
 6    1  0.4271609E-002  0.1303603E+03  0.7546771E-02  0.1226922E+00
         21   -1    0    0  503  502  0.00000000000E+00  0.00000000000E+00  0.85783046187E+03  0.85783046187E+03  0.00000000000E+00 0. -1.
         21   -1    0    0  504  503 -0.00000000000E+00 -0.00000000000E+00 -0.86104933616E+01  0.86104933616E+01  0.00000000000E+00 0. -1.
         25    2    1    2    0    0  0.36422048276E+02 -0.64523644305E+01  0.73220182242E+03  0.74371587580E+03  0.12500238620E+03 0.  0.
          5    1    3    3  501    0  0.37336753391E+02 -0.52919305962E+02  0.60188543482E+03  0.60535987045E+03  0.10000000000E+00 0. -1.
         -5    1    3    3    0  501 -0.91470511525E+00  0.46466941532E+02  0.13031638760E+03  0.13835600535E+03  0.10000000000E+00 0. -1.
         21    1    1    2  504  502 -0.36422048276E+02  0.64523644305E+01  0.11701814609E+03  0.12272507944E+03  0.00000000000E+00 0. -1.
<mgrwt>
<rscale>  1 0.13036025E+03</rscale>
<asrwt>0</asrwt>
<pdfrwt beam="1">  1       21 0.13197385E+00 0.13036025E+03</pdfrwt>
<pdfrwt beam="2">  1       21 0.13246920E-02 0.13036025E+03</pdfrwt>
<totfact> 0.10052674E+06</totfact>
</mgrwt>
</event>
<event>
 6    1  0.4271609E-002  0.1294110E+03  0.7546771E-02  0.1228332E+00
         21   -1    0    0  503  502  0.00000000000E+00  0.00000000000E+00  0.98013916508E+01  0.98013916508E+01  0.00000000000E+00 0. -1.
         21   -1    0    0  504  503 -0.00000000000E+00 -0.00000000000E+00 -0.80102028974E+03  0.80102028974E+03  0.00000000000E+00 0. -1.
         25    2    1    2    0    0 -0.30360823172E+02 -0.14154372368E+02 -0.45826644146E+03  0.47618835338E+03  0.12500036274E+03 0.  0.
          5    1    3    3  501    0 -0.29130083432E+02  0.87367419963E+01 -0.18029298498E+02  0.35354745449E+02  0.10000000000E+00 0.  1.
         -5    1    3    3    0  501 -0.12307397400E+01 -0.22891114364E+02 -0.44023714296E+03  0.44083360793E+03  0.10000000000E+00 0.  1.
         21    1    1    2  504  502  0.30360823172E+02  0.14154372368E+02 -0.33295245662E+03  0.33463332801E+03  0.00000000000E+00 0. -1.
<mgrwt>
<rscale>  1 0.12941104E+03</rscale>
<asrwt>0</asrwt>
<pdfrwt beam="1">  1       21 0.15079057E-02 0.12941104E+03</pdfrwt>
<pdfrwt beam="2">  1       21 0.12323395E+00 0.12941104E+03</pdfrwt>
<totfact> 0.96909874E+05</totfact>
</mgrwt>
</event>
<event>
 6    1  0.4271609E-002  0.1325738E+03  0.7546771E-02  0.1223686E+00
         21   -1    0    0  503  502  0.00000000000E+00  0.00000000000E+00  0.22504257460E+04  0.22504257460E+04  0.00000000000E+00 0. -1.
         21   -1    0    0  504  503 -0.00000000000E+00 -0.00000000000E+00 -0.12488478280E+02  0.12488478280E+02  0.00000000000E+00 0.  1.
         25    2    1    2    0    0 -0.40651712413E+02  0.17233710443E+02  0.22019911109E+04  0.22059783947E+04  0.12500505168E+03 0.  0.
          5    1    3    3  501    0  0.32579608281E+02 -0.26649056835E+02  0.46872951921E+03  0.47061552809E+03  0.10000000000E+00 0.  1.
         -5    1    3    3    0  501 -0.73231320694E+02  0.43882767277E+02  0.17332615917E+04  0.17353628666E+04  0.10000000000E+00 0.  1.
         21    1    1    2  504  502  0.40651712413E+02 -0.17233710443E+02  0.35946156797E+02  0.56935829547E+02  0.00000000000E+00 0.  1.
<mgrwt>
<rscale>  1 0.13257385E+03</rscale>
<asrwt>0</asrwt>
<pdfrwt beam="1">  1       21 0.34621902E+00 0.13257385E+03</pdfrwt>
<pdfrwt beam="2">  1       21 0.19213061E-02 0.13257385E+03</pdfrwt>
<totfact> 0.26064650E+04</totfact>
</mgrwt>
</event>
<event>
 6    1  0.4271609E-002  0.1274308E+03  0.7546771E-02  0.1231319E+00
         21   -1    0    0  504  502  0.00000000000E+00  0.00000000000E+00  0.27240472145E+02  0.27240472145E+02  0.00000000000E+00 0.  1.
         21   -1    0    0  502  503 -0.00000000000E+00 -0.00000000000E+00 -0.30358895415E+03  0.30358895415E+03  0.00000000000E+00 0.  1.
         25    2    1    2    0    0 -0.20604292202E+02 -0.13833765959E+02 -0.12871567985E+03  0.18112520388E+03  0.12499081287E+03 0.  0.
          5    1    3    3  501    0 -0.12802845218E+02 -0.69775751963E+02 -0.72582638979E+02  0.10149294502E+03  0.10000000000E+00 0. -1.
         -5    1    3    3    0  501 -0.78014469846E+01  0.55941986004E+02 -0.56133040873E+02  0.79632258858E+02  0.10000000000E+00 0. -1.
         21    1    1    2  504  503  0.20604292202E+02  0.13833765959E+02 -0.14763280215E+03  0.14970422242E+03  0.00000000000E+00 0.  1.
<mgrwt>
<rscale>  1 0.12743082E+03</rscale>
<asrwt>0</asrwt>
<pdfrwt beam="1">  1       21 0.41908418E-02 0.12743082E+03</pdfrwt>
<pdfrwt beam="2">  1       21 0.46705993E-01 0.12743082E+03</pdfrwt>
<totfact> 0.15863760E+06</totfact>
</mgrwt>
</event>
<event>
 6    1  0.4271609E-002  0.1260693E+03  0.7546771E-02  0.1233408E+00
         21   -1    0    0  504  502  0.00000000000E+00  0.00000000000E+00  0.44716904688E+02  0.44716904688E+02  0.00000000000E+00 0.  1.
         21   -1    0    0  502  503 -0.00000000000E+00 -0.00000000000E+00 -0.18081775064E+03  0.18081775064E+03  0.00000000000E+00 0.  1.
         25    2    1    2    0    0 -0.15238991500E+02  0.60300703393E+01 -0.46381244750E+02  0.13433051370E+03  0.12499951374E+03 0.  0.
          5    1    3    3  501    0  0.24054030898E+02 -0.45224402582E+02 -0.47327439075E+02  0.69740515346E+02  0.10000000000E+00 0. -1.
         -5    1    3    3    0  501 -0.39293022398E+02  0.51254472921E+02  0.94619432459E+00  0.64589998354E+02  0.10000000000E+00 0. -1.
         21    1    1    2  504  503  0.15238991500E+02 -0.60300703393E+01 -0.89719601204E+02  0.91204141629E+02  0.00000000000E+00 0.  1.
<mgrwt>
<rscale>  1 0.12606929E+03</rscale>
<asrwt>0</asrwt>
<pdfrwt beam="1">  1       21 0.68795239E-02 0.12606929E+03</pdfrwt>
<pdfrwt beam="2">  1       21 0.27818115E-01 0.12606929E+03</pdfrwt>
<totfact> 0.19120190E+06</totfact>
</mgrwt>
</event>
<event>
 6    1  0.4271609E-002  0.1654766E+03  0.7546771E-02  0.1182649E+00
         21   -1    0    0  504  502  0.00000000000E+00  0.00000000000E+00  0.37300106665E+03  0.37300106665E+03  0.00000000000E+00 0.  1.
         21   -1    0    0  502  503 -0.00000000000E+00 -0.00000000000E+00 -0.76987028783E+02  0.76987028783E+02  0.00000000000E+00 0. -1.
         25    2    1    2    0    0 -0.23856633768E+02 -0.10577888602E+03  0.29875061184E+03  0.34151782052E+03  0.12499672779E+03 0.  0.
          5    1    3    3  501    0 -0.27017250782E+02 -0.12560372073E+03  0.18038031088E+03  0.22145720366E+03  0.10000000000E+00 0. -1.
         -5    1    3    3    0  501  0.31606170141E+01  0.19824834715E+02  0.11837030096E+03  0.12006061686E+03  0.10000000000E+00 0. -1.
         21    1    1    2  504  503  0.23856633768E+02  0.10577888602E+03 -0.27365739762E+01  0.10847027491E+03  0.00000000000E+00 0. -1.
<mgrwt>
<rscale>  1 0.16547657E+03</rscale>
<asrwt>0</asrwt>
<pdfrwt beam="1">  1       21 0.57384779E-01 0.16547657E+03</pdfrwt>
<pdfrwt beam="2">  1       21 0.11844158E-01 0.16547657E+03</pdfrwt>
<totfact> 0.17272176E+05</totfact>
</mgrwt>
</event>
<event>
 6    1  0.4271609E-002  0.1274566E+03  0.7546771E-02  0.1231279E+00
         21   -1    0    0  503  502  0.00000000000E+00  0.00000000000E+00  0.69536827775E+02  0.69536827775E+02  0.00000000000E+00 0. -1.
         21   -1    0    0  504  503 -0.00000000000E+00 -0.00000000000E+00 -0.17285583245E+03  0.17285583245E+03  0.00000000000E+00 0. -1.
         25    2    1    2    0    0 -0.16102717053E+02 -0.19012618451E+02  0.85879405556E+01  0.12774562996E+03  0.12499766436E+03 0.  0.
          5    1    3    3  501    0  0.48926902893E+01 -0.72839470824E+00  0.64814809686E+02  0.65003373233E+02  0.10000000000E+00 0. -1.
         -5    1    3    3    0  501 -0.20995407342E+02 -0.18284223743E+02 -0.56226869130E+02  0.62742256730E+02  0.10000000000E+00 0. -1.
         21    1    1    2  504  502  0.16102717053E+02  0.19012618451E+02 -0.11190694524E+03  0.11464703027E+03  0.00000000000E+00 0. -1.
<mgrwt>
<rscale>  1 0.12745663E+03</rscale>
<asrwt>0</asrwt>
<pdfrwt beam="1">  1       21 0.10697974E-01 0.12745663E+03</pdfrwt>
<pdfrwt beam="2">  1       21 0.26593205E-01 0.12745663E+03</pdfrwt>
<totfact> 0.97021853E+05</totfact>
</mgrwt>
</event>
<event>
 6    1  0.4271609E-002  0.1279882E+03  0.7546771E-02  0.1230472E+00
         21   -1    0    0  504  502  0.00000000000E+00  0.00000000000E+00  0.42227610051E+03  0.42227610051E+03  0.00000000000E+00 0. -1.
         21   -1    0    0  502  503 -0.00000000000E+00 -0.00000000000E+00 -0.69670440112E+02  0.69670440112E+02  0.00000000000E+00 0. -1.
         25    2    1    2    0    0  0.20439111035E+02  0.18400883521E+02  0.40934827225E+03  0.42889042455E+03  0.12499855398E+03 0.  0.
          5    1    3    3  501    0 -0.44471942734E+02  0.36905858882E+02  0.14579172014E+03  0.15682803248E+03  0.10000000000E+00 0. -1.
         -5    1    3    3    0  501  0.64911053770E+02 -0.18504975362E+02  0.26355655212E+03  0.27206239207E+03  0.10000000000E+00 0. -1.
         21    1    1    2  504  503 -0.20439111035E+02 -0.18400883521E+02 -0.56742611856E+02  0.63056116075E+02  0.00000000000E+00 0. -1.
<mgrwt>
<rscale>  1 0.12798823E+03</rscale>
<asrwt>0</asrwt>
<pdfrwt beam="1">  1       21 0.64965552E-01 0.12798823E+03</pdfrwt>
<pdfrwt beam="2">  1       21 0.10718530E-01 0.12798823E+03</pdfrwt>
<totfact> 0.15989099E+05</totfact>
</mgrwt>
</event>
<event>
 6    1  0.4271609E-002  0.1315958E+03  0.7546771E-02  0.1225107E+00
         21   -1    0    0  503  502  0.00000000000E+00  0.00000000000E+00  0.78928507641E+03  0.78928507641E+03  0.00000000000E+00 0.  1.
         21   -1    0    0  504  503 -0.00000000000E+00 -0.00000000000E+00 -0.15898907158E+02  0.15898907158E+02  0.00000000000E+00 0.  1.
         25    2    1    2    0    0  0.23450354720E+02  0.33791732099E+02  0.74164397319E+03  0.75322854780E+03  0.12500264784E+03 0.  0.
          5    1    3    3  501    0  0.39603746704E+02 -0.22835392595E+02  0.11394825544E+03  0.12277673568E+03  0.10000000000E+00 0.  1.
         -5    1    3    3    0  501 -0.16153391984E+02  0.56627124693E+02  0.62769571775E+03  0.63045181212E+03  0.10000000000E+00 0.  1.
         21    1    1    2  504  502 -0.23450354720E+02 -0.33791732099E+02  0.31742196069E+02  0.51955435770E+02  0.00000000000E+00 0.  1.
<mgrwt>
<rscale>  1 0.13159583E+03</rscale>
<asrwt>0</asrwt>
<pdfrwt beam="1">  1       21 0.12142844E+00 0.13159583E+03</pdfrwt>
<pdfrwt beam="2">  1       21 0.24459863E-02 0.13159583E+03</pdfrwt>
<totfact> 0.46066987E+05</totfact>
</mgrwt>
</event>
<event>
 6    1  0.4271609E-002  0.1984591E+03  0.7546771E-02  0.1151046E+00
         21   -1    0    0  504  502  0.00000000000E+00  0.00000000000E+00  0.17117154075E+03  0.17117154075E+03  0.00000000000E+00 0.  1.
         21   -1    0    0  502  503 -0.00000000000E+00 -0.00000000000E+00 -0.20077536673E+03  0.20077536673E+03  0.00000000000E+00 0. -1.
         25    2    1    2    0    0  0.94108416531E+02 -0.12208857085E+03  0.40590993079E+02  0.20256767080E+03  0.12499607730E+03 0.  0.
          5    1    3    3  501    0 -0.96407224791E+01 -0.71020810771E+02  0.48692059043E+02  0.86647710336E+02  0.10000000000E+00 0. -1.
         -5    1    3    3    0  501  0.10374913901E+03 -0.51067760082E+02 -0.81010659640E+01  0.11591996047E+03  0.10000000000E+00 0. -1.
         21    1    1    2  504  503 -0.94108416531E+02  0.12208857085E+03 -0.70194819059E+02  0.16937923668E+03  0.00000000000E+00 0. -1.
<mgrwt>
<rscale>  1 0.19845915E+03</rscale>
<asrwt>0</asrwt>
<pdfrwt beam="1">  1       21 0.26334083E-01 0.19845915E+03</pdfrwt>
<pdfrwt beam="2">  1       21 0.30888518E-01 0.19845915E+03</pdfrwt>
<totfact> 0.13773486E+05</totfact>
</mgrwt>
</event>
<event>
 6    1  0.4271609E-002  0.1375855E+03  0.7546771E-02  0.1216615E+00
         21   -1    0    0  503  502  0.00000000000E+00  0.00000000000E+00  0.84583039758E+02  0.84583039758E+02  0.00000000000E+00 0.  1.
         21   -1    0    0  504  503 -0.00000000000E+00 -0.00000000000E+00 -0.11627551940E+03  0.11627551940E+03  0.00000000000E+00 0.  1.
         25    2    1    2    0    0 -0.40704413767E+02 -0.40612243257E+02 -0.55563715198E+01  0.13769765550E+03  0.12499426973E+03 0.  0.
          5    1    3    3  501    0 -0.83495941730E+02 -0.96647047260E+01  0.34553023476E+01  0.84124478703E+02  0.10000000000E+00 0.  1.
         -5    1    3    3    0  501  0.42791527963E+02 -0.30947538531E+02 -0.90116738675E+01  0.53573176800E+02  0.10000000000E+00 0.  1.
         21    1    1    2  504  502  0.40704413767E+02  0.40612243257E+02 -0.26136108119E+02  0.63160903652E+02  0.00000000000E+00 0.  1.
<mgrwt>
<rscale>  1 0.13758550E+03</rscale>
<asrwt>0</asrwt>
<pdfrwt beam="1">  1       21 0.13012775E-01 0.13758550E+03</pdfrwt>
<pdfrwt beam="2">  1       21 0.17888541E-01 0.13758550E+03</pdfrwt>
<totfact> 0.14386919E+06</totfact>
</mgrwt>
</event>
<event>
 6    1  0.4271609E-002  0.1273821E+03  0.7546771E-02  0.1231393E+00
         21   -1    0    0  504  502  0.00000000000E+00  0.00000000000E+00  0.55871602636E+03  0.55871602636E+03  0.00000000000E+00 0. -1.
         21   -1    0    0  502  503 -0.00000000000E+00 -0.00000000000E+00 -0.31987671728E+02  0.31987671728E+02  0.00000000000E+00 0. -1.
         25    2    1    2    0    0 -0.19780527840E+02 -0.14516897404E+02  0.54526898254E+03  0.55995041411E+03  0.12499677339E+03 0.  0.
          5    1    3    3  501    0  0.55662788278E+01  0.49264407262E+02  0.13165087093E+03  0.14067667574E+03  0.10000000000E+00 0. -1.
         -5    1    3    3    0  501 -0.25346806668E+02 -0.63781304666E+02  0.41361811161E+03  0.41927373837E+03  0.10000000000E+00 0. -1.
         21    1    1    2  504  503  0.19780527840E+02  0.14516897404E+02 -0.18540627907E+02  0.30753283972E+02  0.00000000000E+00 0. -1.
<mgrwt>
<rscale>  1 0.12738211E+03</rscale>
<asrwt>0</asrwt>
<pdfrwt beam="1">  1       21 0.85956305E-01 0.12738211E+03</pdfrwt>
<pdfrwt beam="2">  1       21 0.49211807E-02 0.12738211E+03</pdfrwt>
<totfact> 0.32764314E+05</totfact>
</mgrwt>
</event>
<event>
 6    1  0.4271609E-002  0.1269475E+03  0.7546771E-02  0.1232057E+00
         21   -1    0    0  503  502  0.00000000000E+00  0.00000000000E+00  0.89670033582E+02  0.89670033582E+02  0.00000000000E+00 0.  1.
         21   -1    0    0  504  503 -0.00000000000E+00 -0.00000000000E+00 -0.68822931695E+02  0.68822931695E+02  0.00000000000E+00 0.  1.
         25    2    1    2    0    0 -0.21180569068E+02  0.64052010099E+01  0.35664603688E+02  0.13186212853E+03  0.12500405545E+03 0.  0.
          5    1    3    3  501    0 -0.46981975859E+02 -0.31758038851E+02  0.57607374653E+02  0.80836246212E+02  0.10000000000E+00 0. -1.
         -5    1    3    3    0  501  0.25801406791E+02  0.38163239861E+02 -0.21942770965E+02  0.51025882322E+02  0.10000000000E+00 0. -1.
         21    1    1    2  504  502  0.21180569068E+02 -0.64052010099E+01 -0.14817501800E+02  0.26630836743E+02  0.00000000000E+00 0.  1.
<mgrwt>
<rscale>  1 0.12694746E+03</rscale>
<asrwt>0</asrwt>
<pdfrwt beam="1">  1       21 0.13795390E-01 0.12694746E+03</pdfrwt>
<pdfrwt beam="2">  1       21 0.10588143E-01 0.12694746E+03</pdfrwt>
<totfact> 0.33098507E+06</totfact>
</mgrwt>
</event>
<event>
 6    1  0.4271609E-002  0.1260336E+03  0.7546771E-02  0.1233463E+00
         21   -1    0    0  503  502  0.00000000000E+00  0.00000000000E+00  0.41949708108E+03  0.41949708108E+03  0.00000000000E+00 0. -1.
         21   -1    0    0  504  503 -0.00000000000E+00 -0.00000000000E+00 -0.11014551477E+03  0.11014551477E+03  0.00000000000E+00 0.  1.
         25    2    1    2    0    0 -0.19448161967E+01  0.15998391468E+02  0.40937107964E+03  0.42833300160E+03  0.12499899431E+03 0.  0.
          5    1    3    3  501    0 -0.38452487284E+02 -0.30553841768E+02  0.29993663005E+03  0.30393111567E+03  0.10000000000E+00 0.  1.
         -5    1    3    3    0  501  0.36507671087E+02  0.46552233236E+02  0.10943444959E+03  0.12440188593E+03  0.10000000000E+00 0.  1.
         21    1    1    2  504  502  0.19448161967E+01 -0.15998391468E+02 -0.10001951333E+03  0.10130959425E+03  0.00000000000E+00 0.  1.
<mgrwt>
<rscale>  1 0.12603364E+03</rscale>
<asrwt>0</asrwt>
<pdfrwt beam="1">  1       21 0.64538012E-01 0.12603364E+03</pdfrwt>
<pdfrwt beam="2">  1       21 0.16945464E-01 0.12603364E+03</pdfrwt>
<totfact> 0.71583786E+04</totfact>
</mgrwt>
</event>
<event>
 6    1  0.4271609E-002  0.1399679E+03  0.7546771E-02  0.1213372E+00
         21   -1    0    0  503  502  0.00000000000E+00  0.00000000000E+00  0.50415671000E+03  0.50415671000E+03  0.00000000000E+00 0.  1.
         21   -1    0    0  504  503 -0.00000000000E+00 -0.00000000000E+00 -0.32206174227E+02  0.32206174227E+02  0.00000000000E+00 0.  1.
         25    2    1    2    0    0  0.48292856360E+02 -0.40416935006E+02  0.44738179723E+03  0.46876590557E+03  0.12500109247E+03 0.  0.
          5    1    3    3  501    0  0.62822527889E+01 -0.80996908085E+02  0.27568474497E+03  0.28740573138E+03  0.10000000000E+00 0.  1.
         -5    1    3    3    0  501  0.42010603571E+02  0.40579973079E+02  0.17169705226E+03  0.18136017419E+03  0.10000000000E+00 0.  1.
         21    1    1    2  504  502 -0.48292856360E+02  0.40416935006E+02  0.24568738546E+02  0.67596978663E+02  0.00000000000E+00 0.  1.
<mgrwt>
<rscale>  1 0.13996786E+03</rscale>
<asrwt>0</asrwt>
<pdfrwt beam="1">  1       21 0.77562565E-01 0.13996786E+03</pdfrwt>
<pdfrwt beam="2">  1       21 0.49547964E-02 0.13996786E+03</pdfrwt>
<totfact> 0.40704308E+05</totfact>
</mgrwt>
</event>
<event>
 6    1  0.4271609E-002  0.1275928E+03  0.7546771E-02  0.1231072E+00
         21   -1    0    0  503  502  0.00000000000E+00  0.00000000000E+00  0.73516582610E+02  0.73516582610E+02  0.00000000000E+00 0.  1.
         21   -1    0    0  504  503 -0.00000000000E+00 -0.00000000000E+00 -0.86473956765E+02  0.86473956765E+02  0.00000000000E+00 0.  1.
         25    2    1    2    0    0 -0.20865134055E+02 -0.14804910061E+02  0.66366963519E+01  0.12776528872E+03  0.12500153631E+03 0.  0.
          5    1    3    3  501    0 -0.37721276715E+02 -0.95220192221E+01  0.60025109746E+02  0.71530324808E+02  0.10000000000E+00 0. -1.
         -5    1    3    3    0  501  0.16856142660E+02 -0.52828908389E+01 -0.53388413394E+02  0.56234963908E+02  0.10000000000E+00 0. -1.
         21    1    1    2  504  502  0.20865134055E+02  0.14804910061E+02 -0.19594070507E+02  0.32225250660E+02  0.00000000000E+00 0.  1.
<mgrwt>
<rscale>  1 0.12759280E+03</rscale>
<asrwt>0</asrwt>
<pdfrwt beam="1">  1       21 0.11310243E-01 0.12759280E+03</pdfrwt>
<pdfrwt beam="2">  1       21 0.13303686E-01 0.12759280E+03</pdfrwt>
<totfact> 0.31453347E+06</totfact>
</mgrwt>
</event>
<event>
 6    1  0.4271609E-002  0.1301715E+03  0.7546771E-02  0.1227201E+00
         21   -1    0    0  504  502  0.00000000000E+00  0.00000000000E+00  0.45346894095E+02  0.45346894095E+02  0.00000000000E+00 0.  1.
         21   -1    0    0  502  503 -0.00000000000E+00 -0.00000000000E+00 -0.48289018936E+03  0.48289018936E+03  0.00000000000E+00 0. -1.
         25    2    1    2    0    0  0.36150635164E+02 -0.21234755850E+01 -0.50690511089E+02  0.13969306510E+03  0.12503298346E+03 0.  0.
          5    1    3    3  501    0  0.16087308214E+01 -0.60550491310E+02 -0.12624857964E+02  0.61873637774E+02  0.10000000000E+00 0. -1.
         -5    1    3    3    0  501  0.34541904343E+02  0.58427015725E+02 -0.38065653125E+02  0.77819427330E+02  0.10000000000E+00 0. -1.
         21    1    1    2  504  503 -0.36150635164E+02  0.21234755850E+01 -0.38685278418E+03  0.38854401835E+03  0.00000000000E+00 0. -1.
<mgrwt>
<rscale>  1 0.13017152E+03</rscale>
<asrwt>0</asrwt>
<pdfrwt beam="1">  1       21 0.69764450E-02 0.13017152E+03</pdfrwt>
<pdfrwt beam="2">  1       21 0.74290801E-01 0.13017152E+03</pdfrwt>
<totfact> 0.25114767E+05</totfact>
</mgrwt>
</event>
<event>
 6    1  0.4271609E-002  0.1260795E+03  0.7546771E-02  0.1233392E+00
         21   -1    0    0  503  502  0.00000000000E+00  0.00000000000E+00  0.21837953015E+03  0.21837953015E+03  0.00000000000E+00 0.  1.
         21   -1    0    0  504  503 -0.00000000000E+00 -0.00000000000E+00 -0.49866620056E+02  0.49866620056E+02  0.00000000000E+00 0.  1.
         25    2    1    2    0    0 -0.38946651331E+00  0.16474145681E+02  0.19784435293E+03  0.23460268577E+03  0.12499793207E+03 0.  0.
          5    1    3    3  501    0  0.39437398552E+02  0.53488624815E+01  0.18790472173E+03  0.19207319746E+03  0.10000000000E+00 0. -1.
         -5    1    3    3    0  501 -0.39826865065E+02  0.11125283200E+02  0.99396312028E+01  0.42529488307E+02  0.10000000000E+00 0. -1.
         21    1    1    2  504  502  0.38946651331E+00 -0.16474145681E+02 -0.29331442842E+02  0.33643464436E+02  0.00000000000E+00 0.  1.
<mgrwt>
<rscale>  1 0.12607947E+03</rscale>
<asrwt>0</asrwt>
<pdfrwt beam="1">  1       21 0.33596850E-01 0.12607947E+03</pdfrwt>
<pdfrwt beam="2">  1       21 0.76717878E-02 0.12607947E+03</pdfrwt>
<totfact> 0.11015736E+06</totfact>
</mgrwt>
</event>
<event>
 6    1  0.4271609E-002  0.1262366E+03  0.7546771E-02  0.1233149E+00
         21   -1    0    0  504  502  0.00000000000E+00  0.00000000000E+00  0.99042298036E+02  0.99042298036E+02  0.00000000000E+00 0. -1.
         21   -1    0    0  502  503 -0.00000000000E+00 -0.00000000000E+00 -0.54487606371E+02  0.54487606371E+02  0.00000000000E+00 0. -1.
         25    2    1    2    0    0  0.13309145964E+02  0.11545272319E+02  0.48910351798E+02  0.13538056683E+03  0.12500099473E+03 0.  0.
          5    1    3    3  501    0  0.28381824635E+02 -0.42522664691E+02 -0.12039225109E+02  0.52522927596E+02  0.10000000000E+00 0.  1.
         -5    1    3    3    0  501 -0.15072678670E+02  0.54067937010E+02  0.60949576907E+02  0.82857639237E+02  0.10000000000E+00 0.  1.
         21    1    1    2  504  503 -0.13309145964E+02 -0.11545272319E+02 -0.43556601331E+01  0.18149337575E+02  0.00000000000E+00 0. -1.
<mgrwt>
<rscale>  1 0.12623658E+03</rscale>
<asrwt>0</asrwt>
<pdfrwt beam="1">  1       21 0.15237277E-01 0.12623658E+03</pdfrwt>
<pdfrwt beam="2">  1       21 0.83827087E-02 0.12623658E+03</pdfrwt>
<totfact> 0.41569695E+06</totfact>
</mgrwt>
</event>
<event>
 6    1  0.4271609E-002  0.1336224E+03  0.7546771E-02  0.1222178E+00
         21   -1    0    0  504  502  0.00000000000E+00  0.00000000000E+00  0.12638909677E+03  0.12638909677E+03  0.00000000000E+00 0. -1.
         21   -1    0    0  502  503 -0.00000000000E+00 -0.00000000000E+00 -0.66876014552E+02  0.66876014552E+02  0.00000000000E+00 0. -1.
         25    2    1    2    0    0 -0.47139651714E+02  0.29307291397E+01  0.28108957562E+02  0.13654690452E+03  0.12499683077E+03 0.  0.
          5    1    3    3  501    0 -0.65376144604E+02  0.50490216565E+02  0.15046188240E+02  0.83962491820E+02  0.10000000000E+00 0. -1.
         -5    1    3    3    0  501  0.18236492890E+02 -0.47559487425E+02  0.13062769322E+02  0.52584412704E+02  0.10000000000E+00 0. -1.
         21    1    1    2  504  503  0.47139651714E+02 -0.29307291397E+01  0.31404124653E+02  0.56718206796E+02  0.00000000000E+00 0. -1.
<mgrwt>
<rscale>  1 0.13362239E+03</rscale>
<asrwt>0</asrwt>
<pdfrwt beam="1">  1       21 0.19444476E-01 0.13362239E+03</pdfrwt>
<pdfrwt beam="2">  1       21 0.10288618E-01 0.13362239E+03</pdfrwt>
<totfact> 0.18690500E+06</totfact>
</mgrwt>
</event>
<event>
 6    1  0.4271609E-002  0.1369708E+03  0.7546771E-02  0.1217464E+00
         21   -1    0    0  504  502  0.00000000000E+00  0.00000000000E+00  0.30228988746E+03  0.30228988746E+03  0.00000000000E+00 0. -1.
         21   -1    0    0  502  503 -0.00000000000E+00 -0.00000000000E+00 -0.38797232199E+02  0.38797232199E+02  0.00000000000E+00 0. -1.
         25    2    1    2    0    0  0.68339671094E+01  0.55575180192E+02  0.24746841634E+03  0.28284555380E+03  0.12500274582E+03 0.  0.
          5    1    3    3  501    0 -0.53257698195E+02  0.47886555082E+01  0.65214770354E+02  0.84334393405E+02  0.10000000000E+00 0. -1.
         -5    1    3    3    0  501  0.60091665305E+02  0.50786524683E+02  0.18225364598E+03  0.19851116040E+03  0.10000000000E+00 0. -1.
         21    1    1    2  504  503 -0.68339671094E+01 -0.55575180192E+02  0.16024238919E+02  0.58241565850E+02  0.00000000000E+00 0. -1.
<mgrwt>
<rscale>  1 0.13697076E+03</rscale>
<asrwt>0</asrwt>
<pdfrwt beam="1">  1       21 0.46506135E-01 0.13697076E+03</pdfrwt>
<pdfrwt beam="2">  1       21 0.59688051E-02 0.13697076E+03</pdfrwt>
<totfact> 0.88385725E+05</totfact>
</mgrwt>
</event>
<event>
 6    1  0.4271609E-002  0.1369525E+03  0.7546771E-02  0.1217489E+00
         21   -1    0    0  503  502  0.00000000000E+00  0.00000000000E+00  0.23374891174E+02  0.23374891174E+02  0.00000000000E+00 0.  1.
         21   -1    0    0  504  503 -0.00000000000E+00 -0.00000000000E+00 -0.42983851822E+03  0.42983851822E+03  0.00000000000E+00 0.  1.
         25    2    1    2    0    0  0.38974840332E+02 -0.40156140018E+02 -0.22584935692E+03  0.26412859157E+03  0.12499770839E+03 0.  0.
          5    1    3    3  501    0  0.41388763330E+02 -0.12305456035E+02 -0.23159760625E+03  0.23558844453E+03  0.10000000000E+00 0.  1.
         -5    1    3    3    0  501 -0.24139229978E+01 -0.27850683983E+02  0.57482493242E+01  0.28540147036E+02  0.10000000000E+00 0.  1.
         21    1    1    2  504  502 -0.38974840332E+02  0.40156140018E+02 -0.18061427013E+03  0.18908481783E+03  0.00000000000E+00 0.  1.
<mgrwt>
<rscale>  1 0.13695248E+03</rscale>
<asrwt>0</asrwt>
<pdfrwt beam="1">  1       21 0.35961376E-02 0.13695248E+03</pdfrwt>
<pdfrwt beam="2">  1       21 0.66128993E-01 0.13695248E+03</pdfrwt>
<totfact> 0.98611716E+05</totfact>
</mgrwt>
</event>
<event>
 6    1  0.4271609E-002  0.1403216E+03  0.7546771E-02  0.1212897E+00
         21   -1    0    0  503  502  0.00000000000E+00  0.00000000000E+00  0.16389091065E+03  0.16389091065E+03  0.00000000000E+00 0.  1.
         21   -1    0    0  504  503 -0.00000000000E+00 -0.00000000000E+00 -0.16746799460E+03  0.16746799460E+03  0.00000000000E+00 0.  1.
         25    2    1    2    0    0 -0.59165565991E+02  0.23752973467E+02  0.12494852861E+03  0.18788904419E+03  0.12500156070E+03 0.  0.
          5    1    3    3  501    0 -0.89927791588E+02  0.44580847149E+02  0.10673088796E+03  0.14651263453E+03  0.10000000000E+00 0. -1.
         -5    1    3    3    0  501  0.30762225597E+02 -0.20827873682E+02  0.18217640657E+02  0.41376409667E+02  0.10000000000E+00 0. -1.
         21    1    1    2  504  502  0.59165565991E+02 -0.23752973467E+02 -0.12852561256E+03  0.14346986106E+03  0.00000000000E+00 0.  1.
<mgrwt>
<rscale>  1 0.14032162E+03</rscale>
<asrwt>0</asrwt>
<pdfrwt beam="1">  1       21 0.25213986E-01 0.14032162E+03</pdfrwt>
<pdfrwt beam="2">  1       21 0.25764307E-01 0.14032162E+03</pdfrwt>
<totfact> 0.21604238E+05</totfact>
</mgrwt>
</event>
<event>
 6    1  0.4271609E-002  0.1317647E+03  0.7546771E-02  0.1224860E+00
         21   -1    0    0  503  502  0.00000000000E+00  0.00000000000E+00  0.71727758072E+03  0.71727758072E+03  0.00000000000E+00 0. -1.
         21   -1    0    0  504  503 -0.00000000000E+00 -0.00000000000E+00 -0.16842076390E+02  0.16842076390E+02  0.00000000000E+00 0. -1.
         25    2    1    2    0    0  0.40697459575E+02 -0.89723623973E+01  0.66917304667E+03  0.68202236580E+03  0.12500061824E+03 0.  0.
          5    1    3    3  501    0  0.39462508937E+02  0.16018391178E+02  0.67395050969E+02  0.79724408826E+02  0.10000000000E+00 0. -1.
         -5    1    3    3    0  501  0.12349506381E+01 -0.24990753575E+02  0.60177799570E+03  0.60229795698E+03  0.10000000000E+00 0. -1.
         21    1    1    2  504  502 -0.40697459575E+02  0.89723623973E+01  0.31262457663E+02  0.52097291312E+02  0.00000000000E+00 0. -1.
<mgrwt>
<rscale>  1 0.13176472E+03</rscale>
<asrwt>0</asrwt>
<pdfrwt beam="1">  1       21 0.11035037E+00 0.13176472E+03</pdfrwt>
<pdfrwt beam="2">  1       21 0.25910892E-02 0.13176472E+03</pdfrwt>
<totfact> 0.52845390E+05</totfact>
</mgrwt>
</event>
<event>
 6    1  0.4271609E-002  0.1259176E+03  0.7546771E-02  0.1233642E+00
         21   -1    0    0  504  502  0.00000000000E+00  0.00000000000E+00  0.32118769577E+03  0.32118769577E+03  0.00000000000E+00 0. -1.
         21   -1    0    0  502  503 -0.00000000000E+00 -0.00000000000E+00 -0.16056032104E+02  0.16056032104E+02  0.00000000000E+00 0. -1.
         25    2    1    2    0    0 -0.75883792333E+01  0.13087538270E+02  0.28838149419E+03  0.31467305365E+03  0.12500550927E+03 0.  0.
          5    1    3    3  501    0 -0.44911778966E+02  0.36864878709E+02  0.66005630898E+02  0.87936570790E+02  0.10000000000E+00 0. -1.
         -5    1    3    3    0  501  0.37323399733E+02 -0.23777340439E+02  0.22237586329E+03  0.22673648286E+03  0.10000000000E+00 0. -1.
         21    1    1    2  504  503  0.75883792333E+01 -0.13087538270E+02  0.16750169476E+02  0.22570674222E+02  0.00000000000E+00 0.  1.
<mgrwt>
<rscale>  1 0.12591761E+03</rscale>
<asrwt>0</asrwt>
<pdfrwt beam="1">  1       21 0.49413487E-01 0.12591761E+03</pdfrwt>
<pdfrwt beam="2">  1       21 0.24701590E-02 0.12591761E+03</pdfrwt>
<totfact> 0.33699739E+06</totfact>
</mgrwt>
</event>
<event>
 6    1  0.4271609E-002  0.1272553E+03  0.7546771E-02  0.1231586E+00
         21   -1    0    0  504  502  0.00000000000E+00  0.00000000000E+00  0.60031841527E+03  0.60031841527E+03  0.00000000000E+00 0.  1.
         21   -1    0    0  502  503 -0.00000000000E+00 -0.00000000000E+00 -0.51763380917E+02  0.51763380917E+02  0.00000000000E+00 0.  1.
         25    2    1    2    0    0  0.23450584931E+02 -0.46738496706E+01  0.59036096175E+03  0.60392050085E+03  0.12498852499E+03 0.  0.
          5    1    3    3  501    0  0.82098957747E+01 -0.41243082316E+02  0.67278034473E+02  0.79339385869E+02  0.10000000000E+00 0. -1.
         -5    1    3    3    0  501  0.15240689156E+02  0.36569232645E+02  0.52308292728E+03  0.52458111498E+03  0.10000000000E+00 0. -1.
         21    1    1    2  504  503 -0.23450584931E+02  0.46738496706E+01 -0.41805927392E+02  0.48161295346E+02  0.00000000000E+00 0.  1.
<mgrwt>
<rscale>  1 0.12725528E+03</rscale>
<asrwt>0</asrwt>
<pdfrwt beam="1">  1       21 0.92356675E-01 0.12725528E+03</pdfrwt>
<pdfrwt beam="2">  1       21 0.79635975E-02 0.12725528E+03</pdfrwt>
<totfact> 0.12274245E+05</totfact>
</mgrwt>
</event>
<event>
 6    1  0.4271609E-002  0.1289363E+03  0.7546771E-02  0.1229043E+00
         21   -1    0    0  504  502  0.00000000000E+00  0.00000000000E+00  0.13312616091E+03  0.13312616091E+03  0.00000000000E+00 0.  1.
         21   -1    0    0  502  503 -0.00000000000E+00 -0.00000000000E+00 -0.77026796997E+02  0.77026796997E+02  0.00000000000E+00 0.  1.
         25    2    1    2    0    0  0.17354929620E+02  0.26494181605E+02  0.94879002045E+02  0.16008305102E+03  0.12498569100E+03 0.  0.
          5    1    3    3  501    0 -0.48594676510E+02  0.28950055347E+02  0.19348579589E+02  0.59782320311E+02  0.10000000000E+00 0.  1.
         -5    1    3    3    0  501  0.65949606130E+02 -0.24558737415E+01  0.75530422456E+02  0.10030073071E+03  0.10000000000E+00 0.  1.
         21    1    1    2  504  503 -0.17354929620E+02 -0.26494181605E+02 -0.38779638137E+02  0.50069906881E+02  0.00000000000E+00 0.  1.
<mgrwt>
<rscale>  1 0.12893626E+03</rscale>
<asrwt>0</asrwt>
<pdfrwt beam="1">  1       21 0.20480948E-01 0.12893626E+03</pdfrwt>
<pdfrwt beam="2">  1       21 0.11850276E-01 0.12893626E+03</pdfrwt>
<totfact> 0.13226526E+06</totfact>
</mgrwt>
</event>
<event>
 6    1  0.4271609E-002  0.1267825E+03  0.7546771E-02  0.1232309E+00
         21   -1    0    0  503  502  0.00000000000E+00  0.00000000000E+00  0.24662593519E+03  0.24662593519E+03  0.00000000000E+00 0. -1.
         21   -1    0    0  504  503 -0.00000000000E+00 -0.00000000000E+00 -0.43321858892E+02  0.43321858892E+02  0.00000000000E+00 0. -1.
         25    2    1    2    0    0 -0.11990947774E+02 -0.17441110054E+02  0.22586360949E+03  0.25901386957E+03  0.12500335752E+03 0.  0.
          5    1    3    3  501    0 -0.58948779511E+02 -0.33353590389E+02  0.79281906345E+02  0.10427392422E+03  0.10000000000E+00 0.  1.
         -5    1    3    3    0  501  0.46957831737E+02  0.15912480335E+02  0.14658170314E+03  0.15473994535E+03  0.10000000000E+00 0.  1.
         21    1    1    2  504  502  0.11990947774E+02  0.17441110054E+02 -0.22559533186E+02  0.30933924516E+02  0.00000000000E+00 0. -1.
<mgrwt>
<rscale>  1 0.12678255E+03</rscale>
<asrwt>0</asrwt>
<pdfrwt beam="1">  1       21 0.37942451E-01 0.12678255E+03</pdfrwt>
<pdfrwt beam="2">  1       21 0.66649015E-02 0.12678255E+03</pdfrwt>
<totfact> 0.11032424E+06</totfact>
</mgrwt>
</event>
<event>
 6    1  0.4271609E-002  0.1259177E+03  0.7546771E-02  0.1233642E+00
         21   -1    0    0  503  502  0.00000000000E+00  0.00000000000E+00  0.83672424991E+02  0.83672424991E+02  0.00000000000E+00 0. -1.
         21   -1    0    0  504  503 -0.00000000000E+00 -0.00000000000E+00 -0.59875484657E+02  0.59875484657E+02  0.00000000000E+00 0. -1.
         25    2    1    2    0    0 -0.54743661599E+01 -0.14130086379E+02  0.24893384130E+02  0.12835481204E+03  0.12500259667E+03 0.  0.
          5    1    3    3  501    0  0.20506731864E+02  0.14281811319E+02 -0.43328741820E+02  0.50018856984E+02  0.10000000000E+00 0. -1.
         -5    1    3    3    0  501 -0.25981098024E+02 -0.28411897698E+02  0.68222125950E+02  0.78335955055E+02  0.10000000000E+00 0. -1.
         21    1    1    2  504  502  0.54743661599E+01  0.14130086379E+02 -0.10964437963E+01  0.15193097608E+02  0.00000000000E+00 0. -1.
<mgrwt>
<rscale>  1 0.12591774E+03</rscale>
<asrwt>0</asrwt>
<pdfrwt beam="1">  1       21 0.12872681E-01 0.12591774E+03</pdfrwt>
<pdfrwt beam="2">  1       21 0.92116130E-02 0.12591774E+03</pdfrwt>
<totfact> 0.47751279E+06</totfact>
</mgrwt>
</event>
<event>
 6    1  0.4271609E-002  0.1265424E+03  0.7546771E-02  0.1232678E+00
         21   -1    0    0  503  502  0.00000000000E+00  0.00000000000E+00  0.68424528762E+02  0.68424528762E+02  0.00000000000E+00 0. -1.
         21   -1    0    0  504  503 -0.00000000000E+00 -0.00000000000E+00 -0.11172575936E+03  0.11172575936E+03  0.00000000000E+00 0.  1.
         25    2    1    2    0    0 -0.11097108097E+02 -0.16244180818E+02  0.63928959878E+01  0.12670381550E+03  0.12500387404E+03 0.  0.
          5    1    3    3  501    0  0.39726688356E+02 -0.36470822899E+02  0.35672501733E+02  0.64659632466E+02  0.10000000000E+00 0.  1.
         -5    1    3    3    0  501 -0.50823796453E+02  0.20226642081E+02 -0.29279605745E+02  0.62044183034E+02  0.10000000000E+00 0.  1.
         21    1    1    2  504  502  0.11097108097E+02  0.16244180818E+02 -0.49694126586E+02  0.53446472622E+02  0.00000000000E+00 0.  1.
<mgrwt>
<rscale>  1 0.12654243E+03</rscale>
<asrwt>0</asrwt>
<pdfrwt beam="1">  1       21 0.10526851E-01 0.12654243E+03</pdfrwt>
<pdfrwt beam="2">  1       21 0.17188578E-01 0.12654243E+03</pdfrwt>
<totfact> 0.22475592E+06</totfact>
</mgrwt>
</event>
<event>
 6    1  0.4271609E-002  0.1292398E+03  0.7546771E-02  0.1228588E+00
         21   -1    0    0  504  502  0.00000000000E+00  0.00000000000E+00  0.11064923221E+04  0.11064923221E+04  0.00000000000E+00 0.  1.
         21   -1    0    0  502  503 -0.00000000000E+00 -0.00000000000E+00 -0.29409963087E+02  0.29409963087E+02  0.00000000000E+00 0.  1.
         25    2    1    2    0    0  0.14616045018E+02 -0.29399888433E+02  0.10921550063E+04  0.10997751914E+04  0.12499972643E+03 0.  0.
          5    1    3    3  501    0  0.57488064337E+02 -0.36799402391E+02  0.36549934584E+03  0.37181830961E+03  0.10000000000E+00 0.  1.
         -5    1    3    3    0  501 -0.42872019318E+02  0.73995139583E+01  0.72665566047E+03  0.72795688178E+03  0.10000000000E+00 0.  1.
         21    1    1    2  504  503 -0.14616045018E+02  0.29399888433E+02 -0.15072647266E+02  0.36127093814E+02  0.00000000000E+00 0.  1.
<mgrwt>
<rscale>  1 0.12923975E+03</rscale>
<asrwt>0</asrwt>
<pdfrwt beam="1">  1       21 0.17022956E+00 0.12923975E+03</pdfrwt>
<pdfrwt beam="2">  1       21 0.45246106E-02 0.12923975E+03</pdfrwt>
<totfact> 0.70316187E+04</totfact>
</mgrwt>
</event>
<event>
 6    1  0.4271609E-002  0.1318279E+03  0.7546771E-02  0.1224768E+00
         21   -1    0    0  504  502  0.00000000000E+00  0.00000000000E+00  0.92253409616E+02  0.92253409616E+02  0.00000000000E+00 0. -1.
         21   -1    0    0  502  503 -0.00000000000E+00 -0.00000000000E+00 -0.11722650057E+03  0.11722650057E+03  0.00000000000E+00 0. -1.
         25    2    1    2    0    0 -0.41450075754E+02  0.54951136945E+01  0.34976643454E+02  0.13638903722E+03  0.12502119354E+03 0.  0.
          5    1    3    3  501    0  0.98673815162E+01  0.57107640368E+02  0.68370457821E+01  0.58355830912E+02  0.10000000000E+00 0.  1.
         -5    1    3    3    0  501 -0.51317457270E+02 -0.51612526673E+02  0.28139597672E+02  0.78033206312E+02  0.10000000000E+00 0.  1.
         21    1    1    2  504  503  0.41450075754E+02 -0.54951136945E+01 -0.59949734407E+02  0.73090872959E+02  0.00000000000E+00 0. -1.
<mgrwt>
<rscale>  1 0.13182793E+03</rscale>
<asrwt>0</asrwt>
<pdfrwt beam="1">  1       21 0.14192832E-01 0.13182793E+03</pdfrwt>
<pdfrwt beam="2">  1       21 0.18034846E-01 0.13182793E+03</pdfrwt>
<totfact> 0.12126204E+06</totfact>
</mgrwt>
</event>
<event>
 6    1  0.4271609E-002  0.1266003E+03  0.7546771E-02  0.1232589E+00
         21   -1    0    0  503  502  0.00000000000E+00  0.00000000000E+00  0.24972073838E+03  0.24972073838E+03  0.00000000000E+00 0.  1.
         21   -1    0    0  504  503 -0.00000000000E+00 -0.00000000000E+00 -0.36968358100E+02  0.36968358100E+02  0.00000000000E+00 0.  1.
         25    2    1    2    0    0  0.72337658882E+01  0.18676864185E+02  0.22848874337E+03  0.26121782349E+03  0.12500597120E+03 0.  0.
          5    1    3    3  501    0 -0.54386958322E+02 -0.76718582810E+01  0.68794973292E+02  0.88031568174E+02  0.10000000000E+00 0.  1.
         -5    1    3    3    0  501  0.61620724210E+02  0.26348722466E+02  0.15969377008E+03  0.17318625532E+03  0.10000000000E+00 0.  1.
         21    1    1    2  504  502 -0.72337658882E+01 -0.18676864185E+02 -0.15736363088E+02  0.25471272994E+02  0.00000000000E+00 0.  1.
<mgrwt>
<rscale>  1 0.12660034E+03</rscale>
<asrwt>0</asrwt>
<pdfrwt beam="1">  1       21 0.38418574E-01 0.12660034E+03</pdfrwt>
<pdfrwt beam="2">  1       21 0.56874399E-02 0.12660034E+03</pdfrwt>
<totfact> 0.14087233E+06</totfact>
</mgrwt>
</event>
<event>
 6    1  0.4271609E-002  0.1790796E+03  0.7546771E-02  0.1168697E+00
         21   -1    0    0  503  502  0.00000000000E+00  0.00000000000E+00  0.74176417538E+02  0.74176417538E+02  0.00000000000E+00 0. -1.
         21   -1    0    0  504  503 -0.00000000000E+00 -0.00000000000E+00 -0.66877278004E+03  0.66877278004E+03  0.00000000000E+00 0.  1.
         25    2    1    2    0    0 -0.35830739785E+01  0.12818599036E+03 -0.53551655098E+02  0.18691515010E+03  0.12500002812E+03 0.  0.
          5    1    3    3  501    0  0.19034929194E+02 -0.19216822000E+02 -0.21080181410E+02  0.34292839274E+02  0.10000000000E+00 0.  1.
         -5    1    3    3    0  501 -0.22618003172E+02  0.14740281236E+03 -0.32471473688E+02  0.15262231083E+03  0.10000000000E+00 0.  1.
         21    1    1    2  504  502  0.35830739785E+01 -0.12818599036E+03 -0.54104470740E+03  0.55603404747E+03  0.00000000000E+00 0.  1.
<mgrwt>
<rscale>  1 0.17907957E+03</rscale>
<asrwt>0</asrwt>
<pdfrwt beam="1">  1       21 0.11411757E-01 0.17907957E+03</pdfrwt>
<pdfrwt beam="2">  1       21 0.10288812E+00 0.17907957E+03</pdfrwt>
<totfact> 0.49578581E+04</totfact>
</mgrwt>
</event>
<event>
 6    1  0.4271609E-002  0.1299654E+03  0.7546771E-02  0.1227507E+00
         21   -1    0    0  503  502  0.00000000000E+00  0.00000000000E+00  0.44684447654E+03  0.44684447654E+03  0.00000000000E+00 0. -1.
         21   -1    0    0  504  503 -0.00000000000E+00 -0.00000000000E+00 -0.29312890040E+02  0.29312890040E+02  0.00000000000E+00 0. -1.
         25    2    1    2    0    0  0.31778092613E+02 -0.16012232529E+02  0.42080982179E+03  0.44042243147E+03  0.12499909307E+03 0.  0.
          5    1    3    3  501    0 -0.15219774421E+02  0.16511472477E+02  0.82518640628E+01  0.23924328983E+02  0.10000000000E+00 0.  1.
         -5    1    3    3    0  501  0.46997867035E+02 -0.32523705006E+02  0.41255795773E+03  0.41649810249E+03  0.10000000000E+00 0.  1.
         21    1    1    2  504  502 -0.31778092613E+02  0.16012232529E+02 -0.32782352869E+01  0.35734935110E+02  0.00000000000E+00 0. -1.
<mgrwt>
<rscale>  1 0.12996543E+03</rscale>
<asrwt>0</asrwt>
<pdfrwt beam="1">  1       21 0.68745299E-01 0.12996543E+03</pdfrwt>
<pdfrwt beam="2">  1       21 0.45096757E-02 0.12996543E+03</pdfrwt>
<totfact> 0.62227305E+05</totfact>
</mgrwt>
</event>
<event>
 6    1  0.4271609E-002  0.1269851E+03  0.7546771E-02  0.1231999E+00
         21   -1    0    0  503  502  0.00000000000E+00  0.00000000000E+00  0.10365723971E+04  0.10365723971E+04  0.00000000000E+00 0. -1.
         21   -1    0    0  504  503 -0.00000000000E+00 -0.00000000000E+00 -0.34694654993E+03  0.34694654993E+03  0.00000000000E+00 0.  1.
         25    2    1    2    0    0 -0.17245181057E+02  0.14290337547E+02  0.10323164064E+04  0.10400972975E+04  0.12499446196E+03 0.  0.
          5    1    3    3  501    0  0.28315025311E+02  0.21772531747E+02  0.88488090371E+03  0.88560149478E+03  0.10000000000E+00 0.  1.
         -5    1    3    3    0  501 -0.45560206367E+02 -0.74821942005E+01  0.14743550265E+03  0.15449580277E+03  0.10000000000E+00 0.  1.
         21    1    1    2  504  502  0.17245181057E+02 -0.14290337547E+02 -0.34269055916E+03  0.34342164951E+03  0.00000000000E+00 0.  1.
<mgrwt>
<rscale>  1 0.12698514E+03</rscale>
<asrwt>0</asrwt>
<pdfrwt beam="1">  1       21 0.15947268E+00 0.12698514E+03</pdfrwt>
<pdfrwt beam="2">  1       21 0.53376393E-01 0.12698514E+03</pdfrwt>
<totfact> 0.91725440E+02</totfact>
</mgrwt>
</event>
<event>
 6    1  0.4271609E-002  0.1273247E+03  0.7546771E-02  0.1231480E+00
         21   -1    0    0  503  502  0.00000000000E+00  0.00000000000E+00  0.77525389707E+03  0.77525389707E+03  0.00000000000E+00 0. -1.
         21   -1    0    0  504  503 -0.00000000000E+00 -0.00000000000E+00 -0.30113512191E+03  0.30113512191E+03  0.00000000000E+00 0. -1.
         25    2    1    2    0    0 -0.24188351856E+02  0.12430419514E+01  0.76952710816E+03  0.77998944960E+03  0.12499979909E+03 0.  0.
          5    1    3    3  501    0 -0.38625360594E+02 -0.56117515388E+02  0.42271993066E+03  0.42817431473E+03  0.10000000000E+00 0.  1.
         -5    1    3    3    0  501  0.14437008739E+02  0.57360557339E+02  0.34680717750E+03  0.35181513487E+03  0.10000000000E+00 0.  1.
         21    1    1    2  504  502  0.24188351856E+02 -0.12430419514E+01 -0.29540833300E+03  0.29639956937E+03  0.00000000000E+00 0. -1.
<mgrwt>
<rscale>  1 0.12732467E+03</rscale>
<asrwt>0</asrwt>
<pdfrwt beam="1">  1       21 0.11926983E+00 0.12732467E+03</pdfrwt>
<pdfrwt beam="2">  1       21 0.46328481E-01 0.12732467E+03</pdfrwt>
<totfact> 0.25608448E+03</totfact>
</mgrwt>
</event>
<event>
 6    1  0.4271609E-002  0.1304317E+03  0.7546771E-02  0.1226817E+00
         21   -1    0    0  504  502  0.00000000000E+00  0.00000000000E+00  0.73246270378E+01  0.73246270378E+01  0.00000000000E+00 0. -1.
         21   -1    0    0  502  503 -0.00000000000E+00 -0.00000000000E+00 -0.10434065970E+04  0.10434065970E+04  0.00000000000E+00 0. -1.
         25    2    1    2    0    0  0.16831971058E+02  0.33276242304E+02 -0.65717149987E+03  0.66999014680E+03  0.12498717140E+03 0.  0.
          5    1    3    3  501    0  0.84658522009E+01  0.74679933797E+02 -0.26198592677E+03  0.27255347914E+03  0.10000000000E+00 0.  1.
         -5    1    3    3    0  501  0.83661188570E+01 -0.41403691492E+02 -0.39518557310E+03  0.39743666765E+03  0.10000000000E+00 0.  1.
         21    1    1    2  504  503 -0.16831971058E+02 -0.33276242304E+02 -0.37891047005E+03  0.38074107720E+03  0.00000000000E+00 0.  1.
<mgrwt>
<rscale>  1 0.13043165E+03</rscale>
<asrwt>0</asrwt>
<pdfrwt beam="1">  1       21 0.11268661E-02 0.13043165E+03</pdfrwt>
<pdfrwt beam="2">  1       21 0.16052404E+00 0.13043165E+03</pdfrwt>
<totfact> 0.78522143E+05</totfact>
</mgrwt>
</event>
<event>
 6    1  0.4271609E-002  0.1278197E+03  0.7546771E-02  0.1230727E+00
         21   -1    0    0  503  502  0.00000000000E+00  0.00000000000E+00  0.10294985370E+04  0.10294985370E+04  0.00000000000E+00 0. -1.
         21   -1    0    0  504  503 -0.00000000000E+00 -0.00000000000E+00 -0.58463049323E+01  0.58463049323E+01  0.00000000000E+00 0. -1.
         25    2    1    2    0    0  0.26131541875E+02 -0.57205564129E+01  0.87820710272E+03  0.88746019804E+03  0.12498922195E+03 0.  0.
          5    1    3    3  501    0 -0.26475960009E+02 -0.13752284742E+02  0.71851646639E+03  0.71913560910E+03  0.10000000000E+00 0.  1.
         -5    1    3    3    0  501  0.52607501884E+02  0.80317283291E+01  0.15969063632E+03  0.16832458895E+03  0.10000000000E+00 0.  1.
         21    1    1    2  504  502 -0.26131541875E+02  0.57205564129E+01  0.14544512940E+03  0.14788464393E+03  0.00000000000E+00 0. -1.
<mgrwt>
<rscale>  1 0.12781975E+03</rscale>
<asrwt>0</asrwt>
<pdfrwt beam="1">  1       21 0.15838425E+00 0.12781975E+03</pdfrwt>
<pdfrwt beam="2">  1       21 0.89943235E-03 0.12781975E+03</pdfrwt>
<totfact> 0.11612879E+06</totfact>
</mgrwt>
</event>
<event>
 6    1  0.4271609E-002  0.1270218E+03  0.7546771E-02  0.1231943E+00
         21   -1    0    0  503  502  0.00000000000E+00  0.00000000000E+00  0.46605541154E+03  0.46605541154E+03  0.00000000000E+00 0. -1.
         21   -1    0    0  504  503 -0.00000000000E+00 -0.00000000000E+00 -0.12880433341E+02  0.12880433341E+02  0.00000000000E+00 0. -1.
         25    2    1    2    0    0  0.10731279741E+02 -0.20095034438E+02  0.32861958864E+03  0.35231429915E+03  0.12496223660E+03 0.  0.
          5    1    3    3  501    0 -0.18073747929E+02 -0.15440662920E+01 -0.34642566628E+01  0.18467690141E+02  0.10000000000E+00 0.  1.
         -5    1    3    3    0  501  0.28805027670E+02 -0.18550968146E+02  0.33208384530E+03  0.33384660901E+03  0.10000000000E+00 0.  1.
         21    1    1    2  504  502 -0.10731279741E+02  0.20095034438E+02  0.12455538956E+03  0.12662154572E+03  0.00000000000E+00 0. -1.
<mgrwt>
<rscale>  1 0.12702178E+03</rscale>
<asrwt>0</asrwt>
<pdfrwt beam="1">  1       21 0.71700820E-01 0.12702178E+03</pdfrwt>
<pdfrwt beam="2">  1       21 0.19816055E-02 0.12702178E+03</pdfrwt>
<totfact> 0.21869209E+06</totfact>
</mgrwt>
</event>
<event>
 6    1  0.4271609E-002  0.1368591E+03  0.7546771E-02  0.1217619E+00
         21   -1    0    0  504  502  0.00000000000E+00  0.00000000000E+00  0.13944641775E+03  0.13944641775E+03  0.00000000000E+00 0.  1.
         21   -1    0    0  502  503 -0.00000000000E+00 -0.00000000000E+00 -0.73467669968E+02  0.73467669968E+02  0.00000000000E+00 0.  1.
         25    2    1    2    0    0 -0.48465074036E+02 -0.27476680793E+02  0.75639712005E+02  0.15637060340E+03  0.12500627259E+03 0.  0.
          5    1    3    3  501    0 -0.70443526972E+02  0.22623120987E+02  0.16496359429E+02  0.75803931098E+02  0.10000000000E+00 0. -1.
         -5    1    3    3    0  501  0.21978452936E+02 -0.50099801780E+02  0.59143352576E+02  0.80566672302E+02  0.10000000000E+00 0. -1.
         21    1    1    2  504  503  0.48465074036E+02  0.27476680793E+02 -0.96609642259E+01  0.56543484315E+02  0.00000000000E+00 0.  1.
<mgrwt>
<rscale>  1 0.13685905E+03</rscale>
<asrwt>0</asrwt>
<pdfrwt beam="1">  1       21 0.21453295E-01 0.13685905E+03</pdfrwt>
<pdfrwt beam="2">  1       21 0.11302718E-01 0.13685905E+03</pdfrwt>
<totfact> 0.13204501E+06</totfact>
</mgrwt>
</event>
<event>
 6    1  0.4271609E-002  0.1404147E+03  0.7546771E-02  0.1212772E+00
         21   -1    0    0  504  502  0.00000000000E+00  0.00000000000E+00  0.34991535338E+03  0.34991535338E+03  0.00000000000E+00 0. -1.
         21   -1    0    0  502  503 -0.00000000000E+00 -0.00000000000E+00 -0.27897203873E+03  0.27897203873E+03  0.00000000000E+00 0. -1.
         25    2    1    2    0    0  0.60102315243E+02  0.21881107913E+02  0.33180816052E+03  0.36029562196E+03  0.12500083454E+03 0.  0.
          5    1    3    3  501    0 -0.30549253384E+02  0.46061172287E+01  0.18005296897E+03  0.18268430374E+03  0.10000000000E+00 0.  1.
         -5    1    3    3    0  501  0.90651568627E+02  0.17274990685E+02  0.15175519155E+03  0.17761131822E+03  0.10000000000E+00 0.  1.
         21    1    1    2  504  503 -0.60102315243E+02 -0.21881107913E+02 -0.26086484587E+03  0.26859177015E+03  0.00000000000E+00 0. -1.
<mgrwt>
<rscale>  1 0.14041467E+03</rscale>
<asrwt>0</asrwt>
<pdfrwt beam="1">  1       21 0.53833131E-01 0.14041467E+03</pdfrwt>
<pdfrwt beam="2">  1       21 0.42918775E-01 0.14041467E+03</pdfrwt>
<totfact> 0.17633697E+04</totfact>
</mgrwt>
</event>
<event>
 6    1  0.4271609E-002  0.2338316E+03  0.7546771E-02  0.1123972E+00
         21   -1    0    0  504  502  0.00000000000E+00  0.00000000000E+00  0.53188294928E+03  0.53188294928E+03  0.00000000000E+00 0. -1.
         21   -1    0    0  502  503 -0.00000000000E+00 -0.00000000000E+00 -0.39091317615E+03  0.39091317615E+03  0.00000000000E+00 0. -1.
         25    2    1    2    0    0  0.13776868128E+03  0.14167420452E+03  0.47798524073E+03  0.53211567395E+03  0.12500164133E+03 0.  0.
          5    1    3    3  501    0 -0.11832466628E+02 -0.75844679362E+01  0.65986248465E+01  0.15526856419E+02  0.10000000000E+00 0. -1.
         -5    1    3    3    0  501  0.14960114791E+03  0.14925867245E+03  0.47138661589E+03  0.51658881753E+03  0.10000000000E+00 0. -1.
         21    1    1    2  504  503 -0.13776868128E+03 -0.14167420452E+03 -0.33701546760E+03  0.39068045148E+03  0.00000000000E+00 0. -1.
<mgrwt>
<rscale>  1 0.23383156E+03</rscale>
<asrwt>0</asrwt>
<pdfrwt beam="1">  1       21 0.81828146E-01 0.23383156E+03</pdfrwt>
<pdfrwt beam="2">  1       21 0.60140489E-01 0.23383156E+03</pdfrwt>
<totfact> 0.32620705E+03</totfact>
</mgrwt>
</event>
<event>
 6    1  0.4271609E-002  0.1260369E+03  0.7546771E-02  0.1233458E+00
         21   -1    0    0  503  502  0.00000000000E+00  0.00000000000E+00  0.18468858693E+03  0.18468858693E+03  0.00000000000E+00 0.  1.
         21   -1    0    0  504  503 -0.00000000000E+00 -0.00000000000E+00 -0.29818941017E+02  0.29818941017E+02  0.00000000000E+00 0.  1.
         25    2    1    2    0    0  0.10019786268E+02  0.12655330073E+02  0.15304562717E+03  0.19826312767E+03  0.12499900120E+03 0.  0.
          5    1    3    3  501    0  0.54198706024E+02  0.42745814225E+02  0.10891718037E+03  0.12894830960E+03  0.10000000000E+00 0. -1.
         -5    1    3    3    0  501 -0.44178919755E+02 -0.30090484153E+02  0.44128446793E+02  0.69314818067E+02  0.10000000000E+00 0. -1.
         21    1    1    2  504  502 -0.10019786268E+02 -0.12655330073E+02  0.18240187489E+01  0.16244400281E+02  0.00000000000E+00 0. -1.
<mgrwt>
<rscale>  1 0.12603691E+03</rscale>
<asrwt>0</asrwt>
<pdfrwt beam="1">  1       21 0.28413628E-01 0.12603691E+03</pdfrwt>
<pdfrwt beam="2">  1       21 0.45875295E-02 0.12603691E+03</pdfrwt>
<totfact> 0.36401755E+06</totfact>
</mgrwt>
</event>
<event>
 6    1  0.4271609E-002  0.1287933E+03  0.7546771E-02  0.1229257E+00
         21   -1    0    0  504  502  0.00000000000E+00  0.00000000000E+00  0.60092117270E+01  0.60092117270E+01  0.00000000000E+00 0. -1.
         21   -1    0    0  502  503 -0.00000000000E+00 -0.00000000000E+00 -0.15026786491E+04  0.15026786491E+04  0.00000000000E+00 0.  1.
         25    2    1    2    0    0 -0.23910586392E+02  0.19794279600E+02 -0.72204102053E+03  0.73343776323E+03  0.12499675018E+03 0.  0.
          5    1    3    3  501    0 -0.75260865898E+02  0.53606334256E+01 -0.42133097673E+03  0.42803356910E+03  0.10000000000E+00 0.  1.
         -5    1    3    3    0  501  0.51350279506E+02  0.14433646174E+02 -0.30071004380E+03  0.30540419413E+03  0.10000000000E+00 0.  1.
         21    1    1    2  504  503  0.23910586392E+02 -0.19794279600E+02 -0.77462841686E+03  0.77525009762E+03  0.00000000000E+00 0.  1.
<mgrwt>
<rscale>  1 0.12879331E+03</rscale>
<asrwt>0</asrwt>
<pdfrwt beam="1">  1       21 0.92449407E-03 0.12879331E+03</pdfrwt>
<pdfrwt beam="2">  1       21 0.23118134E+00 0.12879331E+03</pdfrwt>
<totfact> 0.37813699E+05</totfact>
</mgrwt>
</event>
<event>
 6    1  0.4271609E-002  0.1285856E+03  0.7546771E-02  0.1229570E+00
         21   -1    0    0  503  502  0.00000000000E+00  0.00000000000E+00  0.81600451726E+03  0.81600451726E+03  0.00000000000E+00 0. -1.
         21   -1    0    0  504  503 -0.00000000000E+00 -0.00000000000E+00 -0.88350777193E+01  0.88350777193E+01  0.00000000000E+00 0. -1.
         25    2    1    2    0    0 -0.14030057380E+02  0.26709750058E+02  0.74155922711E+03  0.75262496188E+03  0.12499597064E+03 0.  0.
          5    1    3    3  501    0 -0.14280443133E+02 -0.44927257978E+02  0.44702771855E+03  0.44950659697E+03  0.10000000000E+00 0.  1.
         -5    1    3    3    0  501  0.25038575294E+00  0.71637008036E+02  0.29453150856E+03  0.30311836491E+03  0.10000000000E+00 0.  1.
         21    1    1    2  504  502  0.14030057380E+02 -0.26709750058E+02  0.65610212434E+02  0.72214633101E+02  0.00000000000E+00 0.  1.
<mgrwt>
<rscale>  1 0.12858556E+03</rscale>
<asrwt>0</asrwt>
<pdfrwt beam="1">  1       21 0.12553910E+00 0.12858556E+03</pdfrwt>
<pdfrwt beam="2">  1       21 0.13592434E-02 0.12858556E+03</pdfrwt>
<totfact> 0.10925176E+06</totfact>
</mgrwt>
</event>
<event>
 6    1  0.4271609E-002  0.1261366E+03  0.7546771E-02  0.1233304E+00
         21   -1    0    0  503  502  0.00000000000E+00  0.00000000000E+00  0.12692352621E+04  0.12692352621E+04  0.00000000000E+00 0.  1.
         21   -1    0    0  504  503 -0.00000000000E+00 -0.00000000000E+00 -0.40629053733E+01  0.40629053733E+01  0.00000000000E+00 0.  1.
         25    2    1    2    0    0  0.61606254988E+01 -0.15704234206E+02  0.11500050879E+04  0.11569019644E+04  0.12500350708E+03 0.  0.
          5    1    3    3  501    0  0.28295401763E+02  0.43131264930E+02  0.28612500611E+03  0.29073779406E+03  0.10000000000E+00 0. -1.
         -5    1    3    3    0  501 -0.22134776264E+02 -0.58835499136E+02  0.86388008180E+03  0.86616417035E+03  0.10000000000E+00 0. -1.
         21    1    1    2  504  502 -0.61606254988E+01  0.15704234206E+02  0.11516726883E+03  0.11639620306E+03  0.00000000000E+00 0. -1.
<mgrwt>
<rscale>  1 0.12613664E+03</rscale>
<asrwt>0</asrwt>
<pdfrwt beam="1">  1       21 0.19526665E+00 0.12613664E+03</pdfrwt>
<pdfrwt beam="2">  1       21 0.62506338E-03 0.12613664E+03</pdfrwt>
<totfact> 0.11551339E+06</totfact>
</mgrwt>
</event>
<event>
 6    1  0.4271609E-002  0.1275432E+03  0.7546771E-02  0.1231147E+00
         21   -1    0    0  503  502  0.00000000000E+00  0.00000000000E+00  0.21401740050E+03  0.21401740050E+03  0.00000000000E+00 0. -1.
         21   -1    0    0  504  503 -0.00000000000E+00 -0.00000000000E+00 -0.28418197974E+02  0.28418197974E+02  0.00000000000E+00 0. -1.
         25    2    1    2    0    0 -0.24939052814E+02  0.48086160911E+01  0.17036758586E+03  0.21282004023E+03  0.12498870375E+03 0.  0.
          5    1    3    3  501    0 -0.60947264184E+02  0.36822724468E+02  0.62757646643E+02  0.94915827242E+02  0.10000000000E+00 0.  1.
         -5    1    3    3    0  501  0.36008211371E+02 -0.32014108377E+02  0.10760993922E+03  0.11790421298E+03  0.10000000000E+00 0.  1.
         21    1    1    2  504  502  0.24939052814E+02 -0.48086160911E+01  0.15231616664E+02  0.29615558245E+02  0.00000000000E+00 0. -1.
<mgrwt>
<rscale>  1 0.12754315E+03</rscale>
<asrwt>0</asrwt>
<pdfrwt beam="1">  1       21 0.32925753E-01 0.12754315E+03</pdfrwt>
<pdfrwt beam="2">  1       21 0.43720306E-02 0.12754315E+03</pdfrwt>
<totfact> 0.29684264E+06</totfact>
</mgrwt>
</event>
<event>
 6    1  0.4271609E-002  0.1267510E+03  0.7546771E-02  0.1232358E+00
         21   -1    0    0  503  502  0.00000000000E+00  0.00000000000E+00  0.12725735574E+03  0.12725735574E+03  0.00000000000E+00 0. -1.
         21   -1    0    0  504  503 -0.00000000000E+00 -0.00000000000E+00 -0.36082363583E+03  0.36082363583E+03  0.00000000000E+00 0. -1.
         25    2    1    2    0    0 -0.94309576701E+01 -0.18752017407E+02  0.95277872528E+02  0.15856762639E+03  0.12500095211E+03 0.  0.
          5    1    3    3  501    0  0.11886679206E+02 -0.66075731338E+02  0.25981857555E+02  0.71988626438E+02  0.10000000000E+00 0. -1.
         -5    1    3    3    0  501 -0.21317636876E+02  0.47323713931E+02  0.69296014973E+02  0.86578999956E+02  0.10000000000E+00 0. -1.
         21    1    1    2  504  502  0.94309576701E+01  0.18752017407E+02 -0.32884415262E+03  0.32951336518E+03  0.00000000000E+00 0. -1.
<mgrwt>
<rscale>  1 0.12675101E+03</rscale>
<asrwt>0</asrwt>
<pdfrwt beam="1">  1       21 0.19578055E-01 0.12675101E+03</pdfrwt>
<pdfrwt beam="2">  1       21 0.55511329E-01 0.12675101E+03</pdfrwt>
<totfact> 0.75616826E+04</totfact>
</mgrwt>
</event>
<event>
 6    1  0.4271609E-002  0.1318561E+03  0.7546771E-02  0.1224727E+00
         21   -1    0    0  504  502  0.00000000000E+00  0.00000000000E+00  0.16510778866E+02  0.16510778866E+02  0.00000000000E+00 0. -1.
         21   -1    0    0  502  503 -0.00000000000E+00 -0.00000000000E+00 -0.64564927584E+03  0.64564927584E+03  0.00000000000E+00 0. -1.
         25    2    1    2    0    0  0.36641555745E+02  0.20442153241E+02 -0.26892120862E+03  0.29950735574E+03  0.12500221783E+03 0.  0.
          5    1    3    3  501    0  0.89185443824E+01  0.39508079440E+02 -0.26205622020E+03  0.26516768529E+03  0.10000000000E+00 0. -1.
         -5    1    3    3    0  501  0.27723011363E+02 -0.19065926198E+02 -0.68649884179E+01  0.34339670453E+02  0.10000000000E+00 0. -1.
         21    1    1    2  504  503 -0.36641555745E+02 -0.20442153241E+02 -0.36021728835E+03  0.36265269896E+03  0.00000000000E+00 0. -1.
<mgrwt>
<rscale>  1 0.13185613E+03</rscale>
<asrwt>0</asrwt>
<pdfrwt beam="1">  1       21 0.25401200E-02 0.13185613E+03</pdfrwt>
<pdfrwt beam="2">  1       21 0.99330652E-01 0.13185613E+03</pdfrwt>
<totfact> 0.70036681E+05</totfact>
</mgrwt>
</event>
<event>
 6    1  0.4271609E-002  0.1483499E+03  0.7546771E-02  0.1202515E+00
         21   -1    0    0  503  502  0.00000000000E+00  0.00000000000E+00  0.85871455421E+03  0.85871455421E+03  0.00000000000E+00 0.  1.
         21   -1    0    0  504  503 -0.00000000000E+00 -0.00000000000E+00 -0.19394171385E+02  0.19394171385E+02  0.00000000000E+00 0. -1.
         25    2    1    2    0    0  0.69721585041E+02 -0.39005763546E+02  0.32043912526E+03  0.35311319375E+03  0.12500058236E+03 0.  0.
          5    1    3    3  501    0  0.83470884728E+02  0.18604139828E+02  0.14986230553E+03  0.17254629302E+03  0.10000000000E+00 0. -1.
         -5    1    3    3    0  501 -0.13749299687E+02 -0.57609903374E+02  0.17057681973E+03  0.18056690072E+03  0.10000000000E+00 0. -1.
         21    1    1    2  504  502 -0.69721585041E+02  0.39005763546E+02  0.51888125757E+03  0.52499553185E+03  0.00000000000E+00 0.  1.
<mgrwt>
<rscale>  1 0.14834991E+03</rscale>
<asrwt>0</asrwt>
<pdfrwt beam="1">  1       21 0.13210990E+00 0.14834991E+03</pdfrwt>
<pdfrwt beam="2">  1       21 0.29837193E-02 0.14834991E+03</pdfrwt>
<totfact> 0.26886597E+05</totfact>
</mgrwt>
</event>
<event>
 6    1  0.4271609E-002  0.1260493E+03  0.7546771E-02  0.1233438E+00
         21   -1    0    0  503  502  0.00000000000E+00  0.00000000000E+00  0.27737052251E+02  0.27737052251E+02  0.00000000000E+00 0.  1.
         21   -1    0    0  504  503 -0.00000000000E+00 -0.00000000000E+00 -0.19350312162E+03  0.19350312162E+03  0.00000000000E+00 0.  1.
         25    2    1    2    0    0 -0.16230868288E+02 -0.10129463465E+00 -0.12571162047E+03  0.17802200381E+03  0.12499988391E+03 0.  0.
          5    1    3    3  501    0  0.49546554143E+02 -0.19792295997E+02 -0.77640007313E+02  0.94204971970E+02  0.10000000000E+00 0.  1.
         -5    1    3    3    0  501 -0.65777422431E+02  0.19691001362E+02 -0.48071613152E+02  0.83817031845E+02  0.10000000000E+00 0.  1.
         21    1    1    2  504  502  0.16230868288E+02  0.10129463465E+00 -0.40054448904E+02  0.43218170056E+02  0.00000000000E+00 0.  1.
<mgrwt>
<rscale>  1 0.12604929E+03</rscale>
<asrwt>0</asrwt>
<pdfrwt beam="1">  1       21 0.42672389E-02 0.12604929E+03</pdfrwt>
<pdfrwt beam="2">  1       21 0.29769710E-01 0.12604929E+03</pdfrwt>
<totfact> 0.37555679E+06</totfact>
</mgrwt>
</event>
<event>
 6    1  0.4271609E-002  0.1261024E+03  0.7546771E-02  0.1233356E+00
         21   -1    0    0  503  502  0.00000000000E+00  0.00000000000E+00  0.13794828879E+02  0.13794828879E+02  0.00000000000E+00 0. -1.
         21   -1    0    0  504  503 -0.00000000000E+00 -0.00000000000E+00 -0.37053391460E+03  0.37053391460E+03  0.00000000000E+00 0. -1.
         25    2    1    2    0    0 -0.16294238989E+02 -0.34937132883E+01 -0.30778698480E+03  0.33261785061E+03  0.12499639305E+03 0.  0.
          5    1    3    3  501    0 -0.32380527044E+02 -0.58022970415E+02 -0.13057282592E+03  0.14650746225E+03  0.10000000000E+00 0.  1.
         -5    1    3    3    0  501  0.16086288054E+02  0.54529257127E+02 -0.17721415889E+03  0.18611038836E+03  0.10000000000E+00 0.  1.
         21    1    1    2  504  502  0.16294238989E+02  0.34937132883E+01 -0.48952100919E+02  0.51710892867E+02  0.00000000000E+00 0. -1.
<mgrwt>
<rscale>  1 0.12610237E+03</rscale>
<asrwt>0</asrwt>
<pdfrwt beam="1">  1       21 0.21222815E-02 0.12610237E+03</pdfrwt>
<pdfrwt beam="2">  1       21 0.57005213E-01 0.12610237E+03</pdfrwt>
<totfact> 0.32017935E+06</totfact>
</mgrwt>
</event>
<event>
 6    1  0.4271609E-002  0.1265316E+03  0.7546771E-02  0.1232695E+00
         21   -1    0    0  503  502  0.00000000000E+00  0.00000000000E+00  0.23168734634E+03  0.23168734634E+03  0.00000000000E+00 0. -1.
         21   -1    0    0  504  503 -0.00000000000E+00 -0.00000000000E+00 -0.47924012101E+02  0.47924012101E+02  0.00000000000E+00 0. -1.
         25    2    1    2    0    0 -0.12630413270E+02 -0.14997115305E+02  0.21101218905E+03  0.24604141809E+03  0.12500317869E+03 0.  0.
          5    1    3    3  501    0  0.12096052760E+01 -0.18070435571E+02 -0.12547259038E+02  0.22032873076E+02  0.10000000000E+00 0.  1.
         -5    1    3    3    0  501 -0.13840018546E+02  0.30733202658E+01  0.22355944809E+03  0.22400854502E+03  0.10000000000E+00 0.  1.
         21    1    1    2  504  502  0.12630413270E+02  0.14997115305E+02 -0.27248854808E+02  0.33569940351E+02  0.00000000000E+00 0. -1.
<mgrwt>
<rscale>  1 0.12653156E+03</rscale>
<asrwt>0</asrwt>
<pdfrwt beam="1">  1       21 0.35644207E-01 0.12653156E+03</pdfrwt>
<pdfrwt beam="2">  1       21 0.73729250E-02 0.12653156E+03</pdfrwt>
<totfact> 0.10502467E+06</totfact>
</mgrwt>
</event>
<event>
 6    1  0.4271609E-002  0.1263741E+03  0.7546771E-02  0.1232937E+00
         21   -1    0    0  503  502  0.00000000000E+00  0.00000000000E+00  0.21770768935E+02  0.21770768935E+02  0.00000000000E+00 0. -1.
         21   -1    0    0  504  503 -0.00000000000E+00 -0.00000000000E+00 -0.28937575232E+03  0.28937575232E+03  0.00000000000E+00 0. -1.
         25    2    1    2    0    0  0.11209615858E+02  0.14832938271E+02 -0.17022170487E+03  0.21200432802E+03  0.12499893897E+03 0.  0.
          5    1    3    3  501    0  0.63887441389E+02  0.13430343023E+02 -0.55226590343E+02  0.85510031937E+02  0.10000000000E+00 0.  1.
         -5    1    3    3    0  501 -0.52677825531E+02  0.14025952482E+01 -0.11499511453E+03  0.12649429608E+03  0.10000000000E+00 0.  1.
         21    1    1    2  504  502 -0.11209615858E+02 -0.14832938271E+02 -0.97383278517E+02  0.99142193239E+02  0.00000000000E+00 0. -1.
<mgrwt>
<rscale>  1 0.12637407E+03</rscale>
<asrwt>0</asrwt>
<pdfrwt beam="1">  1       21 0.33493492E-02 0.12637407E+03</pdfrwt>
<pdfrwt beam="2">  1       21 0.44519344E-01 0.12637407E+03</pdfrwt>
<totfact> 0.25341739E+06</totfact>
</mgrwt>
</event>
<event>
 6    1  0.4271609E-002  0.1369525E+03  0.7546771E-02  0.1217489E+00
         21   -1    0    0  503  502  0.00000000000E+00  0.00000000000E+00  0.48551946670E+03  0.48551946670E+03  0.00000000000E+00 0. -1.
         21   -1    0    0  504  503 -0.00000000000E+00 -0.00000000000E+00 -0.23583553383E+02  0.23583553383E+02  0.00000000000E+00 0. -1.
         25    2    1    2    0    0 -0.55741761938E+02  0.43098028372E+01  0.41191179911E+03  0.43408215347E+03  0.12502106740E+03 0.  0.
          5    1    3    3  501    0 -0.85237719312E+02  0.21187381823E+02  0.36918269364E+03  0.37948681825E+03  0.10000000000E+00 0.  1.
         -5    1    3    3    0  501  0.29495957374E+02 -0.16877578986E+02  0.42729105464E+02  0.54595335218E+02  0.10000000000E+00 0.  1.
         21    1    1    2  504  502  0.55741761938E+02 -0.43098028372E+01  0.50024114206E+02  0.75020866607E+02  0.00000000000E+00 0. -1.
<mgrwt>
<rscale>  1 0.13695249E+03</rscale>
<asrwt>0</asrwt>
<pdfrwt beam="1">  1       21 0.74695295E-01 0.13695249E+03</pdfrwt>
<pdfrwt beam="2">  1       21 0.36282393E-02 0.13695249E+03</pdfrwt>
<totfact> 0.74457280E+05</totfact>
</mgrwt>
</event>
<event>
 6    1  0.4271609E-002  0.1318423E+03  0.7546771E-02  0.1224747E+00
         21   -1    0    0  504  502  0.00000000000E+00  0.00000000000E+00  0.57840229351E+03  0.57840229351E+03  0.00000000000E+00 0.  1.
         21   -1    0    0  502  503 -0.00000000000E+00 -0.00000000000E+00 -0.47958679197E+02  0.47958679197E+02  0.00000000000E+00 0.  1.
         25    2    1    2    0    0  0.41417197673E+02  0.65001153348E+01  0.55984172744E+03  0.57515662896E+03  0.12499900919E+03 0.  0.
          5    1    3    3  501    0  0.14668605909E+02 -0.52460401106E+02  0.38263044418E+03  0.38648845843E+03  0.10000000000E+00 0. -1.
         -5    1    3    3    0  501  0.26748591763E+02  0.58960516440E+02  0.17721128325E+03  0.18866817053E+03  0.10000000000E+00 0. -1.
         21    1    1    2  504  503 -0.41417197673E+02 -0.65001153348E+01 -0.29398113127E+02  0.51204343740E+02  0.00000000000E+00 0.  1.
<mgrwt>
<rscale>  1 0.13184228E+03</rscale>
<asrwt>0</asrwt>
<pdfrwt beam="1">  1       21 0.88984963E-01 0.13184228E+03</pdfrwt>
<pdfrwt beam="2">  1       21 0.73782587E-02 0.13184228E+03</pdfrwt>
<totfact> 0.15214471E+05</totfact>
</mgrwt>
</event>
<event>
 6    1  0.4271609E-002  0.1323101E+03  0.7546771E-02  0.1224068E+00
         21   -1    0    0  503  502  0.00000000000E+00  0.00000000000E+00  0.13998250656E+02  0.13998250656E+02  0.00000000000E+00 0. -1.
         21   -1    0    0  504  503 -0.00000000000E+00 -0.00000000000E+00 -0.79645462554E+03  0.79645462554E+03  0.00000000000E+00 0. -1.
         25    2    1    2    0    0  0.12513831082E+02  0.41558360756E+02 -0.32439509709E+03  0.35034003403E+03  0.12498906795E+03 0.  0.
          5    1    3    3  501    0  0.67859088437E+02  0.23660617757E+02 -0.14651718634E+03  0.16319306545E+03  0.10000000000E+00 0.  1.
         -5    1    3    3    0  501 -0.55345257355E+02  0.17897743000E+02 -0.17787791075E+03  0.18714696858E+03  0.10000000000E+00 0.  1.
         21    1    1    2  504  502 -0.12513831082E+02 -0.41558360756E+02 -0.45806127779E+03  0.46011284217E+03  0.00000000000E+00 0. -1.
<mgrwt>
<rscale>  1 0.13231009E+03</rscale>
<asrwt>0</asrwt>
<pdfrwt beam="1">  1       21 0.21535770E-02 0.13231009E+03</pdfrwt>
<pdfrwt beam="2">  1       21 0.12253148E+00 0.13231009E+03</pdfrwt>
<totfact> 0.55389692E+05</totfact>
</mgrwt>
</event>
<event>
 6    1  0.4271609E-002  0.1626889E+03  0.7546771E-02  0.1185694E+00
         21   -1    0    0  503  502  0.00000000000E+00  0.00000000000E+00  0.51649108065E+02  0.51649108065E+02  0.00000000000E+00 0. -1.
         21   -1    0    0  504  503 -0.00000000000E+00 -0.00000000000E+00 -0.37031266049E+03  0.37031266049E+03  0.00000000000E+00 0. -1.
         25    2    1    2    0    0 -0.38996724004E+02 -0.96548530429E+02 -0.13752595534E+03  0.21302830477E+03  0.12500122812E+03 0.  0.
          5    1    3    3  501    0  0.32254788955E+02  0.17343143404E+01 -0.62411507147E+02  0.70275070125E+02  0.10000000000E+00 0.  1.
         -5    1    3    3    0  501 -0.71251512958E+02 -0.98282844770E+02 -0.75114448196E+02  0.14275323465E+03  0.10000000000E+00 0.  1.
         21    1    1    2  504  502  0.38996724004E+02  0.96548530429E+02 -0.18113759708E+03  0.20893346378E+03  0.00000000000E+00 0. -1.
<mgrwt>
<rscale>  1 0.16268888E+03</rscale>
<asrwt>0</asrwt>
<pdfrwt beam="1">  1       21 0.79460166E-02 0.16268888E+03</pdfrwt>
<pdfrwt beam="2">  1       21 0.56971179E-01 0.16268888E+03</pdfrwt>
<totfact> 0.35387470E+05</totfact>
</mgrwt>
</event>
<event>
 6    1  0.4271609E-002  0.1298564E+03  0.7546771E-02  0.1227669E+00
         21   -1    0    0  503  502  0.00000000000E+00  0.00000000000E+00  0.77940392766E+02  0.77940392766E+02  0.00000000000E+00 0.  1.
         21   -1    0    0  504  503 -0.00000000000E+00 -0.00000000000E+00 -0.89623050099E+02  0.89623050099E+02  0.00000000000E+00 0.  1.
         25    2    1    2    0    0 -0.11547885188E+02 -0.33243680045E+02  0.18216203047E+01  0.12986912725E+03  0.12499670394E+03 0.  0.
          5    1    3    3  501    0 -0.58142723495E+02  0.15604217034E+02 -0.10885325905E+02  0.61176533121E+02  0.10000000000E+00 0.  1.
         -5    1    3    3    0  501  0.46594838307E+02 -0.48847897079E+02  0.12706946210E+02  0.68692594127E+02  0.10000000000E+00 0.  1.
         21    1    1    2  504  502  0.11547885188E+02  0.33243680045E+02 -0.13504277638E+02  0.37694315617E+02  0.00000000000E+00 0.  1.
<mgrwt>
<rscale>  1 0.12985635E+03</rscale>
<asrwt>0</asrwt>
<pdfrwt beam="1">  1       21 0.11990830E-01 0.12985635E+03</pdfrwt>
<pdfrwt beam="2">  1       21 0.13788161E-01 0.12985635E+03</pdfrwt>
<totfact> 0.26627091E+06</totfact>
</mgrwt>
</event>
<event>
 6    1  0.4271609E-002  0.1353816E+03  0.7546771E-02  0.1219682E+00
         21   -1    0    0  503  502  0.00000000000E+00  0.00000000000E+00  0.16091875213E+02  0.16091875213E+02  0.00000000000E+00 0.  1.
         21   -1    0    0  504  503 -0.00000000000E+00 -0.00000000000E+00 -0.56445848617E+03  0.56445848617E+03  0.00000000000E+00 0. -1.
         25    2    1    2    0    0  0.47797590691E+02  0.20458660612E+02 -0.34418857556E+03  0.36985665808E+03  0.12500002206E+03 0.  0.
          5    1    3    3  501    0 -0.31987812475E+02  0.38605910290E+02 -0.92664071744E+02  0.10535785044E+03  0.10000000000E+00 0.  1.
         -5    1    3    3    0  501  0.79785403165E+02 -0.18147249679E+02 -0.25152450381E+03  0.26449880765E+03  0.10000000000E+00 0.  1.
         21    1    1    2  504  502 -0.47797590691E+02 -0.20458660612E+02 -0.20417803540E+03  0.21069370330E+03  0.00000000000E+00 0. -1.
<mgrwt>
<rscale>  1 0.13538158E+03</rscale>
<asrwt>0</asrwt>
<pdfrwt beam="1">  1       21 0.24756733E-02 0.13538158E+03</pdfrwt>
<pdfrwt beam="2">  1       21 0.86839759E-01 0.13538158E+03</pdfrwt>
<totfact> 0.99521101E+05</totfact>
</mgrwt>
</event>
<event>
 6    1  0.4271609E-002  0.1305064E+03  0.7546771E-02  0.1226706E+00
         21   -1    0    0  503  502  0.00000000000E+00  0.00000000000E+00  0.83462675138E+02  0.83462675138E+02  0.00000000000E+00 0.  1.
         21   -1    0    0  504  503 -0.00000000000E+00 -0.00000000000E+00 -0.84808791977E+02  0.84808791977E+02  0.00000000000E+00 0.  1.
         25    2    1    2    0    0 -0.72840071846E+01  0.36721503110E+02  0.32946882529E+01  0.13054796485E+03  0.12502156056E+03 0.  0.
          5    1    3    3  501    0 -0.52849617812E+02  0.17250987273E+02 -0.36915577240E+02  0.66734162973E+02  0.10000000000E+00 0.  1.
         -5    1    3    3    0  501  0.45565610628E+02  0.19470515836E+02  0.40210265492E+02  0.63813801875E+02  0.10000000000E+00 0.  1.
         21    1    1    2  504  502  0.72840071846E+01 -0.36721503110E+02 -0.46408050917E+01  0.37723502266E+02  0.00000000000E+00 0.  1.
<mgrwt>
<rscale>  1 0.13050638E+03</rscale>
<asrwt>0</asrwt>
<pdfrwt beam="1">  1       21 0.12840412E-01 0.13050638E+03</pdfrwt>
<pdfrwt beam="2">  1       21 0.13047506E-01 0.13050638E+03</pdfrwt>
<totfact> 0.26029009E+06</totfact>
</mgrwt>
</event>
<event>
 6    1  0.4271609E-002  0.1382751E+03  0.7546771E-02  0.1215669E+00
         21   -1    0    0  503  502  0.00000000000E+00  0.00000000000E+00  0.24995272280E+03  0.24995272280E+03  0.00000000000E+00 0.  1.
         21   -1    0    0  504  503 -0.00000000000E+00 -0.00000000000E+00 -0.43374387851E+02  0.43374387851E+02  0.00000000000E+00 0.  1.
         25    2    1    2    0    0  0.85726841453E+01  0.58485389216E+02  0.97272186980E+02  0.16906180717E+03  0.12500393841E+03 0.  0.
          5    1    3    3  501    0  0.31631301784E+02  0.85934009348E+02  0.36649108692E+02  0.98632450964E+02  0.10000000000E+00 0. -1.
         -5    1    3    3    0  501 -0.23058617639E+02 -0.27448620132E+02  0.60623078289E+02  0.70429356208E+02  0.10000000000E+00 0. -1.
         21    1    1    2  504  502 -0.85726841453E+01 -0.58485389216E+02  0.10930614797E+03  0.12426530348E+03  0.00000000000E+00 0.  1.
<mgrwt>
<rscale>  1 0.13827515E+03</rscale>
<asrwt>0</asrwt>
<pdfrwt beam="1">  1       21 0.38454264E-01 0.13827515E+03</pdfrwt>
<pdfrwt beam="2">  1       21 0.66729829E-02 0.13827515E+03</pdfrwt>
<totfact> 0.10728263E+06</totfact>
</mgrwt>
</event>
<event>
 6    1  0.4271609E-002  0.1274541E+03  0.7546771E-02  0.1231283E+00
         21   -1    0    0  504  502  0.00000000000E+00  0.00000000000E+00  0.57654165480E+02  0.57654165480E+02  0.00000000000E+00 0.  1.
         21   -1    0    0  502  503 -0.00000000000E+00 -0.00000000000E+00 -0.10639738990E+03  0.10639738990E+03  0.00000000000E+00 0.  1.
         25    2    1    2    0    0 -0.24235206383E+02  0.56746071459E+01 -0.25467540625E+02  0.12997364683E+03  0.12500002740E+03 0.  0.
          5    1    3    3  501    0  0.46784616616E+02  0.10971928072E+02 -0.33096953793E+02  0.58348966639E+02  0.10000000000E+00 0.  1.
         -5    1    3    3    0  501 -0.71019822999E+02 -0.52973209263E+01  0.76294131671E+01  0.71624680195E+02  0.10000000000E+00 0.  1.
         21    1    1    2  504  503  0.24235206383E+02 -0.56746071459E+01 -0.23275683792E+02  0.34077908543E+02  0.00000000000E+00 0.  1.
<mgrwt>
<rscale>  1 0.12745412E+03</rscale>
<asrwt>0</asrwt>
<pdfrwt beam="1">  1       21 0.88698718E-02 0.12745412E+03</pdfrwt>
<pdfrwt beam="2">  1       21 0.16368829E-01 0.12745412E+03</pdfrwt>
<totfact> 0.33128229E+06</totfact>
</mgrwt>
</event>
<event>
 6    1  0.4271609E-002  0.1358552E+03  0.7546771E-02  0.1219017E+00
         21   -1    0    0  504  502  0.00000000000E+00  0.00000000000E+00  0.11752653537E+02  0.11752653537E+02  0.00000000000E+00 0.  1.
         21   -1    0    0  502  503 -0.00000000000E+00 -0.00000000000E+00 -0.11753971366E+04  0.11753971366E+04  0.00000000000E+00 0.  1.
         25    2    1    2    0    0  0.38004123270E+02  0.37212994437E+02 -0.41612559448E+03  0.43774095037E+03  0.12501003522E+03 0.  0.
          5    1    3    3  501    0  0.59142822898E+01 -0.40085827838E+02 -0.63559492307E+02  0.75376862437E+02  0.10000000000E+00 0. -1.
         -5    1    3    3    0  501  0.32089840980E+02  0.77298822275E+02 -0.35256610218E+03  0.36236408793E+03  0.10000000000E+00 0. -1.
         21    1    1    2  504  503 -0.38004123270E+02 -0.37212994437E+02 -0.74751888855E+03  0.74940883974E+03  0.00000000000E+00 0.  1.
<mgrwt>
<rscale>  1 0.13585518E+03</rscale>
<asrwt>0</asrwt>
<pdfrwt beam="1">  1       21 0.18081000E-02 0.13585518E+03</pdfrwt>
<pdfrwt beam="2">  1       21 0.18083038E+00 0.13585518E+03</pdfrwt>
<totfact> 0.26684705E+05</totfact>
</mgrwt>
</event>
<event>
 6    1  0.4271609E-002  0.1330097E+03  0.7546771E-02  0.1223057E+00
         21   -1    0    0  503  502  0.00000000000E+00  0.00000000000E+00  0.54233391792E+02  0.54233391792E+02  0.00000000000E+00 0.  1.
         21   -1    0    0  504  503 -0.00000000000E+00 -0.00000000000E+00 -0.16655134237E+03  0.16655134237E+03  0.00000000000E+00 0.  1.
         25    2    1    2    0    0 -0.26162517416E+02 -0.37226961547E+02 -0.46771726716E+02  0.14099356018E+03  0.12498506154E+03 0.  0.
          5    1    3    3  501    0  0.27899856895E+02  0.63978483204E+01 -0.63400369830E+02  0.69562571635E+02  0.10000000000E+00 0.  1.
         -5    1    3    3    0  501 -0.54062374311E+02 -0.43624809868E+02  0.16628643114E+02  0.71430988541E+02  0.10000000000E+00 0.  1.
         21    1    1    2  504  502  0.26162517416E+02  0.37226961547E+02 -0.65546223866E+02  0.79791173990E+02  0.00000000000E+00 0.  1.
<mgrwt>
<rscale>  1 0.13300973E+03</rscale>
<asrwt>0</asrwt>
<pdfrwt beam="1">  1       21 0.83435988E-02 0.13300973E+03</pdfrwt>
<pdfrwt beam="2">  1       21 0.25623283E-01 0.13300973E+03</pdfrwt>
<totfact> 0.16068185E+06</totfact>
</mgrwt>
</event>
<event>
 6    1  0.4271609E-002  0.1553536E+03  0.7546771E-02  0.1194045E+00
         21   -1    0    0  504  502  0.00000000000E+00  0.00000000000E+00  0.10669720610E+03  0.10669720610E+03  0.00000000000E+00 0.  1.
         21   -1    0    0  502  503 -0.00000000000E+00 -0.00000000000E+00 -0.20125727432E+03  0.20125727432E+03  0.00000000000E+00 0.  1.
         25    2    1    2    0    0 -0.85927394595E+02 -0.33570634309E+02  0.24566378917E+02  0.15728392909E+03  0.12499689095E+03 0.  0.
          5    1    3    3  501    0 -0.18178562816E+02  0.36318732561E+02 -0.25368263188E+02  0.47886002736E+02  0.10000000000E+00 0. -1.
         -5    1    3    3    0  501 -0.67748831779E+02 -0.69889366870E+02  0.49934642105E+02  0.10939792636E+03  0.10000000000E+00 0. -1.
         21    1    1    2  504  503  0.85927394595E+02  0.33570634309E+02 -0.11912644714E+03  0.15067055133E+03  0.00000000000E+00 0.  1.
<mgrwt>
<rscale>  1 0.15535356E+03</rscale>
<asrwt>0</asrwt>
<pdfrwt beam="1">  1       21 0.16414955E-01 0.15535356E+03</pdfrwt>
<pdfrwt beam="2">  1       21 0.30962657E-01 0.15535356E+03</pdfrwt>
<totfact> 0.33599294E+05</totfact>
</mgrwt>
</event>
<event>
 6    1  0.4271609E-002  0.1267839E+03  0.7546771E-02  0.1232307E+00
         21   -1    0    0  503  502  0.00000000000E+00  0.00000000000E+00  0.85040626204E+02  0.85040626204E+02  0.00000000000E+00 0.  1.
         21   -1    0    0  504  503 -0.00000000000E+00 -0.00000000000E+00 -0.64505802332E+02  0.64505802332E+02  0.00000000000E+00 0.  1.
         25    2    1    2    0    0  0.12625946466E+02  0.17058326476E+02  0.15437845810E+02  0.12772029256E+03  0.12499497999E+03 0.  0.
          5    1    3    3  501    0  0.66488114406E+02  0.26984043795E+02  0.12797210511E+02  0.72887492573E+02  0.10000000000E+00 0.  1.
         -5    1    3    3    0  501 -0.53862167939E+02 -0.99257173194E+01  0.26406352993E+01  0.54832799985E+02  0.10000000000E+00 0.  1.
         21    1    1    2  504  502 -0.12625946466E+02 -0.17058326476E+02  0.50969780617E+01  0.21826135977E+02  0.00000000000E+00 0.  1.
<mgrwt>
<rscale>  1 0.12678386E+03</rscale>
<asrwt>0</asrwt>
<pdfrwt beam="1">  1       21 0.13083173E-01 0.12678386E+03</pdfrwt>
<pdfrwt beam="2">  1       21 0.99239696E-02 0.12678386E+03</pdfrwt>
<totfact> 0.40755710E+06</totfact>
</mgrwt>
</event>
<event>
 6    1  0.4271609E-002  0.1275280E+03  0.7546771E-02  0.1231171E+00
         21   -1    0    0  503  502  0.00000000000E+00  0.00000000000E+00  0.25368701320E+02  0.25368701320E+02  0.00000000000E+00 0. -1.
         21   -1    0    0  504  503 -0.00000000000E+00 -0.00000000000E+00 -0.23801258249E+03  0.23801258249E+03  0.00000000000E+00 0. -1.
         25    2    1    2    0    0 -0.23413186564E+02 -0.98062024354E+01 -0.15735490606E+03  0.20254371581E+03  0.12497620350E+03 0.  0.
          5    1    3    3  501    0  0.40830380478E+02 -0.39444919016E+02 -0.70969469798E+02  0.90882876547E+02  0.10000000000E+00 0.  1.
         -5    1    3    3    0  501 -0.64243567042E+02  0.29638716581E+02 -0.86385436266E+02  0.11166083927E+03  0.10000000000E+00 0.  1.
         21    1    1    2  504  502  0.23413186564E+02  0.98062024354E+01 -0.55288975107E+02  0.60837567996E+02  0.00000000000E+00 0. -1.
<mgrwt>
<rscale>  1 0.12752800E+03</rscale>
<asrwt>0</asrwt>
<pdfrwt beam="1">  1       21 0.39028770E-02 0.12752800E+03</pdfrwt>
<pdfrwt beam="2">  1       21 0.36617321E-01 0.12752800E+03</pdfrwt>
<totfact> 0.29105510E+06</totfact>
</mgrwt>
</event>
<event>
 6    1  0.4271609E-002  0.1333545E+03  0.7546771E-02  0.1222561E+00
         21   -1    0    0  503  502  0.00000000000E+00  0.00000000000E+00  0.10827504534E+04  0.10827504534E+04  0.00000000000E+00 0. -1.
         21   -1    0    0  504  503 -0.00000000000E+00 -0.00000000000E+00 -0.20360850475E+02  0.20360850475E+02  0.00000000000E+00 0. -1.
         25    2    1    2    0    0  0.31914731913E+02 -0.33735807060E+02  0.10450747851E+04  0.10535486395E+04  0.12500709724E+03 0.  0.
          5    1    3    3  501    0 -0.32138262375E+02 -0.50734312892E+02  0.66803581992E+03  0.67072997928E+03  0.10000000000E+00 0.  1.
         -5    1    3    3    0  501  0.64052994288E+02  0.16998505831E+02  0.37703896523E+03  0.38281866018E+03  0.10000000000E+00 0.  1.
         21    1    1    2  504  502 -0.31914731913E+02  0.33735807060E+02  0.17314817801E+02  0.49562664442E+02  0.00000000000E+00 0. -1.
<mgrwt>
<rscale>  1 0.13335452E+03</rscale>
<asrwt>0</asrwt>
<pdfrwt beam="1">  1       21 0.16657695E+00 0.13335452E+03</pdfrwt>
<pdfrwt beam="2">  1       21 0.31324394E-02 0.13335452E+03</pdfrwt>
<totfact> 0.13679483E+05</totfact>
</mgrwt>
</event>
<event>
 6    1  0.4271609E-002  0.2039281E+03  0.7546771E-02  0.1146467E+00
         21   -1    0    0  503  502  0.00000000000E+00  0.00000000000E+00  0.10777323047E+03  0.10777323047E+03  0.00000000000E+00 0. -1.
         21   -1    0    0  504  503 -0.00000000000E+00 -0.00000000000E+00 -0.51298551413E+03  0.51298551413E+03  0.00000000000E+00 0.  1.
         25    2    1    2    0    0  0.36224425590E+02 -0.15699932971E+03 -0.22073734354E+02  0.20511930168E+03  0.12500271851E+03 0.  0.
          5    1    3    3  501    0 -0.30706196501E+01 -0.16398602334E+03 -0.18101259468E+02  0.16501063647E+03  0.10000000000E+00 0. -1.
         -5    1    3    3    0  501  0.39295045240E+02  0.69866936252E+01 -0.39724748860E+01  0.40108665210E+02  0.10000000000E+00 0. -1.
         21    1    1    2  504  502 -0.36224425590E+02  0.15699932971E+03 -0.38313854931E+03  0.41563944291E+03  0.00000000000E+00 0.  1.
<mgrwt>
<rscale>  1 0.20392812E+03</rscale>
<asrwt>0</asrwt>
<pdfrwt beam="1">  1       21 0.16580497E-01 0.20392812E+03</pdfrwt>
<pdfrwt beam="2">  1       21 0.78920848E-01 0.20392812E+03</pdfrwt>
<totfact> 0.46056815E+04</totfact>
</mgrwt>
</event>
<event>
 6    1  0.4271609E-002  0.1292090E+03  0.7546771E-02  0.1228634E+00
         21   -1    0    0  503  502  0.00000000000E+00  0.00000000000E+00  0.66808753929E+02  0.66808753929E+02  0.00000000000E+00 0. -1.
         21   -1    0    0  504  503 -0.00000000000E+00 -0.00000000000E+00 -0.99738590742E+02  0.99738590742E+02  0.00000000000E+00 0. -1.
         25    2    1    2    0    0 -0.29157803578E+02  0.14853832091E+02 -0.17568662151E+02  0.13039793908E+03  0.12499660312E+03 0.  0.
          5    1    3    3  501    0 -0.41764335766E+02  0.50811556450E+01  0.47470463026E+02  0.63431323055E+02  0.10000000000E+00 0. -1.
         -5    1    3    3    0  501  0.12606532188E+02  0.97726764464E+01 -0.65039125176E+02  0.66966616030E+02  0.10000000000E+00 0. -1.
         21    1    1    2  504  502  0.29157803578E+02 -0.14853832091E+02 -0.15361174662E+02  0.36149405587E+02  0.00000000000E+00 0. -1.
<mgrwt>
<rscale>  1 0.12920900E+03</rscale>
<asrwt>0</asrwt>
<pdfrwt beam="1">  1       21 0.10278270E-01 0.12920900E+03</pdfrwt>
<pdfrwt beam="2">  1       21 0.15344398E-01 0.12920900E+03</pdfrwt>
<totfact> 0.28816604E+06</totfact>
</mgrwt>
</event>
<event>
 6    1  0.4271609E-002  0.2109847E+03  0.7546771E-02  0.1140789E+00
         21   -1    0    0  504  502  0.00000000000E+00  0.00000000000E+00  0.19817836875E+03  0.19817836875E+03  0.00000000000E+00 0.  1.
         21   -1    0    0  502  503 -0.00000000000E+00 -0.00000000000E+00 -0.19148039679E+03  0.19148039679E+03  0.00000000000E+00 0.  1.
         25    2    1    2    0    0  0.69457078904E+02 -0.15513139692E+03  0.44283837823E+02  0.21558196228E+03  0.12499795217E+03 0.  0.
          5    1    3    3  501    0 -0.27756799277E+02 -0.14068617414E+02 -0.14673335209E+02  0.34404689625E+02  0.10000000000E+00 0. -1.
         -5    1    3    3    0  501  0.97213878181E+02 -0.14106277951E+03  0.58957173032E+02  0.18117727265E+03  0.10000000000E+00 0. -1.
         21    1    1    2  504  503 -0.69457078904E+02  0.15513139692E+03 -0.37585865860E+02  0.17407680326E+03  0.00000000000E+00 0.  1.
<mgrwt>
<rscale>  1 0.21098465E+03</rscale>
<asrwt>0</asrwt>
<pdfrwt beam="1">  1       21 0.30488980E-01 0.21098465E+03</pdfrwt>
<pdfrwt beam="2">  1       21 0.29458523E-01 0.21098465E+03</pdfrwt>
<totfact> 0.11320212E+05</totfact>
</mgrwt>
</event>
<event>
 6    1  0.4271609E-002  0.1320545E+03  0.7546771E-02  0.1224439E+00
         21   -1    0    0  504  502  0.00000000000E+00  0.00000000000E+00  0.63650717762E+03  0.63650717762E+03  0.00000000000E+00 0. -1.
         21   -1    0    0  502  503 -0.00000000000E+00 -0.00000000000E+00 -0.42205693840E+02  0.42205693840E+02  0.00000000000E+00 0. -1.
         25    2    1    2    0    0  0.19335171694E+01  0.42532475865E+02  0.61664746076E+03  0.63062864661E+03  0.12500259627E+03 0.  0.
          5    1    3    3  501    0  0.37654876992E+01  0.54018988526E+02  0.61662341498E+03  0.61899650720E+03  0.10000000000E+00 0.  1.
         -5    1    3    3    0  501 -0.18319705298E+01 -0.11486512661E+02  0.24045776725E-01  0.11632139413E+02  0.10000000000E+00 0.  1.
         21    1    1    2  504  503 -0.19335171694E+01 -0.42532475865E+02 -0.22345976981E+02  0.48084224847E+02  0.00000000000E+00 0. -1.
<mgrwt>
<rscale>  1 0.13205453E+03</rscale>
<asrwt>0</asrwt>
<pdfrwt beam="1">  1       21 0.97924174E-01 0.13205453E+03</pdfrwt>
<pdfrwt beam="2">  1       21 0.64931842E-02 0.13205453E+03</pdfrwt>
<totfact> 0.15180978E+05</totfact>
</mgrwt>
</event>
<event>
 6    1  0.4271609E-002  0.1320601E+03  0.7546771E-02  0.1224431E+00
         21   -1    0    0  504  502  0.00000000000E+00  0.00000000000E+00  0.92081433525E+02  0.92081433525E+02  0.00000000000E+00 0. -1.
         21   -1    0    0  502  503 -0.00000000000E+00 -0.00000000000E+00 -0.48363059753E+03  0.48363059753E+03  0.00000000000E+00 0.  1.
         25    2    1    2    0    0 -0.28896499591E+02 -0.31310084276E+02  0.43149206082E+02  0.13893061888E+03  0.12499813523E+03 0.  0.
          5    1    3    3  501    0  0.42742618505E+02  0.16563632335E+02  0.13043789171E+02  0.47659582339E+02  0.10000000000E+00 0. -1.
         -5    1    3    3    0  501 -0.71639118096E+02 -0.47873716611E+02  0.30105416911E+02  0.91271036540E+02  0.10000000000E+00 0. -1.
         21    1    1    2  504  503  0.28896499591E+02  0.31310084276E+02 -0.43469837009E+03  0.43678141217E+03  0.00000000000E+00 0.  1.
<mgrwt>
<rscale>  1 0.13206007E+03</rscale>
<asrwt>0</asrwt>
<pdfrwt beam="1">  1       21 0.14166374E-01 0.13206007E+03</pdfrwt>
<pdfrwt beam="2">  1       21 0.74404708E-01 0.13206007E+03</pdfrwt>
<totfact> 0.72389912E+04</totfact>
</mgrwt>
</event>
<event>
 6    1  0.4271609E-002  0.1259496E+03  0.7546771E-02  0.1233593E+00
         21   -1    0    0  504  502  0.00000000000E+00  0.00000000000E+00  0.60221311099E+02  0.60221311099E+02  0.00000000000E+00 0.  1.
         21   -1    0    0  502  503 -0.00000000000E+00 -0.00000000000E+00 -0.11690340174E+03  0.11690340174E+03  0.00000000000E+00 0.  1.
         25    2    1    2    0    0  0.58554933635E+00 -0.15440649240E+02 -0.81734446519E+01  0.12621454438E+03  0.12499819798E+03 0.  0.
          5    1    3    3  501    0 -0.34551460256E+02  0.28919824996E+02  0.33322413521E+02  0.56040636385E+02  0.10000000000E+00 0. -1.
         -5    1    3    3    0  501  0.35137009592E+02 -0.44360474236E+02 -0.41495858172E+02  0.70173907993E+02  0.10000000000E+00 0. -1.
         21    1    1    2  504  503 -0.58554933635E+00  0.15440649240E+02 -0.48508645987E+02  0.50910168458E+02  0.00000000000E+00 0.  1.
<mgrwt>
<rscale>  1 0.12594962E+03</rscale>
<asrwt>0</asrwt>
<pdfrwt beam="1">  1       21 0.92648171E-02 0.12594962E+03</pdfrwt>
<pdfrwt beam="2">  1       21 0.17985139E-01 0.12594962E+03</pdfrwt>
<totfact> 0.25859319E+06</totfact>
</mgrwt>
</event>
<event>
 6    1  0.4271609E-002  0.1274521E+03  0.7546771E-02  0.1231286E+00
         21   -1    0    0  503  502  0.00000000000E+00  0.00000000000E+00  0.23235804543E+03  0.23235804543E+03  0.00000000000E+00 0. -1.
         21   -1    0    0  504  503 -0.00000000000E+00 -0.00000000000E+00 -0.34655131629E+02  0.34655131629E+02  0.00000000000E+00 0.  1.
         25    2    1    2    0    0  0.23243298279E+02 -0.88616461530E+01  0.20473343665E+03  0.24116345871E+03  0.12500101617E+03 0.  0.
          5    1    3    3  501    0  0.35417114571E+02  0.53348905230E+02  0.10534126891E+03  0.12327721050E+03  0.10000000000E+00 0. -1.
         -5    1    3    3    0  501 -0.12173816292E+02 -0.62210551383E+02  0.99392167747E+02  0.11788624821E+03  0.10000000000E+00 0. -1.
         21    1    1    2  504  502 -0.23243298279E+02  0.88616461530E+01 -0.70305228513E+01  0.25849718354E+02  0.00000000000E+00 0.  1.
<mgrwt>
<rscale>  1 0.12745208E+03</rscale>
<asrwt>0</asrwt>
<pdfrwt beam="1">  1       21 0.35747391E-01 0.12745208E+03</pdfrwt>
<pdfrwt beam="2">  1       21 0.53315588E-02 0.12745208E+03</pdfrwt>
<totfact> 0.18118562E+06</totfact>
</mgrwt>
</event>
<event>
 6    1  0.4271609E-002  0.1263178E+03  0.7546771E-02  0.1233024E+00
         21   -1    0    0  504  502  0.00000000000E+00  0.00000000000E+00  0.10814034358E+03  0.10814034358E+03  0.00000000000E+00 0. -1.
         21   -1    0    0  502  503 -0.00000000000E+00 -0.00000000000E+00 -0.55269268091E+02  0.55269268091E+02  0.00000000000E+00 0. -1.
         25    2    1    2    0    0  0.17625064597E+02  0.44958223890E+01  0.64488082700E+02  0.14182697566E+03  0.12500129156E+03 0.  0.
          5    1    3    3  501    0 -0.44167711200E+02 -0.26729252670E+02  0.75257710175E+01  0.52171705841E+02  0.10000000000E+00 0.  1.
         -5    1    3    3    0  501  0.61792775797E+02  0.31225075059E+02  0.56962311683E+02  0.89655269814E+02  0.10000000000E+00 0.  1.
         21    1    1    2  504  503 -0.17625064597E+02 -0.44958223890E+01 -0.11617007208E+02  0.21582636018E+02  0.00000000000E+00 0. -1.
<mgrwt>
<rscale>  1 0.12631777E+03</rscale>
<asrwt>0</asrwt>
<pdfrwt beam="1">  1       21 0.16636976E-01 0.12631777E+03</pdfrwt>
<pdfrwt beam="2">  1       21 0.85029643E-02 0.12631777E+03</pdfrwt>
<totfact> 0.34593541E+06</totfact>
</mgrwt>
</event>
<event>
 6    1  0.4271609E-002  0.1269721E+03  0.7546771E-02  0.1232019E+00
         21   -1    0    0  504  502  0.00000000000E+00  0.00000000000E+00  0.90303245638E+02  0.90303245638E+02  0.00000000000E+00 0.  1.
         21   -1    0    0  502  503 -0.00000000000E+00 -0.00000000000E+00 -0.30566382804E+03  0.30566382804E+03  0.00000000000E+00 0.  1.
         25    2    1    2    0    0 -0.22254515120E+02 -0.86129778214E+00  0.44958816633E+02  0.13469672559E+03  0.12500362960E+03 0.  0.
          5    1    3    3  501    0  0.21526731277E+02  0.37182185076E+02  0.60913730870E+02  0.74541315088E+02  0.10000000000E+00 0. -1.
         -5    1    3    3    0  501 -0.43781246397E+02 -0.38043482858E+02 -0.15954914237E+02  0.60155410500E+02  0.10000000000E+00 0. -1.
         21    1    1    2  504  503  0.22254515120E+02  0.86129778214E+00 -0.26031939903E+03  0.26127034809E+03  0.00000000000E+00 0.  1.
<mgrwt>
<rscale>  1 0.12697209E+03</rscale>
<asrwt>0</asrwt>
<pdfrwt beam="1">  1       21 0.13892807E-01 0.12697209E+03</pdfrwt>
<pdfrwt beam="2">  1       21 0.47025205E-01 0.12697209E+03</pdfrwt>
<totfact> 0.19873532E+05</totfact>
</mgrwt>
</event>
<event>
 6    1  0.4271609E-002  0.1269720E+03  0.7546771E-02  0.1232019E+00
         21   -1    0    0  504  502  0.00000000000E+00  0.00000000000E+00  0.75011703257E+02  0.75011703257E+02  0.00000000000E+00 0.  1.
         21   -1    0    0  502  503 -0.00000000000E+00 -0.00000000000E+00 -0.54975259469E+03  0.54975259469E+03  0.00000000000E+00 0.  1.
         25    2    1    2    0    0 -0.14328274515E+02  0.17220760293E+02  0.20845591469E+02  0.12867175006E+03  0.12498010459E+03 0.  0.
          5    1    3    3  501    0 -0.52170264863E+02 -0.74223919070E+01  0.51823763561E+02  0.73909004236E+02  0.10000000000E+00 0.  1.
         -5    1    3    3    0  501  0.37841990347E+02  0.24643152200E+02 -0.30978172092E+02  0.54762745822E+02  0.10000000000E+00 0.  1.
         21    1    1    2  504  503  0.14328274515E+02 -0.17220760293E+02 -0.49558648290E+03  0.49609254789E+03  0.00000000000E+00 0.  1.
<mgrwt>
<rscale>  1 0.12697197E+03</rscale>
<asrwt>0</asrwt>
<pdfrwt beam="1">  1       21 0.11540262E-01 0.12697197E+03</pdfrwt>
<pdfrwt beam="2">  1       21 0.84577322E-01 0.12697197E+03</pdfrwt>
<totfact> 0.78544179E+04</totfact>
</mgrwt>
</event>
<event>
 6    1  0.4271609E-002  0.1268795E+03  0.7546771E-02  0.1232161E+00
         21   -1    0    0  503  502  0.00000000000E+00  0.00000000000E+00  0.10287239545E+02  0.10287239545E+02  0.00000000000E+00 0.  1.
         21   -1    0    0  504  503 -0.00000000000E+00 -0.00000000000E+00 -0.68019713769E+03  0.68019713769E+03  0.00000000000E+00 0.  1.
         25    2    1    2    0    0  0.15527631315E+00 -0.21703065789E+02 -0.39857215001E+03  0.41828000413E+03  0.12500942330E+03 0.  0.
          5    1    3    3  501    0 -0.15299173985E+02 -0.45329774906E+02 -0.52386761120E+02  0.70945302581E+02  0.10000000000E+00 0. -1.
         -5    1    3    3    0  501  0.15454450299E+02  0.23626709117E+02 -0.34618538889E+03  0.34733470155E+03  0.10000000000E+00 0. -1.
         21    1    1    2  504  502 -0.15527631315E+00  0.21703065789E+02 -0.27133774814E+03  0.27220437311E+03  0.00000000000E+00 0.  1.
<mgrwt>
<rscale>  1 0.12687948E+03</rscale>
<asrwt>0</asrwt>
<pdfrwt beam="1">  1       21 0.15826526E-02 0.12687948E+03</pdfrwt>
<pdfrwt beam="2">  1       21 0.10464569E+00 0.12687948E+03</pdfrwt>
<totfact> 0.13294888E+06</totfact>
</mgrwt>
</event>
<event>
 6    1  0.4271609E-002  0.1414581E+03  0.7546771E-02  0.1211380E+00
         21   -1    0    0  504  502  0.00000000000E+00  0.00000000000E+00  0.19045192839E+03  0.19045192839E+03  0.00000000000E+00 0. -1.
         21   -1    0    0  502  503 -0.00000000000E+00 -0.00000000000E+00 -0.57076857868E+02  0.57076857868E+02  0.00000000000E+00 0. -1.
         25    2    1    2    0    0 -0.45564981501E+02  0.48031637261E+02  0.80192085851E+02  0.16260743691E+03  0.12500880844E+03 0.  0.
          5    1    3    3  501    0 -0.42750932105E+02  0.34558541782E+02  0.11374974663E+03  0.12633665289E+03  0.10000000000E+00 0.  1.
         -5    1    3    3    0  501 -0.28140493966E+01  0.13473095479E+02 -0.33557660780E+02  0.36270784011E+02  0.10000000000E+00 0.  1.
         21    1    1    2  504  503  0.45564981501E+02 -0.48031637261E+02  0.53182984667E+02  0.84921349349E+02  0.00000000000E+00 0. -1.
<mgrwt>
<rscale>  1 0.14145815E+03</rscale>
<asrwt>0</asrwt>
<pdfrwt beam="1">  1       21 0.29300296E-01 0.14145815E+03</pdfrwt>
<pdfrwt beam="2">  1       21 0.87810551E-02 0.14145815E+03</pdfrwt>
<totfact> 0.11388507E+06</totfact>
</mgrwt>
</event>
<event>
 6    1  0.4271609E-002  0.1343921E+03  0.7546771E-02  0.1221080E+00
         21   -1    0    0  504  502  0.00000000000E+00  0.00000000000E+00  0.92936500938E+03  0.92936500938E+03  0.00000000000E+00 0.  1.
         21   -1    0    0  502  503 -0.00000000000E+00 -0.00000000000E+00 -0.11828204758E+02  0.11828204758E+02  0.00000000000E+00 0.  1.
         25    2    1    2    0    0 -0.27108729063E+01  0.49288140715E+02  0.82902324381E+03  0.83984569274E+03  0.12499831670E+03 0.  0.
          5    1    3    3  501    0  0.40980723434E+02  0.64157497108E+02  0.66845679378E+03  0.67277789744E+03  0.10000000000E+00 0.  1.
         -5    1    3    3    0  501 -0.43691596340E+02 -0.14869356393E+02  0.16056645003E+03  0.16706779530E+03  0.10000000000E+00 0.  1.
         21    1    1    2  504  503  0.27108729063E+01 -0.49288140715E+02  0.88513560811E+02  0.10134752140E+03  0.00000000000E+00 0.  1.
<mgrwt>
<rscale>  1 0.13439215E+03</rscale>
<asrwt>0</asrwt>
<pdfrwt beam="1">  1       21 0.14297917E+00 0.13439215E+03</pdfrwt>
<pdfrwt beam="2">  1       21 0.18197245E-02 0.13439215E+03</pdfrwt>
<totfact> 0.49366940E+05</totfact>
</mgrwt>
</event>
<event>
 6    1  0.4271609E-002  0.1402169E+03  0.7546771E-02  0.1213037E+00
         21   -1    0    0  504  502  0.00000000000E+00  0.00000000000E+00  0.14491458870E+04  0.14491458870E+04  0.00000000000E+00 0. -1.
         21   -1    0    0  502  503 -0.00000000000E+00 -0.00000000000E+00 -0.71629667134E+01  0.71629667134E+01  0.00000000000E+00 0. -1.
         25    2    1    2    0    0 -0.44757010870E+02  0.45094042351E+02  0.98419730663E+03  0.99413536816E+03  0.12499651664E+03 0.  0.
          5    1    3    3  501    0 -0.16170139421E+02  0.37008339119E+02  0.81583537657E+02  0.91032819301E+02  0.10000000000E+00 0. -1.
         -5    1    3    3    0  501 -0.28586871449E+02  0.80857032318E+01  0.90261376898E+03  0.90310254886E+03  0.10000000000E+00 0. -1.
         21    1    1    2  504  503  0.44757010870E+02 -0.45094042351E+02  0.45778561365E+03  0.46217348555E+03  0.00000000000E+00 0. -1.
<mgrwt>
<rscale>  1 0.14021695E+03</rscale>
<asrwt>0</asrwt>
<pdfrwt beam="1">  1       21 0.22294529E+00 0.14021695E+03</pdfrwt>
<pdfrwt beam="2">  1       21 0.11019960E-02 0.14021695E+03</pdfrwt>
<totfact> 0.31874551E+05</totfact>
</mgrwt>
</event>
<event>
 6    1  0.4271609E-002  0.1263952E+03  0.7546771E-02  0.1232905E+00
         21   -1    0    0  504  502  0.00000000000E+00  0.00000000000E+00  0.17544178710E+02  0.17544178710E+02  0.00000000000E+00 0.  1.
         21   -1    0    0  502  503 -0.00000000000E+00 -0.00000000000E+00 -0.50824761880E+03  0.50824761880E+03  0.00000000000E+00 0.  1.
         25    2    1    2    0    0  0.65405356699E+00 -0.18758636191E+02 -0.21463632169E+03  0.24908731963E+03  0.12499371182E+03 0.  0.
          5    1    3    3  501    0  0.61101179698E+02 -0.18025709253E+02 -0.86701819975E+02  0.10758947877E+03  0.10000000000E+00 0.  1.
         -5    1    3    3    0  501 -0.60447126131E+02 -0.73292693774E+00 -0.12793450172E+03  0.14149784086E+03  0.10000000000E+00 0.  1.
         21    1    1    2  504  503 -0.65405356699E+00  0.18758636191E+02 -0.27606711840E+03  0.27670447788E+03  0.00000000000E+00 0.  1.
<mgrwt>
<rscale>  1 0.12639518E+03</rscale>
<asrwt>0</asrwt>
<pdfrwt beam="1">  1       21 0.26991046E-02 0.12639518E+03</pdfrwt>
<pdfrwt beam="2">  1       21 0.78191937E-01 0.12639518E+03</pdfrwt>
<totfact> 0.10942210E+06</totfact>
</mgrwt>
</event>
<event>
 6    1  0.4271609E-002  0.1260225E+03  0.7546771E-02  0.1233480E+00
         21   -1    0    0  503  502  0.00000000000E+00  0.00000000000E+00  0.19779799915E+03  0.19779799915E+03  0.00000000000E+00 0. -1.
         21   -1    0    0  504  503 -0.00000000000E+00 -0.00000000000E+00 -0.34791530373E+02  0.34791530373E+02  0.00000000000E+00 0. -1.
         25    2    1    2    0    0 -0.14203123417E+02 -0.63189332266E+01  0.17305538823E+03  0.21407903482E+03  0.12506001808E+03 0.  0.
          5    1    3    3  501    0  0.19148354184E+02 -0.58899133340E+02  0.10444459979E+03  0.12142673430E+03  0.10000000000E+00 0. -1.
         -5    1    3    3    0  501 -0.33351477600E+02  0.52580200114E+02  0.68610788433E+02  0.92652300519E+02  0.10000000000E+00 0. -1.
         21    1    1    2  504  502  0.14203123417E+02  0.63189332266E+01 -0.10048919453E+02  0.18510494701E+02  0.00000000000E+00 0. -1.
<mgrwt>
<rscale>  1 0.12602248E+03</rscale>
<asrwt>0</asrwt>
<pdfrwt beam="1">  1       21 0.30430461E-01 0.12602248E+03</pdfrwt>
<pdfrwt beam="2">  1       21 0.53525433E-02 0.12602248E+03</pdfrwt>
<totfact> 0.24629406E+06</totfact>
</mgrwt>
</event>
<event>
 6    1  0.4271609E-002  0.1264100E+03  0.7546771E-02  0.1232882E+00
         21   -1    0    0  504  502  0.00000000000E+00  0.00000000000E+00  0.54751496532E+01  0.54751496532E+01  0.00000000000E+00 0. -1.
         21   -1    0    0  502  503 -0.00000000000E+00 -0.00000000000E+00 -0.96347358313E+03  0.96347358313E+03  0.00000000000E+00 0. -1.
         25    2    1    2    0    0 -0.21654252388E+01 -0.18704162394E+02 -0.82808647807E+03  0.83767934977E+03  0.12499977249E+03 0.  0.
          5    1    3    3  501    0  0.20757578195E+02  0.39466413795E+00 -0.19312409271E+02  0.28355104729E+02  0.10000000000E+00 0.  1.
         -5    1    3    3    0  501 -0.22923003434E+02 -0.19098826532E+02 -0.80877406880E+03  0.80932424505E+03  0.10000000000E+00 0.  1.
         21    1    1    2  504  503  0.21654252388E+01  0.18704162394E+02 -0.12991195541E+03  0.13126938301E+03  0.00000000000E+00 0. -1.
<mgrwt>
<rscale>  1 0.12640996E+03</rscale>
<asrwt>0</asrwt>
<pdfrwt beam="1">  1       21 0.84233037E-03 0.12640996E+03</pdfrwt>
<pdfrwt beam="2">  1       21 0.14822677E+00 0.12640996E+03</pdfrwt>
<totfact> 0.15300859E+06</totfact>
</mgrwt>
</event>
<event>
 6    1  0.4271609E-002  0.1388942E+03  0.7546771E-02  0.1214825E+00
         21   -1    0    0  503  502  0.00000000000E+00  0.00000000000E+00  0.11723028690E+03  0.11723028690E+03  0.00000000000E+00 0.  1.
         21   -1    0    0  504  503 -0.00000000000E+00 -0.00000000000E+00 -0.14038037785E+03  0.14038037785E+03  0.00000000000E+00 0.  1.
         25    2    1    2    0    0 -0.28679914628E+02  0.53336675918E+02 -0.91475152815E+02  0.16631086968E+03  0.12499705313E+03 0.  0.
          5    1    3    3  501    0 -0.28747879207E+02  0.35470647694E+02  0.22530278104E+02  0.50913955240E+02  0.10000000000E+00 0. -1.
         -5    1    3    3    0  501  0.67964579059E-01  0.17866028224E+02 -0.11400543092E+03  0.11539691444E+03  0.10000000000E+00 0. -1.
         21    1    1    2  504  502  0.28679914628E+02 -0.53336675918E+02  0.68325061864E+02  0.91299795070E+02  0.00000000000E+00 0.  1.
<mgrwt>
<rscale>  1 0.13889421E+03</rscale>
<asrwt>0</asrwt>
<pdfrwt beam="1">  1       21 0.18035429E-01 0.13889421E+03</pdfrwt>
<pdfrwt beam="2">  1       21 0.21596981E-01 0.13889421E+03</pdfrwt>
<totfact> 0.56258419E+05</totfact>
</mgrwt>
</event>
<event>
 6    1  0.4271609E-002  0.1334332E+03  0.7546771E-02  0.1222449E+00
         21   -1    0    0  504  502  0.00000000000E+00  0.00000000000E+00  0.13273633462E+03  0.13273633462E+03  0.00000000000E+00 0. -1.
         21   -1    0    0  502  503 -0.00000000000E+00 -0.00000000000E+00 -0.61415036388E+02  0.61415036388E+02  0.00000000000E+00 0.  1.
         25    2    1    2    0    0 -0.46450761188E+02 -0.19414249479E+01  0.59994056449E+02  0.14630005178E+03  0.12507188331E+03 0.  0.
          5    1    3    3  501    0  0.57254179819E+01  0.54311512648E+02  0.37838314582E+02  0.66439964385E+02  0.10000000000E+00 0.  1.
         -5    1    3    3    0  501 -0.52176179170E+02 -0.56252937596E+02  0.22155741867E+02  0.79860087394E+02  0.10000000000E+00 0.  1.
         21    1    1    2  504  503  0.46450761188E+02  0.19414249479E+01  0.11327241787E+02  0.47851319232E+02  0.00000000000E+00 0. -1.
<mgrwt>
<rscale>  1 0.13343320E+03</rscale>
<asrwt>0</asrwt>
<pdfrwt beam="1">  1       21 0.20420975E-01 0.13343320E+03</pdfrwt>
<pdfrwt beam="2">  1       21 0.94484672E-02 0.13343320E+03</pdfrwt>
<totfact> 0.19813161E+06</totfact>
</mgrwt>
</event>
<event>
 6    1  0.4271609E-002  0.1300749E+03  0.7546771E-02  0.1227345E+00
         21   -1    0    0  504  502  0.00000000000E+00  0.00000000000E+00  0.25396095392E+03  0.25396095392E+03  0.00000000000E+00 0.  1.
         21   -1    0    0  502  503 -0.00000000000E+00 -0.00000000000E+00 -0.52756977050E+02  0.52756977050E+02  0.00000000000E+00 0.  1.
         25    2    1    2    0    0  0.25021328120E+02  0.25822880851E+02  0.22757617230E+03  0.26212666806E+03  0.12500635133E+03 0.  0.
          5    1    3    3  501    0  0.60235667701E+02 -0.26689755939E+02  0.10017065832E+03  0.11989516055E+03  0.10000000000E+00 0.  1.
         -5    1    3    3    0  501 -0.35214339581E+02  0.52512636790E+02  0.12740551398E+03  0.14223150751E+03  0.10000000000E+00 0.  1.
         21    1    1    2  504  503 -0.25021328120E+02 -0.25822880851E+02 -0.26372195430E+02  0.44591262912E+02  0.00000000000E+00 0.  1.
<mgrwt>
<rscale>  1 0.13007489E+03</rscale>
<asrwt>0</asrwt>
<pdfrwt beam="1">  1       21 0.39070915E-01 0.13007489E+03</pdfrwt>
<pdfrwt beam="2">  1       21 0.81164582E-02 0.13007489E+03</pdfrwt>
<totfact> 0.74241108E+05</totfact>
</mgrwt>
</event>
<event>
 6    1  0.4271609E-002  0.1305487E+03  0.7546771E-02  0.1226644E+00
         21   -1    0    0  504  502  0.00000000000E+00  0.00000000000E+00  0.51600561771E+03  0.51600561771E+03  0.00000000000E+00 0. -1.
         21   -1    0    0  502  503 -0.00000000000E+00 -0.00000000000E+00 -0.27316757050E+03  0.27316757050E+03  0.00000000000E+00 0.  1.
         25    2    1    2    0    0  0.50395761590E+01  0.37326331199E+02  0.50638805973E+03  0.52294535077E+03  0.12499728208E+03 0.  0.
          5    1    3    3  501    0  0.37494109574E+02  0.71876156569E+02  0.27254812720E+03  0.28434922503E+03  0.10000000000E+00 0. -1.
         -5    1    3    3    0  501 -0.32454533416E+02 -0.34549825370E+02  0.23383993254E+03  0.23859612575E+03  0.10000000000E+00 0. -1.
         21    1    1    2  504  503 -0.50395761590E+01 -0.37326331199E+02 -0.26355001252E+03  0.26622783744E+03  0.00000000000E+00 0.  1.
<mgrwt>
<rscale>  1 0.13054874E+03</rscale>
<asrwt>0</asrwt>
<pdfrwt beam="1">  1       21 0.79385480E-01 0.13054874E+03</pdfrwt>
<pdfrwt beam="2">  1       21 0.42025780E-01 0.13054874E+03</pdfrwt>
<totfact> 0.80187823E+03</totfact>
</mgrwt>
</event>
<event>
 6    1  0.4271609E-002  0.1260696E+03  0.7546771E-02  0.1233407E+00
         21   -1    0    0  503  502  0.00000000000E+00  0.00000000000E+00  0.83815785908E+02  0.83815785908E+02  0.00000000000E+00 0. -1.
         21   -1    0    0  504  503 -0.00000000000E+00 -0.00000000000E+00 -0.92218287874E+02  0.92218287874E+02  0.00000000000E+00 0. -1.
         25    2    1    2    0    0  0.12952552692E+02 -0.10052856098E+02  0.33998425860E+02  0.13057346207E+03  0.12499882999E+03 0.  0.
          5    1    3    3  501    0  0.12668215293E+02  0.57265090874E+02  0.13221095245E+02  0.60121391127E+02  0.10000000000E+00 0.  1.
         -5    1    3    3    0  501  0.28433739914E+00 -0.67317946972E+02  0.20777330615E+02  0.70452070940E+02  0.10000000000E+00 0.  1.
         21    1    1    2  504  502 -0.12952552692E+02  0.10052856098E+02 -0.42400927825E+02  0.45460611714E+02  0.00000000000E+00 0. -1.
<mgrwt>
<rscale>  1 0.12606957E+03</rscale>
<asrwt>0</asrwt>
<pdfrwt beam="1">  1       21 0.12894736E-01 0.12606957E+03</pdfrwt>
<pdfrwt beam="2">  1       21 0.14187429E-01 0.12606957E+03</pdfrwt>
<totfact> 0.22213581E+06</totfact>
</mgrwt>
</event>
<event>
 6    1  0.4271609E-002  0.1277379E+03  0.7546771E-02  0.1230851E+00
         21   -1    0    0  503  502  0.00000000000E+00  0.00000000000E+00  0.73897658275E+03  0.73897658275E+03  0.00000000000E+00 0.  1.
         21   -1    0    0  504  503 -0.00000000000E+00 -0.00000000000E+00 -0.10976421310E+02  0.10976421310E+02  0.00000000000E+00 0.  1.
         25    2    1    2    0    0 -0.18588382233E+02 -0.18647949691E+02  0.69983491036E+03  0.71139713096E+03  0.12499480872E+03 0.  0.
          5    1    3    3  501    0  0.21567990545E+02  0.25638843276E+02  0.53514154595E+03  0.53618934408E+03  0.10000000000E+00 0. -1.
         -5    1    3    3    0  501 -0.40156372777E+02 -0.44286792967E+02  0.16469336440E+03  0.17520778688E+03  0.10000000000E+00 0. -1.
         21    1    1    2  504  502  0.18588382233E+02  0.18647949691E+02  0.28165251084E+02  0.38555873098E+02  0.00000000000E+00 0.  1.
<mgrwt>
<rscale>  1 0.12773792E+03</rscale>
<asrwt>0</asrwt>
<pdfrwt beam="1">  1       21 0.11368867E+00 0.12773792E+03</pdfrwt>
<pdfrwt beam="2">  1       21 0.16886808E-02 0.12773792E+03</pdfrwt>
<totfact> 0.98349252E+05</totfact>
</mgrwt>
</event>
<event>
 6    1  0.4271609E-002  0.1267165E+03  0.7546771E-02  0.1232411E+00
         21   -1    0    0  503  502  0.00000000000E+00  0.00000000000E+00  0.25726229465E+03  0.25726229465E+03  0.00000000000E+00 0. -1.
         21   -1    0    0  504  503 -0.00000000000E+00 -0.00000000000E+00 -0.65209367765E+02  0.65209367765E+02  0.00000000000E+00 0. -1.
         25    2    1    2    0    0 -0.20410738805E+02  0.39964755048E+01  0.23933883907E+03  0.27081386952E+03  0.12499800783E+03 0.  0.
          5    1    3    3  501    0 -0.71666413553E+02  0.83594987792E+00  0.10627069757E+03  0.12818051648E+03  0.10000000000E+00 0.  1.
         -5    1    3    3    0  501  0.51255674748E+02  0.31605256269E+01  0.13306814150E+03  0.14263335304E+03  0.10000000000E+00 0.  1.
         21    1    1    2  504  502  0.20410738805E+02 -0.39964755048E+01 -0.47285912189E+02  0.51657792893E+02  0.00000000000E+00 0. -1.
<mgrwt>
<rscale>  1 0.12671650E+03</rscale>
<asrwt>0</asrwt>
<pdfrwt beam="1">  1       21 0.39578814E-01 0.12671650E+03</pdfrwt>
<pdfrwt beam="2">  1       21 0.10032211E-01 0.12671650E+03</pdfrwt>
<totfact> 0.50075655E+05</totfact>
</mgrwt>
</event>
<event>
 6    1  0.4271609E-002  0.1270785E+03  0.7546771E-02  0.1231856E+00
         21   -1    0    0  504  502  0.00000000000E+00  0.00000000000E+00  0.49684206239E+02  0.49684206239E+02  0.00000000000E+00 0. -1.
         21   -1    0    0  502  503 -0.00000000000E+00 -0.00000000000E+00 -0.12863374260E+03  0.12863374260E+03  0.00000000000E+00 0. -1.
         25    2    1    2    0    0  0.17888576277E+02  0.14225957716E+02 -0.40120038408E+02  0.13326121854E+03  0.12500622325E+03 0.  0.
          5    1    3    3  501    0 -0.40033182986E+02  0.32728626383E+02 -0.49681992204E+02  0.71708640165E+02  0.10000000000E+00 0. -1.
         -5    1    3    3    0  501  0.57921759263E+02 -0.18502668667E+02  0.95619537963E+01  0.61552578373E+02  0.10000000000E+00 0. -1.
         21    1    1    2  504  503 -0.17888576277E+02 -0.14225957716E+02 -0.38829497952E+02  0.45056730300E+02  0.00000000000E+00 0. -1.
<mgrwt>
<rscale>  1 0.12707846E+03</rscale>
<asrwt>0</asrwt>
<pdfrwt beam="1">  1       21 0.76437240E-02 0.12707846E+03</pdfrwt>
<pdfrwt beam="2">  1       21 0.19789807E-01 0.12707846E+03</pdfrwt>
<totfact> 0.30258647E+06</totfact>
</mgrwt>
</event>
<event>
 6    1  0.4271609E-002  0.1268510E+03  0.7546771E-02  0.1232205E+00
         21   -1    0    0  503  502  0.00000000000E+00  0.00000000000E+00  0.24577457549E+03  0.24577457549E+03  0.00000000000E+00 0.  1.
         21   -1    0    0  504  503 -0.00000000000E+00 -0.00000000000E+00 -0.22992962563E+02  0.22992962563E+02  0.00000000000E+00 0.  1.
         25    2    1    2    0    0 -0.20822099501E+02 -0.58135090074E+01  0.20350525508E+03  0.23980316880E+03  0.12499525673E+03 0.  0.
          5    1    3    3  501    0 -0.30839172403E+02 -0.49732268654E+02  0.17942005065E+03  0.18872179968E+03  0.10000000000E+00 0. -1.
         -5    1    3    3    0  501  0.10017072902E+02  0.43918759647E+02  0.24085204434E+02  0.51081369119E+02  0.10000000000E+00 0. -1.
         21    1    1    2  504  502  0.20822099501E+02  0.58135090074E+01  0.19276357852E+02  0.28964369260E+02  0.00000000000E+00 0. -1.
<mgrwt>
<rscale>  1 0.12685098E+03</rscale>
<asrwt>0</asrwt>
<pdfrwt beam="1">  1       21 0.37811471E-01 0.12685098E+03</pdfrwt>
<pdfrwt beam="2">  1       21 0.35373790E-02 0.12685098E+03</pdfrwt>
<totfact> 0.32135473E+06</totfact>
</mgrwt>
</event>
<event>
 6    1  0.4271609E-002  0.1261487E+03  0.7546771E-02  0.1233285E+00
         21   -1    0    0  504  502  0.00000000000E+00  0.00000000000E+00  0.36593151961E+03  0.36593151961E+03  0.00000000000E+00 0.  1.
         21   -1    0    0  502  503 -0.00000000000E+00 -0.00000000000E+00 -0.14313911681E+02  0.14313911681E+02  0.00000000000E+00 0.  1.
         25    2    1    2    0    0  0.16965913901E+02 -0.70832523553E+00  0.32553335514E+03  0.34912096820E+03  0.12500056467E+03 0.  0.
          5    1    3    3  501    0 -0.27415911893E+02  0.46884030674E+02  0.20580074521E+03  0.21284666144E+03  0.10000000000E+00 0.  1.
         -5    1    3    3    0  501  0.44381825794E+02 -0.47592355910E+02  0.11973260993E+03  0.13627430676E+03  0.10000000000E+00 0.  1.
         21    1    1    2  504  503 -0.16965913901E+02  0.70832523553E+00  0.26084252781E+02  0.31124463084E+02  0.00000000000E+00 0. -1.
<mgrwt>
<rscale>  1 0.12614866E+03</rscale>
<asrwt>0</asrwt>
<pdfrwt beam="1">  1       21 0.56297150E-01 0.12614866E+03</pdfrwt>
<pdfrwt beam="2">  1       21 0.22021405E-02 0.12614866E+03</pdfrwt>
<totfact> 0.30963848E+06</totfact>
</mgrwt>
</event>
<event>
 6    1  0.4271609E-002  0.1260931E+03  0.7546771E-02  0.1233371E+00
         21   -1    0    0  504  502  0.00000000000E+00  0.00000000000E+00  0.10879170573E+03  0.10879170573E+03  0.00000000000E+00 0.  1.
         21   -1    0    0  502  503 -0.00000000000E+00 -0.00000000000E+00 -0.47556424253E+02  0.47556424253E+02  0.00000000000E+00 0.  1.
         25    2    1    2    0    0 -0.57464985766E+01 -0.15564357896E+02  0.60194539562E+02  0.13972421268E+03  0.12499680610E+03 0.  0.
          5    1    3    3  501    0 -0.36039540720E+02  0.26487209150E+02 -0.16062111569E+02  0.47522859467E+02  0.10000000000E+00 0.  1.
         -5    1    3    3    0  501  0.30293042144E+02 -0.42051567045E+02  0.76256651131E+02  0.92201353216E+02  0.10000000000E+00 0.  1.
         21    1    1    2  504  503  0.57464985766E+01  0.15564357896E+02  0.10407419141E+01  0.16623917298E+02  0.00000000000E+00 0. -1.
<mgrwt>
<rscale>  1 0.12609311E+03</rscale>
<asrwt>0</asrwt>
<pdfrwt beam="1">  1       21 0.16737185E-01 0.12609311E+03</pdfrwt>
<pdfrwt beam="2">  1       21 0.73163730E-02 0.12609311E+03</pdfrwt>
<totfact> 0.44320170E+06</totfact>
</mgrwt>
</event>
<event>
 6    1  0.4271609E-002  0.1507956E+03  0.7546771E-02  0.1199499E+00
         21   -1    0    0  503  502  0.00000000000E+00  0.00000000000E+00  0.77516728149E+02  0.77516728149E+02  0.00000000000E+00 0. -1.
         21   -1    0    0  504  503 -0.00000000000E+00 -0.00000000000E+00 -0.10003561656E+04  0.10003561656E+04  0.00000000000E+00 0.  1.
         25    2    1    2    0    0 -0.64326937490E+02  0.54557498139E+02  0.39235491465E+00  0.15079608036E+03  0.12499931368E+03 0.  0.
          5    1    3    3  501    0 -0.51515599181E+02  0.69817034035E+02 -0.47505406418E+02  0.98919405778E+02  0.10000000000E+00 0.  1.
         -5    1    3    3    0  501 -0.12811338309E+02 -0.15259535896E+02  0.47897761333E+02  0.51876674582E+02  0.10000000000E+00 0.  1.
         21    1    1    2  504  502  0.64326937490E+02 -0.54557498139E+02 -0.92323179239E+03  0.92707681342E+03  0.00000000000E+00 0.  1.
<mgrwt>
<rscale>  1 0.15079557E+03</rscale>
<asrwt>0</asrwt>
<pdfrwt beam="1">  1       21 0.11925650E-01 0.15079557E+03</pdfrwt>
<pdfrwt beam="2">  1       21 0.15390095E+00 0.15079557E+03</pdfrwt>
<totfact> 0.17097416E+04</totfact>
</mgrwt>
</event>
<event>
 6    1  0.4271609E-002  0.1308845E+03  0.7546771E-02  0.1226149E+00
         21   -1    0    0  504  502  0.00000000000E+00  0.00000000000E+00  0.59684596807E+03  0.59684596807E+03  0.00000000000E+00 0. -1.
         21   -1    0    0  502  503 -0.00000000000E+00 -0.00000000000E+00 -0.36998473115E+02  0.36998473115E+02  0.00000000000E+00 0.  1.
         25    2    1    2    0    0  0.20663900082E+02 -0.32809927165E+02  0.57684524659E+03  0.59150755835E+03  0.12500905961E+03 0.  0.
          5    1    3    3  501    0  0.43322517426E+02  0.26536402137E+02  0.40722985180E+03  0.41038662668E+03  0.10000000000E+00 0. -1.
         -5    1    3    3    0  501 -0.22658617345E+02 -0.59346329302E+02  0.16961539479E+03  0.18112093167E+03  0.10000000000E+00 0. -1.
         21    1    1    2  504  503 -0.20663900082E+02  0.32809927165E+02 -0.16997751639E+02  0.42336882832E+02  0.00000000000E+00 0.  1.
<mgrwt>
<rscale>  1 0.13088450E+03</rscale>
<asrwt>0</asrwt>
<pdfrwt beam="1">  1       21 0.91822450E-01 0.13088450E+03</pdfrwt>
<pdfrwt beam="2">  1       21 0.56920732E-02 0.13088450E+03</pdfrwt>
<totfact> 0.22038384E+05</totfact>
</mgrwt>
</event>
<event>
 6    1  0.4271609E-002  0.1287253E+03  0.7546771E-02  0.1229359E+00
         21   -1    0    0  503  502  0.00000000000E+00  0.00000000000E+00  0.14862485441E+04  0.14862485441E+04  0.00000000000E+00 0. -1.
         21   -1    0    0  504  503 -0.00000000000E+00 -0.00000000000E+00 -0.72226338594E+01  0.72226338594E+01  0.00000000000E+00 0. -1.
         25    2    1    2    0    0  0.28806467418E+02  0.10757743674E+02  0.14287508075E+04  0.14345379312E+04  0.12499865832E+03 0.  0.
          5    1    3    3  501    0 -0.20335347112E+01  0.59585931024E+02  0.42933980623E+03  0.43345968400E+03  0.10000000000E+00 0. -1.
         -5    1    3    3    0  501  0.30840002129E+02 -0.48828187350E+02  0.99941100128E+03  0.10010782472E+04  0.10000000000E+00 0. -1.
         21    1    1    2  504  502 -0.28806467418E+02 -0.10757743674E+02  0.50275102691E+02  0.58933246683E+02  0.00000000000E+00 0. -1.
<mgrwt>
<rscale>  1 0.12872531E+03</rscale>
<asrwt>0</asrwt>
<pdfrwt beam="1">  1       21 0.22865338E+00 0.12872531E+03</pdfrwt>
<pdfrwt beam="2">  1       21 0.11111756E-02 0.12872531E+03</pdfrwt>
<totfact> 0.29285440E+05</totfact>
</mgrwt>
</event>
<event>
 6    1  0.4271609E-002  0.1273898E+03  0.7546771E-02  0.1231381E+00
         21   -1    0    0  504  502  0.00000000000E+00  0.00000000000E+00  0.13879193961E+03  0.13879193961E+03  0.00000000000E+00 0. -1.
         21   -1    0    0  502  503 -0.00000000000E+00 -0.00000000000E+00 -0.15079548673E+03  0.15079548673E+03  0.00000000000E+00 0. -1.
         25    2    1    2    0    0  0.12148232989E+02  0.21339538893E+02  0.10805406809E+03  0.16704442795E+03  0.12500081517E+03 0.  0.
          5    1    3    3  501    0  0.51954040235E+02  0.53706515930E+02  0.75825590812E+02  0.10645723260E+03  0.10000000000E+00 0. -1.
         -5    1    3    3    0  501 -0.39805807246E+02 -0.32366977037E+02  0.32228477275E+02  0.60587195351E+02  0.10000000000E+00 0. -1.
         21    1    1    2  504  503 -0.12148232989E+02 -0.21339538893E+02 -0.12005761521E+03  0.12254299839E+03  0.00000000000E+00 0. -1.
<mgrwt>
<rscale>  1 0.12738979E+03</rscale>
<asrwt>0</asrwt>
<pdfrwt beam="1">  1       21 0.21352606E-01 0.12738979E+03</pdfrwt>
<pdfrwt beam="2">  1       21 0.23199306E-01 0.12738979E+03</pdfrwt>
<totfact> 0.36066372E+05</totfact>
</mgrwt>
</event>
<event>
 6    1  0.4271609E-002  0.1284951E+03  0.7546771E-02  0.1229706E+00
         21   -1    0    0  503  502  0.00000000000E+00  0.00000000000E+00  0.20065520466E+04  0.20065520466E+04  0.00000000000E+00 0. -1.
         21   -1    0    0  504  503 -0.00000000000E+00 -0.00000000000E+00 -0.42246116668E+01  0.42246116668E+01  0.00000000000E+00 0. -1.
         25    2    1    2    0    0  0.14112510691E+02 -0.26190065762E+02  0.18964707595E+04  0.19008188562E+04  0.12500359962E+03 0.  0.
          5    1    3    3  501    0  0.16513500914E+00  0.46242972410E+02  0.42674866862E+03  0.42924687062E+03  0.10000000000E+00 0. -1.
         -5    1    3    3    0  501  0.13947375682E+02 -0.72433038172E+02  0.14697220909E+04  0.14715719856E+04  0.10000000000E+00 0. -1.
         21    1    1    2  504  502 -0.14112510691E+02  0.26190065762E+02  0.10585667537E+03  0.10995780201E+03  0.00000000000E+00 0. -1.
<mgrwt>
<rscale>  1 0.12849507E+03</rscale>
<asrwt>0</asrwt>
<pdfrwt beam="1">  1       21 0.30869955E+00 0.12849507E+03</pdfrwt>
<pdfrwt beam="2">  1       21 0.64994186E-03 0.12849507E+03</pdfrwt>
<totfact> 0.23792013E+05</totfact>
</mgrwt>
</event>
<event>
 6    1  0.4271609E-002  0.1266772E+03  0.7546771E-02  0.1232471E+00
         21   -1    0    0  504  502  0.00000000000E+00  0.00000000000E+00  0.10080358137E+04  0.10080358137E+04  0.00000000000E+00 0. -1.
         21   -1    0    0  502  503 -0.00000000000E+00 -0.00000000000E+00 -0.34017315780E+03  0.34017315780E+03  0.00000000000E+00 0. -1.
         25    2    1    2    0    0 -0.17112366554E+01 -0.20455954300E+02  0.10037414380E+04  0.10117035026E+04  0.12500291374E+03 0.  0.
          5    1    3    3  501    0 -0.27785214548E+02 -0.24914385641E+01  0.48600562038E+02  0.56037933973E+02  0.10000000000E+00 0.  1.
         -5    1    3    3    0  501  0.26073977892E+02 -0.17964515736E+02  0.95514087594E+03  0.95566556862E+03  0.10000000000E+00 0.  1.
         21    1    1    2  504  503  0.17112366554E+01  0.20455954300E+02 -0.33587878204E+03  0.33650546894E+03  0.00000000000E+00 0. -1.
<mgrwt>
<rscale>  1 0.12667716E+03</rscale>
<asrwt>0</asrwt>
<pdfrwt beam="1">  1       21 0.15508243E+00 0.12667716E+03</pdfrwt>
<pdfrwt beam="2">  1       21 0.52334332E-01 0.12667716E+03</pdfrwt>
<totfact> 0.10290588E+03</totfact>
</mgrwt>
</event>
<event>
 6    1  0.4271609E-002  0.1436769E+03  0.7546771E-02  0.1208465E+00
         21   -1    0    0  504  502  0.00000000000E+00  0.00000000000E+00  0.29457941937E+03  0.29457941937E+03  0.00000000000E+00 0.  1.
         21   -1    0    0  502  503 -0.00000000000E+00 -0.00000000000E+00 -0.46636368297E+02  0.46636368297E+02  0.00000000000E+00 0.  1.
         25    2    1    2    0    0  0.45017254709E+02  0.54575565974E+02  0.22477748454E+03  0.26677326557E+03  0.12505203734E+03 0.  0.
          5    1    3    3  501    0  0.18816501671E+02  0.49887254602E+02  0.15102591308E+02  0.55415676221E+02  0.10000000000E+00 0.  1.
         -5    1    3    3    0  501  0.26200753038E+02  0.46883113726E+01  0.20967489323E+03  0.21135758935E+03  0.10000000000E+00 0.  1.
         21    1    1    2  504  503 -0.45017254709E+02 -0.54575565974E+02  0.23165566528E+02  0.74442522093E+02  0.00000000000E+00 0.  1.
<mgrwt>
<rscale>  1 0.14367692E+03</rscale>
<asrwt>0</asrwt>
<pdfrwt beam="1">  1       21 0.45319910E-01 0.14367692E+03</pdfrwt>
<pdfrwt beam="2">  1       21 0.71748260E-02 0.14367692E+03</pdfrwt>
<totfact> 0.68038460E+05</totfact>
</mgrwt>
</event>
<event>
 6    1  0.4271609E-002  0.1310995E+03  0.7546771E-02  0.1225833E+00
         21   -1    0    0  503  502  0.00000000000E+00  0.00000000000E+00  0.37148220168E+01  0.37148220168E+01  0.00000000000E+00 0. -1.
         21   -1    0    0  504  503 -0.00000000000E+00 -0.00000000000E+00 -0.20990233693E+04  0.20990233693E+04  0.00000000000E+00 0. -1.
         25    2    1    2    0    0 -0.32752061641E+02 -0.22091610792E+02 -0.18048782628E+04  0.18096332836E+04  0.12500536233E+03 0.  0.
          5    1    3    3  501    0  0.45366764031E+02 -0.25421584396E+02 -0.61939573088E+03  0.62157500084E+03  0.10000000000E+00 0.  1.
         -5    1    3    3    0  501 -0.78118825672E+02  0.33299736031E+01 -0.11854825320E+04  0.11880582828E+04  0.10000000000E+00 0.  1.
         21    1    1    2  504  502  0.32752061641E+02  0.22091610792E+02 -0.29043028442E+03  0.29310490770E+03  0.00000000000E+00 0. -1.
<mgrwt>
<rscale>  1 0.13109949E+03</rscale>
<asrwt>0</asrwt>
<pdfrwt beam="1">  1       21 0.57151100E-03 0.13109949E+03</pdfrwt>
<pdfrwt beam="2">  1       21 0.32292672E+00 0.13109949E+03</pdfrwt>
<totfact> 0.24082182E+05</totfact>
</mgrwt>
</event>
<event>
 6    1  0.4271609E-002  0.1289697E+03  0.7546771E-02  0.1228993E+00
         21   -1    0    0  504  502  0.00000000000E+00  0.00000000000E+00  0.20067057095E+03  0.20067057095E+03  0.00000000000E+00 0.  1.
         21   -1    0    0  502  503 -0.00000000000E+00 -0.00000000000E+00 -0.41456521630E+02  0.41456521630E+02  0.00000000000E+00 0.  1.
         25    2    1    2    0    0 -0.35348145427E+01 -0.31326294450E+02  0.16566598657E+03  0.20994854177E+03  0.12505734464E+03 0.  0.
          5    1    3    3  501    0 -0.59923215157E+02  0.76262077526E+01  0.75405494063E+02  0.96617541338E+02  0.10000000000E+00 0.  1.
         -5    1    3    3    0  501  0.56388400614E+02 -0.38952502202E+02  0.90260492508E+02  0.11333100043E+03  0.10000000000E+00 0.  1.
         21    1    1    2  504  503  0.35348145427E+01  0.31326294450E+02 -0.64519372494E+01  0.32178550808E+02  0.00000000000E+00 0.  1.
<mgrwt>
<rscale>  1 0.12896965E+03</rscale>
<asrwt>0</asrwt>
<pdfrwt beam="1">  1       21 0.30872395E-01 0.12896965E+03</pdfrwt>
<pdfrwt beam="2">  1       21 0.63779265E-02 0.12896965E+03</pdfrwt>
<totfact> 0.17814885E+06</totfact>
</mgrwt>
</event>
<event>
 6    1  0.4271609E-002  0.1517187E+03  0.7546771E-02  0.1198377E+00
         21   -1    0    0  503  502  0.00000000000E+00  0.00000000000E+00  0.47319454013E+02  0.47319454013E+02  0.00000000000E+00 0. -1.
         21   -1    0    0  504  503 -0.00000000000E+00 -0.00000000000E+00 -0.10900146567E+04  0.10900146567E+04  0.00000000000E+00 0. -1.
         25    2    1    2    0    0 -0.58342993206E+02 -0.63141909493E+02 -0.81349319626E+02  0.17215189348E+03  0.12501102765E+03 0.  0.
          5    1    3    3  501    0 -0.27704551790E+02 -0.85137249296E+01 -0.10212846278E+03  0.10616147424E+03  0.10000000000E+00 0. -1.
         -5    1    3    3    0  501 -0.30638441416E+02 -0.54628184563E+02  0.20779143156E+02  0.65990419240E+02  0.10000000000E+00 0. -1.
         21    1    1    2  504  502  0.58342993206E+02  0.63141909493E+02 -0.96134588309E+03  0.96518221726E+03  0.00000000000E+00 0. -1.
<mgrwt>
<rscale>  1 0.15171870E+03</rscale>
<asrwt>0</asrwt>
<pdfrwt beam="1">  1       21 0.72799157E-02 0.15171870E+03</pdfrwt>
<pdfrwt beam="2">  1       21 0.16769457E+00 0.15171870E+03</pdfrwt>
<totfact> 0.32197616E+04</totfact>
</mgrwt>
</event>
<event>
 6    1  0.4271609E-002  0.1269367E+03  0.7546771E-02  0.1232073E+00
         21   -1    0    0  503  502  0.00000000000E+00  0.00000000000E+00  0.46112743541E+03  0.46112743541E+03  0.00000000000E+00 0.  1.
         21   -1    0    0  504  503 -0.00000000000E+00 -0.00000000000E+00 -0.29111007894E+03  0.29111007894E+03  0.00000000000E+00 0.  1.
         25    2    1    2    0    0  0.11072286563E+02  0.19119705047E+02  0.45195142058E+03  0.46943904342E+03  0.12499908105E+03 0.  0.
          5    1    3    3  501    0 -0.17251284441E+01 -0.31715644647E+02  0.37491719884E+03  0.37626024792E+03  0.10000000000E+00 0. -1.
         -5    1    3    3    0  501  0.12797415007E+02  0.50835349694E+02  0.77034221749E+02  0.93178795495E+02  0.10000000000E+00 0. -1.
         21    1    1    2  504  502 -0.11072286563E+02 -0.19119705047E+02 -0.28193406412E+03  0.28279847093E+03  0.00000000000E+00 0.  1.
<mgrwt>
<rscale>  1 0.12693671E+03</rscale>
<asrwt>0</asrwt>
<pdfrwt beam="1">  1       21 0.70942682E-01 0.12693671E+03</pdfrwt>
<pdfrwt beam="2">  1       21 0.44786166E-01 0.12693671E+03</pdfrwt>
<totfact> 0.90686515E+03</totfact>
</mgrwt>
</event>
<event>
 6    1  0.4271609E-002  0.1261940E+03  0.7546771E-02  0.1233215E+00
         21   -1    0    0  504  502  0.00000000000E+00  0.00000000000E+00  0.51411864986E+02  0.51411864986E+02  0.00000000000E+00 0.  1.
         21   -1    0    0  502  503 -0.00000000000E+00 -0.00000000000E+00 -0.10601507221E+03  0.10601507221E+03  0.00000000000E+00 0.  1.
         25    2    1    2    0    0  0.52075646917E+01 -0.16495841778E+02 -0.34337179418E+02  0.13078217394E+03  0.12500281438E+03 0.  0.
          5    1    3    3  501    0 -0.22626894942E+02 -0.19991028731E+02  0.40697637592E+02  0.50674700888E+02  0.10000000000E+00 0.  1.
         -5    1    3    3    0  501  0.27834459634E+02  0.34951869539E+01 -0.75034817010E+02  0.80107473052E+02  0.10000000000E+00 0.  1.
         21    1    1    2  504  503 -0.52075646917E+01  0.16495841778E+02 -0.20266027803E+02  0.26644763254E+02  0.00000000000E+00 0.  1.
<mgrwt>
<rscale>  1 0.12619404E+03</rscale>
<asrwt>0</asrwt>
<pdfrwt beam="1">  1       21 0.79095177E-02 0.12619404E+03</pdfrwt>
<pdfrwt beam="2">  1       21 0.16310011E-01 0.12619404E+03</pdfrwt>
<totfact> 0.40630130E+06</totfact>
</mgrwt>
</event>
<event>
 6    1  0.4271609E-002  0.1497005E+03  0.7546771E-02  0.1200841E+00
         21   -1    0    0  504  502  0.00000000000E+00  0.00000000000E+00  0.17541463530E+03  0.17541463530E+03  0.00000000000E+00 0.  1.
         21   -1    0    0  502  503 -0.00000000000E+00 -0.00000000000E+00 -0.91289844186E+02  0.91289844186E+02  0.00000000000E+00 0.  1.
         25    2    1    2    0    0  0.95764055250E+01 -0.81811292503E+02  0.10361354888E+03  0.18206047909E+03  0.12500182164E+03 0.  0.
          5    1    3    3  501    0  0.57374782733E+02 -0.70787529835E+02  0.34768781093E+02  0.97527525409E+02  0.10000000000E+00 0. -1.
         -5    1    3    3    0  501 -0.47798377208E+02 -0.11023762669E+02  0.68844767786E+02  0.84532953684E+02  0.10000000000E+00 0. -1.
         21    1    1    2  504  503 -0.95764055250E+01  0.81811292503E+02 -0.19488757762E+02  0.84644000396E+02  0.00000000000E+00 0.  1.
<mgrwt>
<rscale>  1 0.14970054E+03</rscale>
<asrwt>0</asrwt>
<pdfrwt beam="1">  1       21 0.26986867E-01 0.14970054E+03</pdfrwt>
<pdfrwt beam="2">  1       21 0.14044592E-01 0.14970054E+03</pdfrwt>
<totfact> 0.58141374E+05</totfact>
</mgrwt>
</event>
<event>
 6    1  0.4271609E-002  0.1265090E+03  0.7546771E-02  0.1232730E+00
         21   -1    0    0  503  502  0.00000000000E+00  0.00000000000E+00  0.27221141057E+03  0.27221141057E+03  0.00000000000E+00 0.  1.
         21   -1    0    0  504  503 -0.00000000000E+00 -0.00000000000E+00 -0.67464115501E+02  0.67464115501E+02  0.00000000000E+00 0.  1.
         25    2    1    2    0    0 -0.97567899903E+01 -0.16860627181E+02  0.25561361392E+03  0.28520665337E+03  0.12500015924E+03 0.  0.
          5    1    3    3  501    0  0.52975969472E+02 -0.27187918422E+02  0.15659983150E+03  0.16753851341E+03  0.10000000000E+00 0. -1.
         -5    1    3    3    0  501 -0.62732759462E+02  0.10327291240E+02  0.99013782420E+02  0.11766813997E+03  0.10000000000E+00 0. -1.
         21    1    1    2  504  502  0.97567899903E+01  0.16860627181E+02 -0.50866318848E+02  0.54468872698E+02  0.00000000000E+00 0.  1.
<mgrwt>
<rscale>  1 0.12650895E+03</rscale>
<asrwt>0</asrwt>
<pdfrwt beam="1">  1       21 0.41878678E-01 0.12650895E+03</pdfrwt>
<pdfrwt beam="2">  1       21 0.10379095E-01 0.12650895E+03</pdfrwt>
<totfact> 0.42135410E+05</totfact>
</mgrwt>
</event>
<event>
 6    1  0.4271609E-002  0.1335941E+03  0.7546771E-02  0.1222218E+00
         21   -1    0    0  503  502  0.00000000000E+00  0.00000000000E+00  0.51206938830E+03  0.51206938830E+03  0.00000000000E+00 0.  1.
         21   -1    0    0  504  503 -0.00000000000E+00 -0.00000000000E+00 -0.35702514731E+02  0.35702514731E+02  0.00000000000E+00 0.  1.
         25    2    1    2    0    0  0.45707694611E+02  0.11528910410E+02  0.48211620623E+03  0.50028333654E+03  0.12500108554E+03 0.  0.
          5    1    3    3  501    0  0.28635663551E+02  0.17296467309E+02  0.48107099949E+03  0.48223281261E+03  0.10000000000E+00 0. -1.
         -5    1    3    3    0  501  0.17072031060E+02 -0.57675568993E+01  0.10452067440E+01  0.18050523932E+02  0.10000000000E+00 0. -1.
         21    1    1    2  504  502 -0.45707694611E+02 -0.11528910410E+02 -0.57493326562E+01  0.47488566496E+02  0.00000000000E+00 0.  1.
<mgrwt>
<rscale>  1 0.13359409E+03</rscale>
<asrwt>0</asrwt>
<pdfrwt beam="1">  1       21 0.78779901E-01 0.13359409E+03</pdfrwt>
<pdfrwt beam="2">  1       21 0.54926949E-02 0.13359409E+03</pdfrwt>
<totfact> 0.33084661E+05</totfact>
</mgrwt>
</event>
<event>
 6    1  0.4271609E-002  0.1299044E+03  0.7546771E-02  0.1227598E+00
         21   -1    0    0  503  502  0.00000000000E+00  0.00000000000E+00  0.24203145032E+02  0.24203145032E+02  0.00000000000E+00 0.  1.
         21   -1    0    0  504  503 -0.00000000000E+00 -0.00000000000E+00 -0.44353674519E+03  0.44353674519E+03  0.00000000000E+00 0.  1.
         25    2    1    2    0    0 -0.17235287070E+02 -0.30857010519E+02 -0.16040239005E+03  0.20640756963E+03  0.12500379133E+03 0.  0.
          5    1    3    3  501    0  0.53461849697E+02 -0.78994342393E+01 -0.83425335451E+02  0.99400035359E+02  0.10000000000E+00 0. -1.
         -5    1    3    3    0  501 -0.70697136766E+02 -0.22957576280E+02 -0.76977054598E+02  0.10700753427E+03  0.10000000000E+00 0. -1.
         21    1    1    2  504  502  0.17235287070E+02  0.30857010519E+02 -0.25893121011E+03  0.26133232060E+03  0.00000000000E+00 0. -1.
<mgrwt>
<rscale>  1 0.12990442E+03</rscale>
<asrwt>0</asrwt>
<pdfrwt beam="1">  1       21 0.37235609E-02 0.12990442E+03</pdfrwt>
<pdfrwt beam="2">  1       21 0.68236420E-01 0.12990442E+03</pdfrwt>
<totfact> 0.86969403E+05</totfact>
</mgrwt>
</event>
<event>
 6    1  0.4271609E-002  0.1267385E+03  0.7546771E-02  0.1232377E+00
         21   -1    0    0  503  502  0.00000000000E+00  0.00000000000E+00  0.30226844686E+01  0.30226844686E+01  0.00000000000E+00 0. -1.
         21   -1    0    0  504  503 -0.00000000000E+00 -0.00000000000E+00 -0.28421459561E+04  0.28421459561E+04  0.00000000000E+00 0. -1.
         25    2    1    2    0    0  0.15848702732E+02 -0.13681721195E+02 -0.13589165277E+04  0.13648138265E+04  0.12499712304E+03 0.  0.
          5    1    3    3  501    0  0.60766067871E+02 -0.29053431651E+02 -0.10612430259E+04  0.10633782897E+04  0.10000000000E+00 0. -1.
         -5    1    3    3    0  501 -0.44917365139E+02  0.15371710455E+02 -0.29767350180E+03  0.30143553680E+03  0.10000000000E+00 0. -1.
         21    1    1    2  504  502 -0.15848702732E+02  0.13681721195E+02 -0.14802067439E+04  0.14803548141E+04  0.00000000000E+00 0. -1.
<mgrwt>
<rscale>  1 0.12673852E+03</rscale>
<asrwt>0</asrwt>
<pdfrwt beam="1">  1       21 0.46502830E-03 0.12673852E+03</pdfrwt>
<pdfrwt beam="2">  1       21 0.43725330E+00 0.12673852E+03</pdfrwt>
<totfact> 0.68922459E+04</totfact>
</mgrwt>
</event>
<event>
 6    1  0.4271609E-002  0.1286696E+03  0.7546771E-02  0.1229443E+00
         21   -1    0    0  504  502  0.00000000000E+00  0.00000000000E+00  0.10118321407E+03  0.10118321407E+03  0.00000000000E+00 0. -1.
         21   -1    0    0  502  503 -0.00000000000E+00 -0.00000000000E+00 -0.62789707074E+02  0.62789707074E+02  0.00000000000E+00 0. -1.
         25    2    1    2    0    0 -0.25850260552E+02 -0.16267105514E+02  0.34253577110E+02  0.13315095313E+03  0.12499205608E+03 0.  0.
          5    1    3    3  501    0 -0.43059655470E+01 -0.56653779416E+02 -0.21734785888E+02  0.60832581558E+02  0.10000000000E+00 0. -1.
         -5    1    3    3    0  501 -0.21544295005E+02  0.40386673902E+02  0.55988362998E+02  0.72318371575E+02  0.10000000000E+00 0. -1.
         21    1    1    2  504  503  0.25850260552E+02  0.16267105514E+02  0.41399298823E+01  0.30821968007E+02  0.00000000000E+00 0.  1.
<mgrwt>
<rscale>  1 0.12866961E+03</rscale>
<asrwt>0</asrwt>
<pdfrwt beam="1">  1       21 0.15566648E-01 0.12866961E+03</pdfrwt>
<pdfrwt beam="2">  1       21 0.96599550E-02 0.12866961E+03</pdfrwt>
<totfact> 0.31290402E+06</totfact>
</mgrwt>
</event>
<event>
 6    1  0.4271609E-002  0.1349390E+03  0.7546771E-02  0.1220306E+00
         21   -1    0    0  504  502  0.00000000000E+00  0.00000000000E+00  0.90244384436E+03  0.90244384436E+03  0.00000000000E+00 0. -1.
         21   -1    0    0  502  503 -0.00000000000E+00 -0.00000000000E+00 -0.10850076135E+03  0.10850076135E+03  0.00000000000E+00 0.  1.
         25    2    1    2    0    0 -0.16582038992E+02  0.47989283633E+02  0.89113291179E+03  0.90129152467E+03  0.12502244046E+03 0.  0.
          5    1    3    3  501    0 -0.41260042917E+02 -0.24825665723E+02  0.19209681082E+03  0.19804014630E+03  0.10000000000E+00 0. -1.
         -5    1    3    3    0  501  0.24678003925E+02  0.72814949356E+02  0.69903610097E+03  0.70325137838E+03  0.10000000000E+00 0. -1.
         21    1    1    2  504  503  0.16582038992E+02 -0.47989283633E+02 -0.97189828786E+02  0.10965308103E+03  0.00000000000E+00 0.  1.
<mgrwt>
<rscale>  1 0.13493905E+03</rscale>
<asrwt>0</asrwt>
<pdfrwt beam="1">  1       21 0.13883751E+00 0.13493905E+03</pdfrwt>
<pdfrwt beam="2">  1       21 0.16692425E-01 0.13493905E+03</pdfrwt>
<totfact> 0.12345219E+04</totfact>
</mgrwt>
</event>
<event>
 6    1  0.4271609E-002  0.1280716E+03  0.7546771E-02  0.1230346E+00
         21   -1    0    0  503  502  0.00000000000E+00  0.00000000000E+00  0.27706152207E+03  0.27706152207E+03  0.00000000000E+00 0. -1.
         21   -1    0    0  504  503 -0.00000000000E+00 -0.00000000000E+00 -0.87287182973E+03  0.87287182973E+03  0.00000000000E+00 0.  1.
         25    2    1    2    0    0  0.18821823551E+02 -0.20432733308E+02  0.26202438627E+03  0.29164894688E+03  0.12502228436E+03 0.  0.
          5    1    3    3  501    0  0.68483915254E+02 -0.19587924810E+02  0.19926028958E+03  0.21160908877E+03  0.10000000000E+00 0. -1.
         -5    1    3    3    0  501 -0.49662091703E+02 -0.84480849794E+00  0.62764096687E+02  0.80039858112E+02  0.10000000000E+00 0. -1.
         21    1    1    2  504  502 -0.18821823551E+02  0.20432733308E+02 -0.85783469392E+03  0.85828440492E+03  0.00000000000E+00 0.  1.
<mgrwt>
<rscale>  1 0.12807158E+03</rscale>
<asrwt>0</asrwt>
<pdfrwt beam="1">  1       21 0.42624850E-01 0.12807158E+03</pdfrwt>
<pdfrwt beam="2">  1       21 0.13428797E+00 0.12807158E+03</pdfrwt>
<totfact> 0.22595289E+03</totfact>
</mgrwt>
</event>
<event>
 6    1  0.4271609E-002  0.1289806E+03  0.7546771E-02  0.1228976E+00
         21   -1    0    0  503  502  0.00000000000E+00  0.00000000000E+00  0.29685055663E+02  0.29685055663E+02  0.00000000000E+00 0. -1.
         21   -1    0    0  504  503 -0.00000000000E+00 -0.00000000000E+00 -0.67775352550E+03  0.67775352550E+03  0.00000000000E+00 0.  1.
         25    2    1    2    0    0  0.20687399030E+02 -0.24182183807E+02 -0.11316009714E+03  0.17158439048E+03  0.12499299572E+03 0.  0.
          5    1    3    3  501    0  0.58616034041E+02 -0.52302452676E+01 -0.11495880956E+03  0.12914616838E+03  0.10000000000E+00 0. -1.
         -5    1    3    3    0  501 -0.37928635011E+02 -0.18951938539E+02  0.17987124218E+01  0.42438222095E+02  0.10000000000E+00 0. -1.
         21    1    1    2  504  502 -0.20687399030E+02  0.24182183807E+02 -0.53490837270E+03  0.53585419069E+03  0.00000000000E+00 0.  1.
<mgrwt>
<rscale>  1 0.12898060E+03</rscale>
<asrwt>0</asrwt>
<pdfrwt beam="1">  1       21 0.45669310E-02 0.12898060E+03</pdfrwt>
<pdfrwt beam="2">  1       21 0.10426979E+00 0.12898060E+03</pdfrwt>
<totfact> 0.23744968E+05</totfact>
</mgrwt>
</event>
<event>
 6    1  0.4271609E-002  0.1637703E+03  0.7546771E-02  0.1184505E+00
         21   -1    0    0  503  502  0.00000000000E+00  0.00000000000E+00  0.69549944068E+02  0.69549944068E+02  0.00000000000E+00 0. -1.
         21   -1    0    0  504  503 -0.00000000000E+00 -0.00000000000E+00 -0.30017818926E+03  0.30017818926E+03  0.00000000000E+00 0. -1.
         25    2    1    2    0    0  0.63699340178E+02  0.84486373398E+02 -0.20212986831E+03  0.26014843305E+03  0.12500068130E+03 0.  0.
          5    1    3    3  501    0  0.61763694994E+02  0.24318942135E+02 -0.18649009681E+03  0.19795133537E+03  0.10000000000E+00 0. -1.
         -5    1    3    3    0  501  0.19356451841E+01  0.60167431263E+02 -0.15639771498E+02  0.62197097678E+02  0.10000000000E+00 0. -1.
         21    1    1    2  504  502 -0.63699340178E+02 -0.84486373398E+02 -0.28498376888E+02  0.10957970028E+03  0.00000000000E+00 0. -1.
<mgrwt>
<rscale>  1 0.16377034E+03</rscale>
<asrwt>0</asrwt>
<pdfrwt beam="1">  1       21 0.10699991E-01 0.16377034E+03</pdfrwt>
<pdfrwt beam="2">  1       21 0.46181260E-01 0.16377034E+03</pdfrwt>
<totfact> 0.32556312E+05</totfact>
</mgrwt>
</event>
<event>
 6    1  0.4271609E-002  0.1261422E+03  0.7546771E-02  0.1233295E+00
         21   -1    0    0  503  502  0.00000000000E+00  0.00000000000E+00  0.29345214916E+01  0.29345214916E+01  0.00000000000E+00 0.  1.
         21   -1    0    0  504  503 -0.00000000000E+00 -0.00000000000E+00 -0.18545213499E+04  0.18545213499E+04  0.00000000000E+00 0.  1.
         25    2    1    2    0    0  0.16865817458E+02  0.16735232200E+01 -0.14380379675E+04  0.14435598496E+04  0.12499834795E+03 0.  0.
          5    1    3    3  501    0  0.19942867139E+02 -0.60486927705E+02 -0.76947397185E+03  0.77210529704E+03  0.10000000000E+00 0. -1.
         -5    1    3    3    0  501 -0.30770496813E+01  0.62160450925E+02 -0.66856399563E+03  0.67145455256E+03  0.10000000000E+00 0. -1.
         21    1    1    2  504  502 -0.16865817458E+02 -0.16735232200E+01 -0.41354886092E+03  0.41389602179E+03  0.00000000000E+00 0. -1.
<mgrwt>
<rscale>  1 0.12614216E+03</rscale>
<asrwt>0</asrwt>
<pdfrwt beam="1">  1       21 0.45146295E-03 0.12614216E+03</pdfrwt>
<pdfrwt beam="2">  1       21 0.28531218E+00 0.12614216E+03</pdfrwt>
<totfact> 0.56694103E+05</totfact>
</mgrwt>
</event>
<event>
 6    1  0.4271609E-002  0.1264746E+03  0.7546771E-02  0.1232783E+00
         21   -1    0    0  503  502  0.00000000000E+00  0.00000000000E+00  0.45461064813E+03  0.45461064813E+03  0.00000000000E+00 0. -1.
         21   -1    0    0  504  503 -0.00000000000E+00 -0.00000000000E+00 -0.26611954282E+02  0.26611954282E+02  0.00000000000E+00 0. -1.
         25    2    1    2    0    0 -0.15744144548E+02  0.11070062103E+02  0.44048377739E+03  0.45828133668E+03  0.12500160417E+03 0.  0.
          5    1    3    3  501    0 -0.45438095036E+02  0.55331424490E+02  0.28741157811E+03  0.29619522658E+03  0.10000000000E+00 0.  1.
         -5    1    3    3    0  501  0.29693950488E+02 -0.44261362387E+02  0.15307219928E+03  0.16208611011E+03  0.10000000000E+00 0.  1.
         21    1    1    2  504  502  0.15744144548E+02 -0.11070062103E+02 -0.12485083538E+02  0.22941265734E+02  0.00000000000E+00 0. -1.
<mgrwt>
<rscale>  1 0.12647460E+03</rscale>
<asrwt>0</asrwt>
<pdfrwt beam="1">  1       21 0.69940094E-01 0.12647460E+03</pdfrwt>
<pdfrwt beam="2">  1       21 0.40941471E-02 0.12647460E+03</pdfrwt>
<totfact> 0.70427254E+05</totfact>
</mgrwt>
</event>
<event>
 6    1  0.4271609E-002  0.1349413E+03  0.7546771E-02  0.1220303E+00
         21   -1    0    0  503  502  0.00000000000E+00  0.00000000000E+00  0.45668910466E+02  0.45668910466E+02  0.00000000000E+00 0. -1.
         21   -1    0    0  504  503 -0.00000000000E+00 -0.00000000000E+00 -0.24364996801E+03  0.24364996801E+03  0.00000000000E+00 0. -1.
         25    2    1    2    0    0 -0.91959869969E+01  0.50071518602E+02 -0.70929208628E+02  0.15244705718E+03  0.12496971415E+03 0.  0.
          5    1    3    3  501    0 -0.40022235701E+02  0.71704662718E+02 -0.78981458500E+02  0.11393602939E+03  0.10000000000E+00 0. -1.
         -5    1    3    3    0  501  0.30826248704E+02 -0.21633144117E+02  0.80522498722E+01  0.38511027791E+02  0.10000000000E+00 0. -1.
         21    1    1    2  504  502  0.91959869969E+01 -0.50071518602E+02 -0.12705184892E+03  0.13687182130E+03  0.00000000000E+00 0. -1.
<mgrwt>
<rscale>  1 0.13494129E+03</rscale>
<asrwt>0</asrwt>
<pdfrwt beam="1">  1       21 0.70259864E-02 0.13494129E+03</pdfrwt>
<pdfrwt beam="2">  1       21 0.37484609E-01 0.13494129E+03</pdfrwt>
<totfact> 0.10332687E+06</totfact>
</mgrwt>
</event>
<event>
 6    1  0.4271609E-002  0.1270304E+03  0.7546771E-02  0.1231930E+00
         21   -1    0    0  503  502  0.00000000000E+00  0.00000000000E+00  0.46806495378E+03  0.46806495378E+03  0.00000000000E+00 0.  1.
         21   -1    0    0  504  503 -0.00000000000E+00 -0.00000000000E+00 -0.78407998048E+03  0.78407998048E+03  0.00000000000E+00 0.  1.
         25    2    1    2    0    0  0.10821978793E+02  0.19853256992E+02  0.45927824235E+03  0.47652201036E+03  0.12500182169E+03 0.  0.
          5    1    3    3  501    0  0.36329881810E+02 -0.14658207237E+01  0.33473795895E+02  0.49421796349E+02  0.10000000000E+00 0. -1.
         -5    1    3    3    0  501 -0.25507903017E+02  0.21319077716E+02  0.42580444645E+03  0.42710021401E+03  0.10000000000E+00 0. -1.
         21    1    1    2  504  502 -0.10821978793E+02 -0.19853256992E+02 -0.77529326906E+03  0.77562292390E+03  0.00000000000E+00 0.  1.
<mgrwt>
<rscale>  1 0.12703040E+03</rscale>
<asrwt>0</asrwt>
<pdfrwt beam="1">  1       21 0.72009994E-01 0.12703040E+03</pdfrwt>
<pdfrwt beam="2">  1       21 0.12062769E+00 0.12703040E+03</pdfrwt>
<totfact> 0.98209680E+02</totfact>
</mgrwt>
</event>
<event>
 6    1  0.4271609E-002  0.1259992E+03  0.7546771E-02  0.1233516E+00
         21   -1    0    0  503  502  0.00000000000E+00  0.00000000000E+00  0.62195610700E+02  0.62195610700E+02  0.00000000000E+00 0.  1.
         21   -1    0    0  504  503 -0.00000000000E+00 -0.00000000000E+00 -0.10431899925E+03  0.10431899925E+03  0.00000000000E+00 0.  1.
         25    2    1    2    0    0 -0.94322277699E+01 -0.12786641064E+02 -0.49598050528E+01  0.12609682861E+03  0.12499338146E+03 0.  0.
          5    1    3    3  501    0  0.20383078157E+02  0.21020843297E+02 -0.52793856713E+02  0.60370083938E+02  0.10000000000E+00 0.  1.
         -5    1    3    3    0  501 -0.29815305927E+02 -0.33807484361E+02  0.47834051660E+02  0.65726744667E+02  0.10000000000E+00 0.  1.
         21    1    1    2  504  502  0.94322277699E+01  0.12786641064E+02 -0.37163583499E+02  0.40417781345E+02  0.00000000000E+00 0.  1.
<mgrwt>
<rscale>  1 0.12599925E+03</rscale>
<asrwt>0</asrwt>
<pdfrwt beam="1">  1       21 0.95685555E-02 0.12599925E+03</pdfrwt>
<pdfrwt beam="2">  1       21 0.16049077E-01 0.12599925E+03</pdfrwt>
<totfact> 0.30078830E+06</totfact>
</mgrwt>
</event>
<event>
 6    1  0.4271609E-002  0.1488927E+03  0.7546771E-02  0.1201840E+00
         21   -1    0    0  504  502  0.00000000000E+00  0.00000000000E+00  0.22209632033E+03  0.22209632033E+03  0.00000000000E+00 0. -1.
         21   -1    0    0  502  503 -0.00000000000E+00 -0.00000000000E+00 -0.61246780226E+02  0.61246780226E+02  0.00000000000E+00 0. -1.
         25    2    1    2    0    0  0.36500923507E+02  0.72213540824E+02  0.12675175330E+03  0.19553779342E+03  0.12498763458E+03 0.  0.
          5    1    3    3  501    0  0.30391860428E+02  0.85395240459E+00 -0.17071145024E+02  0.34868731084E+02  0.10000000000E+00 0. -1.
         -5    1    3    3    0  501  0.61090630791E+01  0.71359588420E+02  0.14382289832E+03  0.16066906234E+03  0.10000000000E+00 0. -1.
         21    1    1    2  504  503 -0.36500923507E+02 -0.72213540824E+02  0.34097786800E+02  0.87805307128E+02  0.00000000000E+00 0. -1.
<mgrwt>
<rscale>  1 0.14889265E+03</rscale>
<asrwt>0</asrwt>
<pdfrwt beam="1">  1       21 0.34168664E-01 0.14889265E+03</pdfrwt>
<pdfrwt beam="2">  1       21 0.94225817E-02 0.14889265E+03</pdfrwt>
<totfact> 0.74671866E+05</totfact>
</mgrwt>
</event>
<event>
 6    1  0.4271609E-002  0.1266052E+03  0.7546771E-02  0.1232582E+00
         21   -1    0    0  503  502  0.00000000000E+00  0.00000000000E+00  0.34408782432E+02  0.34408782432E+02  0.00000000000E+00 0.  1.
         21   -1    0    0  504  503 -0.00000000000E+00 -0.00000000000E+00 -0.29642868372E+03  0.29642868372E+03  0.00000000000E+00 0.  1.
         25    2    1    2    0    0  0.20030343609E+02  0.30311087090E+00 -0.84553059283E+02  0.15224355093E+03  0.12501028928E+03 0.  0.
          5    1    3    3  501    0  0.99938074701E+01 -0.31821534371E+02  0.22361740395E+02  0.40156489774E+02  0.10000000000E+00 0. -1.
         -5    1    3    3    0  501  0.10036536139E+02  0.32124645242E+02 -0.10691479968E+03  0.11208706116E+03  0.10000000000E+00 0. -1.
         21    1    1    2  504  502 -0.20030343609E+02 -0.30311087090E+00 -0.17746684201E+03  0.17859391522E+03  0.00000000000E+00 0.  1.
<mgrwt>
<rscale>  1 0.12660521E+03</rscale>
<asrwt>0</asrwt>
<pdfrwt beam="1">  1       21 0.52936589E-02 0.12660521E+03</pdfrwt>
<pdfrwt beam="2">  1       21 0.45604413E-01 0.12660521E+03</pdfrwt>
<totfact> 0.11263091E+06</totfact>
</mgrwt>
</event>
<event>
 6    1  0.4271609E-002  0.1282445E+03  0.7546771E-02  0.1230084E+00
         21   -1    0    0  504  502  0.00000000000E+00  0.00000000000E+00  0.11937334226E+03  0.11937334226E+03  0.00000000000E+00 0. -1.
         21   -1    0    0  502  503 -0.00000000000E+00 -0.00000000000E+00 -0.59812025779E+02  0.59812025779E+02  0.00000000000E+00 0. -1.
         25    2    1    2    0    0 -0.10603222065E+02 -0.26571827630E+02  0.73012241046E+02  0.14757179954E+03  0.12501263270E+03 0.  0.
          5    1    3    3  501    0  0.16172880714E+02  0.47077233412E+02  0.25519394910E+02  0.55938157754E+02  0.10000000000E+00 0.  1.
         -5    1    3    3    0  501 -0.26776102780E+02 -0.73649061042E+02  0.47492846136E+02  0.91633641783E+02  0.10000000000E+00 0.  1.
         21    1    1    2  504  503  0.10603222065E+02  0.26571827630E+02 -0.13450924565E+02  0.31613568502E+02  0.00000000000E+00 0. -1.
<mgrwt>
<rscale>  1 0.12824449E+03</rscale>
<asrwt>0</asrwt>
<pdfrwt beam="1">  1       21 0.18365130E-01 0.12824449E+03</pdfrwt>
<pdfrwt beam="2">  1       21 0.92018501E-02 0.12824449E+03</pdfrwt>
<totfact> 0.25200890E+06</totfact>
</mgrwt>
</event>
<event>
 6    1  0.4271609E-002  0.1317303E+03  0.7546771E-02  0.1224911E+00
         21   -1    0    0  503  502  0.00000000000E+00  0.00000000000E+00  0.83456713562E+03  0.83456713562E+03  0.00000000000E+00 0. -1.
         21   -1    0    0  504  503 -0.00000000000E+00 -0.00000000000E+00 -0.20058290122E+02  0.20058290122E+02  0.00000000000E+00 0. -1.
         25    2    1    2    0    0  0.20941311106E+02 -0.35900563449E+02  0.79974160235E+03  0.81051805179E+03  0.12500197112E+03 0.  0.
          5    1    3    3  501    0  0.59235378794E+02 -0.79607494342E+01  0.66501301199E+03  0.66769343246E+03  0.10000000000E+00 0. -1.
         -5    1    3    3    0  501 -0.38294067688E+02 -0.27939814015E+02  0.13472859036E+03  0.14282461933E+03  0.10000000000E+00 0. -1.
         21    1    1    2  504  502 -0.20941311106E+02  0.35900563449E+02  0.14767243150E+02  0.44107373953E+02  0.00000000000E+00 0. -1.
<mgrwt>
<rscale>  1 0.13173034E+03</rscale>
<asrwt>0</asrwt>
<pdfrwt beam="1">  1       21 0.12839492E+00 0.13173034E+03</pdfrwt>
<pdfrwt beam="2">  1       21 0.30858914E-02 0.13173034E+03</pdfrwt>
<totfact> 0.27453050E+05</totfact>
</mgrwt>
</event>
<event>
 6    1  0.4271609E-002  0.1281196E+03  0.7546771E-02  0.1230273E+00
         21   -1    0    0  504  502  0.00000000000E+00  0.00000000000E+00  0.34489171159E+03  0.34489171159E+03  0.00000000000E+00 0. -1.
         21   -1    0    0  502  503 -0.00000000000E+00 -0.00000000000E+00 -0.18804384915E+02  0.18804384915E+02  0.00000000000E+00 0. -1.
         25    2    1    2    0    0 -0.24073130370E+02 -0.14520328274E+02  0.29589586759E+03  0.32244225135E+03  0.12499714179E+03 0.  0.
          5    1    3    3  501    0  0.11619896761E+02 -0.32853201796E+02  0.13758000848E+02  0.37465283347E+02  0.10000000000E+00 0.  1.
         -5    1    3    3    0  501 -0.35693027132E+02  0.18332873521E+02  0.28213786675E+03  0.28497696800E+03  0.10000000000E+00 0.  1.
         21    1    1    2  504  503  0.24073130370E+02  0.14520328274E+02  0.30191459083E+02  0.41253845162E+02  0.00000000000E+00 0. -1.
<mgrwt>
<rscale>  1 0.12811964E+03</rscale>
<asrwt>0</asrwt>
<pdfrwt beam="1">  1       21 0.53060259E-01 0.12811964E+03</pdfrwt>
<pdfrwt beam="2">  1       21 0.28929825E-02 0.12811964E+03</pdfrwt>
<totfact> 0.22486585E+06</totfact>
</mgrwt>
</event>
<event>
 6    1  0.4271609E-002  0.1268909E+03  0.7546771E-02  0.1232143E+00
         21   -1    0    0  503  502  0.00000000000E+00  0.00000000000E+00  0.22315550260E+03  0.22315550260E+03  0.00000000000E+00 0. -1.
         21   -1    0    0  504  503 -0.00000000000E+00 -0.00000000000E+00 -0.24803636305E+02  0.24803636305E+02  0.00000000000E+00 0. -1.
         25    2    1    2    0    0  0.21389233913E+02  0.44548741520E+01  0.17159071619E+03  0.21341200609E+03  0.12499586084E+03 0.  0.
          5    1    3    3  501    0 -0.47980210224E+02  0.24833145655E+02  0.83441150944E+02  0.99404332738E+02  0.10000000000E+00 0.  1.
         -5    1    3    3    0  501  0.69369444137E+02 -0.20378271503E+02  0.88149565247E+02  0.11400767335E+03  0.10000000000E+00 0.  1.
         21    1    1    2  504  502 -0.21389233913E+02 -0.44548741520E+01  0.26761150104E+02  0.34547132818E+02  0.00000000000E+00 0. -1.
<mgrwt>
<rscale>  1 0.12689094E+03</rscale>
<asrwt>0</asrwt>
<pdfrwt beam="1">  1       21 0.34331614E-01 0.12689094E+03</pdfrwt>
<pdfrwt beam="2">  1       21 0.38159442E-02 0.12689094E+03</pdfrwt>
<totfact> 0.34289809E+06</totfact>
</mgrwt>
</event>
<event>
 6    1  0.4271609E-002  0.1266180E+03  0.7546771E-02  0.1232562E+00
         21   -1    0    0  504  502  0.00000000000E+00  0.00000000000E+00  0.31276957259E+03  0.31276957259E+03  0.00000000000E+00 0.  1.
         21   -1    0    0  502  503 -0.00000000000E+00 -0.00000000000E+00 -0.10570520739E+03  0.10570520739E+03  0.00000000000E+00 0.  1.
         25    2    1    2    0    0  0.62588686014E+01 -0.19186772638E+02  0.29881310475E+03  0.32453258026E+03  0.12499927358E+03 0.  0.
          5    1    3    3  501    0 -0.30414797686E+02  0.43485486477E+02  0.10703785369E+03  0.11947032926E+03  0.10000000000E+00 0. -1.
         -5    1    3    3    0  501  0.36673666287E+02 -0.62672259116E+02  0.19177525106E+03  0.20506225099E+03  0.10000000000E+00 0. -1.
         21    1    1    2  504  503 -0.62588686014E+01  0.19186772638E+02 -0.91748739550E+02  0.93942199726E+02  0.00000000000E+00 0.  1.
<mgrwt>
<rscale>  1 0.12661802E+03</rscale>
<asrwt>0</asrwt>
<pdfrwt beam="1">  1       21 0.48118395E-01 0.12661802E+03</pdfrwt>
<pdfrwt beam="2">  1       21 0.16262340E-01 0.12661802E+03</pdfrwt>
<totfact> 0.14276634E+05</totfact>
</mgrwt>
</event>
<event>
 6    1  0.4271609E-002  0.1266033E+03  0.7546771E-02  0.1232585E+00
         21   -1    0    0  504  502  0.00000000000E+00  0.00000000000E+00  0.16975040816E+02  0.16975040816E+02  0.00000000000E+00 0.  1.
         21   -1    0    0  502  503 -0.00000000000E+00 -0.00000000000E+00 -0.60608833463E+03  0.60608833463E+03  0.00000000000E+00 0.  1.
         25    2    1    2    0    0  0.46466387258E+01 -0.19550325338E+02 -0.22325670882E+03  0.25665534162E+03  0.12499839949E+03 0.  0.
          5    1    3    3  501    0 -0.50180297128E+02 -0.43716004474E+02 -0.12338776795E+03  0.14019166361E+03  0.10000000000E+00 0.  1.
         -5    1    3    3    0  501  0.54826935854E+02  0.24165679136E+02 -0.99868940876E+02  0.11646367801E+03  0.10000000000E+00 0.  1.
         21    1    1    2  504  503 -0.46466387258E+01  0.19550325338E+02 -0.36585658499E+03  0.36640803383E+03  0.00000000000E+00 0.  1.
<mgrwt>
<rscale>  1 0.12660334E+03</rscale>
<asrwt>0</asrwt>
<pdfrwt beam="1">  1       21 0.26115445E-02 0.12660334E+03</pdfrwt>
<pdfrwt beam="2">  1       21 0.93244367E-01 0.12660334E+03</pdfrwt>
<totfact> 0.77541614E+05</totfact>
</mgrwt>
</event>
<event>
 6    1  0.4271609E-002  0.1517659E+03  0.7546771E-02  0.1198320E+00
         21   -1    0    0  504  502  0.00000000000E+00  0.00000000000E+00  0.86239879092E+02  0.86239879092E+02  0.00000000000E+00 0. -1.
         21   -1    0    0  502  503 -0.00000000000E+00 -0.00000000000E+00 -0.17699745337E+03  0.17699745337E+03  0.00000000000E+00 0. -1.
         25    2    1    2    0    0 -0.22652604069E+02  0.83031575394E+02 -0.22573599314E+02  0.15343552271E+03  0.12500203702E+03 0.  0.
          5    1    3    3  501    0 -0.71652629736E+02  0.68691493253E+02 -0.24869696499E+02  0.10232855123E+03  0.10000000000E+00 0. -1.
         -5    1    3    3    0  501  0.49000025667E+02  0.14340082141E+02  0.22960971854E+01  0.51106971476E+02  0.10000000000E+00 0. -1.
         21    1    1    2  504  503  0.22652604069E+02 -0.83031575394E+02 -0.68183974967E+02  0.10980180976E+03  0.00000000000E+00 0. -1.
<mgrwt>
<rscale>  1 0.15176591E+03</rscale>
<asrwt>0</asrwt>
<pdfrwt beam="1">  1       21 0.13267674E-01 0.15176591E+03</pdfrwt>
<pdfrwt beam="2">  1       21 0.27230377E-01 0.15176591E+03</pdfrwt>
<totfact> 0.63295937E+05</totfact>
</mgrwt>
</event>
<event>
 6    1  0.4271609E-002  0.1279800E+03  0.7546771E-02  0.1230484E+00
         21   -1    0    0  503  502  0.00000000000E+00  0.00000000000E+00  0.12222216380E+03  0.12222216380E+03  0.00000000000E+00 0. -1.
         21   -1    0    0  504  503 -0.00000000000E+00 -0.00000000000E+00 -0.57806714241E+02  0.57806714241E+02  0.00000000000E+00 0.  1.
         25    2    1    2    0    0  0.12850151545E+02 -0.24266332628E+02  0.77495130366E+02  0.14961408980E+03  0.12499959737E+03 0.  0.
          5    1    3    3  501    0 -0.34058650067E+01  0.34637863083E+02  0.81251712884E+02  0.88392490190E+02  0.10000000000E+00 0. -1.
         -5    1    3    3    0  501  0.16256016552E+02 -0.58904195711E+02 -0.37565825174E+01  0.61221599609E+02  0.10000000000E+00 0. -1.
         21    1    1    2  504  502 -0.12850151545E+02  0.24266332628E+02 -0.13079680805E+02  0.30414788244E+02  0.00000000000E+00 0.  1.
<mgrwt>
<rscale>  1 0.12798000E+03</rscale>
<asrwt>0</asrwt>
<pdfrwt beam="1">  1       21 0.18803410E-01 0.12798000E+03</pdfrwt>
<pdfrwt beam="2">  1       21 0.88933407E-02 0.12798000E+03</pdfrwt>
<totfact> 0.25604765E+06</totfact>
</mgrwt>
</event>
<event>
 6    1  0.4271609E-002  0.1336341E+03  0.7546771E-02  0.1222161E+00
         21   -1    0    0  504  502  0.00000000000E+00  0.00000000000E+00  0.10337687728E+04  0.10337687728E+04  0.00000000000E+00 0. -1.
         21   -1    0    0  502  503 -0.00000000000E+00 -0.00000000000E+00 -0.61374116780E+02  0.61374116780E+02  0.00000000000E+00 0.  1.
         25    2    1    2    0    0 -0.34045355837E+02  0.32751735103E+02  0.10196228218E+04  0.10283427246E+04  0.12500519273E+03 0.  0.
          5    1    3    3  501    0 -0.80932516213E+02  0.10578278328E+02  0.64671642378E+03  0.65184669588E+03  0.10000000000E+00 0. -1.
         -5    1    3    3    0  501  0.46887160376E+02  0.22173456775E+02  0.37290639800E+03  0.37649602875E+03  0.10000000000E+00 0. -1.
         21    1    1    2  504  503  0.34045355837E+02 -0.32751735103E+02 -0.47228165713E+02  0.66800164992E+02  0.00000000000E+00 0.  1.
<mgrwt>
<rscale>  1 0.13363405E+03</rscale>
<asrwt>0</asrwt>
<pdfrwt beam="1">  1       21 0.15904134E+00 0.13363405E+03</pdfrwt>
<pdfrwt beam="2">  1       21 0.94421725E-02 0.13363405E+03</pdfrwt>
<totfact> 0.23972864E+04</totfact>
</mgrwt>
</event>
<event>
 6    1  0.4271609E-002  0.1283797E+03  0.7546771E-02  0.1229880E+00
         21   -1    0    0  504  502  0.00000000000E+00  0.00000000000E+00  0.11097694358E+03  0.11097694358E+03  0.00000000000E+00 0.  1.
         21   -1    0    0  502  503 -0.00000000000E+00 -0.00000000000E+00 -0.56281736042E+02  0.56281736042E+02  0.00000000000E+00 0.  1.
         25    2    1    2    0    0  0.37353343395E+01  0.29044400891E+02  0.39819216564E+02  0.13441320728E+03  0.12499524126E+03 0.  0.
          5    1    3    3  501    0  0.22870053320E+02 -0.25102896037E+02 -0.29086887541E+02  0.44712993135E+02  0.10000000000E+00 0.  1.
         -5    1    3    3    0  501 -0.19134718980E+02  0.54147296928E+02  0.68906104104E+02  0.89700214146E+02  0.10000000000E+00 0.  1.
         21    1    1    2  504  503 -0.37353343395E+01 -0.29044400891E+02  0.14875990971E+02  0.32845472338E+02  0.00000000000E+00 0.  1.
<mgrwt>
<rscale>  1 0.12837967E+03</rscale>
<asrwt>0</asrwt>
<pdfrwt beam="1">  1       21 0.17073376E-01 0.12837967E+03</pdfrwt>
<pdfrwt beam="2">  1       21 0.86587287E-02 0.12837967E+03</pdfrwt>
<totfact> 0.32002523E+06</totfact>
</mgrwt>
</event>
<event>
 6    1  0.4271609E-002  0.1306500E+03  0.7546771E-02  0.1226494E+00
         21   -1    0    0  504  502  0.00000000000E+00  0.00000000000E+00  0.49600918255E+02  0.49600918255E+02  0.00000000000E+00 0.  1.
         21   -1    0    0  502  503 -0.00000000000E+00 -0.00000000000E+00 -0.23555142885E+03  0.23555142885E+03  0.00000000000E+00 0.  1.
         25    2    1    2    0    0 -0.36729465280E+02 -0.97954743853E+01 -0.43475850175E+02  0.13769376377E+03  0.12499767235E+03 0.  0.
          5    1    3    3  501    0 -0.16594713134E+02  0.23656829362E+02 -0.79487823329E+02  0.84577503729E+02  0.10000000000E+00 0.  1.
         -5    1    3    3    0  501 -0.20134752145E+02 -0.33452303747E+02  0.36011973154E+02  0.53116260038E+02  0.10000000000E+00 0.  1.
         21    1    1    2  504  503  0.36729465280E+02  0.97954743853E+01 -0.14247466042E+03  0.14745858334E+03  0.00000000000E+00 0.  1.
<mgrwt>
<rscale>  1 0.13065000E+03</rscale>
<asrwt>0</asrwt>
<pdfrwt beam="1">  1       21 0.76309106E-02 0.13065000E+03</pdfrwt>
<pdfrwt beam="2">  1       21 0.36238681E-01 0.13065000E+03</pdfrwt>
<totfact> 0.95853816E+05</totfact>
</mgrwt>
</event>
<event>
 6    1  0.4271609E-002  0.1978207E+03  0.7546771E-02  0.1151591E+00
         21   -1    0    0  503  502  0.00000000000E+00  0.00000000000E+00  0.49160769830E+02  0.49160769830E+02  0.00000000000E+00 0. -1.
         21   -1    0    0  504  503 -0.00000000000E+00 -0.00000000000E+00 -0.17113882198E+04  0.17113882198E+04  0.00000000000E+00 0.  1.
         25    2    1    2    0    0  0.17389260346E+02 -0.15233127844E+03 -0.17106993354E+03  0.26152999590E+03  0.12500324726E+03 0.  0.
          5    1    3    3  501    0  0.42555432943E+01  0.20607918222E+02 -0.36011996212E+02  0.41709349232E+02  0.10000000000E+00 0.  1.
         -5    1    3    3    0  501  0.13133717051E+02 -0.17293919666E+03 -0.13505793733E+03  0.21982064667E+03  0.10000000000E+00 0.  1.
         21    1    1    2  504  502 -0.17389260346E+02  0.15233127844E+03 -0.14911575164E+04  0.14990189937E+04  0.00000000000E+00 0.  1.
<mgrwt>
<rscale>  1 0.19782067E+03</rscale>
<asrwt>0</asrwt>
<pdfrwt beam="1">  1       21 0.75631951E-02 0.19782067E+03</pdfrwt>
<pdfrwt beam="2">  1       21 0.26329050E+00 0.19782067E+03</pdfrwt>
<totfact> 0.73177125E+03</totfact>
</mgrwt>
</event>
<event>
 6    1  0.4271609E-002  0.1315031E+03  0.7546771E-02  0.1225242E+00
         21   -1    0    0  504  502  0.00000000000E+00  0.00000000000E+00  0.10947761573E+03  0.10947761573E+03  0.00000000000E+00 0. -1.
         21   -1    0    0  502  503 -0.00000000000E+00 -0.00000000000E+00 -0.68295252526E+02  0.68295252526E+02  0.00000000000E+00 0. -1.
         25    2    1    2    0    0  0.28943489671E+02 -0.28815895401E+02  0.37605433642E+02  0.13677438234E+03  0.12499992641E+03 0.  0.
          5    1    3    3  501    0  0.18147319565E+02 -0.47681662698E+02 -0.34417921391E+02  0.61542420150E+02  0.10000000000E+00 0.  1.
         -5    1    3    3    0  501  0.10796170106E+02  0.18865767298E+02  0.72023355032E+02  0.75231962189E+02  0.10000000000E+00 0.  1.
         21    1    1    2  504  503 -0.28943489671E+02  0.28815895401E+02  0.35769295582E+01  0.40998485913E+02  0.00000000000E+00 0. -1.
<mgrwt>
<rscale>  1 0.13150309E+03</rscale>
<asrwt>0</asrwt>
<pdfrwt beam="1">  1       21 0.16842710E-01 0.13150309E+03</pdfrwt>
<pdfrwt beam="2">  1       21 0.10506962E-01 0.13150309E+03</pdfrwt>
<totfact> 0.23430008E+06</totfact>
</mgrwt>
</event>
<event>
 6    1  0.4271609E-002  0.1262581E+03  0.7546771E-02  0.1233116E+00
         21   -1    0    0  503  502  0.00000000000E+00  0.00000000000E+00  0.39789888946E+03  0.39789888946E+03  0.00000000000E+00 0.  1.
         21   -1    0    0  504  503 -0.00000000000E+00 -0.00000000000E+00 -0.13073967404E+02  0.13073967404E+02  0.00000000000E+00 0.  1.
         25    2    1    2    0    0  0.11339184709E+02  0.13664394747E+02  0.32914653705E+03  0.35253164409E+03  0.12500329771E+03 0.  0.
          5    1    3    3  501    0 -0.32121168827E+02 -0.23762408075E+02  0.25833303416E+03  0.26140464430E+03  0.10000000000E+00 0. -1.
         -5    1    3    3    0  501  0.43460353536E+02  0.37426802821E+02  0.70813502898E+02  0.91126999795E+02  0.10000000000E+00 0. -1.
         21    1    1    2  504  502 -0.11339184709E+02 -0.13664394747E+02  0.55678384997E+02  0.58441212766E+02  0.00000000000E+00 0.  1.
<mgrwt>
<rscale>  1 0.12625814E+03</rscale>
<asrwt>0</asrwt>
<pdfrwt beam="1">  1       21 0.61215205E-01 0.12625814E+03</pdfrwt>
<pdfrwt beam="2">  1       21 0.20113799E-02 0.12625814E+03</pdfrwt>
<totfact> 0.30028852E+06</totfact>
</mgrwt>
</event>
<event>
 6    1  0.4271609E-002  0.1275391E+03  0.7546771E-02  0.1231154E+00
         21   -1    0    0  503  502  0.00000000000E+00  0.00000000000E+00  0.16579909612E+02  0.16579909612E+02  0.00000000000E+00 0. -1.
         21   -1    0    0  504  503 -0.00000000000E+00 -0.00000000000E+00 -0.43106323190E+03  0.43106323190E+03  0.00000000000E+00 0. -1.
         25    2    1    2    0    0  0.22463328729E+01  0.25150336519E+02 -0.24421409911E+03  0.27551181433E+03  0.12501459190E+03 0.  0.
          5    1    3    3  501    0  0.18048300809E+02  0.22172656508E+02  0.21060998678E+01  0.28667289989E+02  0.10000000000E+00 0. -1.
         -5    1    3    3    0  501 -0.15801967936E+02  0.29776800117E+01 -0.24632019898E+03  0.24684452434E+03  0.10000000000E+00 0. -1.
         21    1    1    2  504  502 -0.22463328729E+01 -0.25150336519E+02 -0.17026922317E+03  0.17213132719E+03  0.00000000000E+00 0. -1.
<mgrwt>
<rscale>  1 0.12753915E+03</rscale>
<asrwt>0</asrwt>
<pdfrwt beam="1">  1       21 0.25507558E-02 0.12753915E+03</pdfrwt>
<pdfrwt beam="2">  1       21 0.66317409E-01 0.12753915E+03</pdfrwt>
<totfact> 0.17213498E+06</totfact>
</mgrwt>
</event>
<event>
 6    1  0.4271609E-002  0.1468198E+03  0.7546771E-02  0.1204436E+00
         21   -1    0    0  504  502  0.00000000000E+00  0.00000000000E+00  0.15562974605E+03  0.15562974605E+03  0.00000000000E+00 0. -1.
         21   -1    0    0  502  503 -0.00000000000E+00 -0.00000000000E+00 -0.20382832117E+03  0.20382832117E+03  0.00000000000E+00 0.  1.
         25    2    1    2    0    0 -0.33950533480E+00  0.77078909762E+02  0.11001652913E+03  0.18346575828E+03  0.12495909005E+03 0.  0.
          5    1    3    3  501    0 -0.12228913753E+02 -0.32623765289E+02  0.15329168608E+02  0.38063759712E+02  0.10000000000E+00 0. -1.
         -5    1    3    3    0  501  0.11889408418E+02  0.10970267505E+03  0.94687360519E+02  0.14540199857E+03  0.10000000000E+00 0. -1.
         21    1    1    2  504  503  0.33950533480E+00 -0.77078909762E+02 -0.15821510425E+03  0.17599230894E+03  0.00000000000E+00 0.  1.
<mgrwt>
<rscale>  1 0.14681978E+03</rscale>
<asrwt>0</asrwt>
<pdfrwt beam="1">  1       21 0.23943038E-01 0.14681978E+03</pdfrwt>
<pdfrwt beam="2">  1       21 0.31358203E-01 0.14681978E+03</pdfrwt>
<totfact> 0.16301984E+05</totfact>
</mgrwt>
</event>
<event>
 6    1  0.4271609E-002  0.1261965E+03  0.7546771E-02  0.1233211E+00
         21   -1    0    0  503  502  0.00000000000E+00  0.00000000000E+00  0.17145147959E+03  0.17145147959E+03  0.00000000000E+00 0. -1.
         21   -1    0    0  504  503 -0.00000000000E+00 -0.00000000000E+00 -0.17681987350E+03  0.17681987350E+03  0.00000000000E+00 0. -1.
         25    2    1    2    0    0  0.15859246124E+02  0.69559216705E+01  0.14767513164E+03  0.19425115556E+03  0.12500266556E+03 0.  0.
          5    1    3    3  501    0 -0.58079427197E+01  0.17279653400E+02 -0.18722423203E+02  0.26131547043E+02  0.10000000000E+00 0. -1.
         -5    1    3    3    0  501  0.21667188844E+02 -0.10323731729E+02  0.16639755485E+03  0.16811960852E+03  0.10000000000E+00 0. -1.
         21    1    1    2  504  502 -0.15859246124E+02 -0.69559216705E+01 -0.15304352556E+03  0.15402019754E+03  0.00000000000E+00 0. -1.
<mgrwt>
<rscale>  1 0.12619654E+03</rscale>
<asrwt>0</asrwt>
<pdfrwt beam="1">  1       21 0.26377151E-01 0.12619654E+03</pdfrwt>
<pdfrwt beam="2">  1       21 0.27203058E-01 0.12619654E+03</pdfrwt>
<totfact> 0.17950609E+05</totfact>
</mgrwt>
</event>
<event>
 6    1  0.4271609E-002  0.1308836E+03  0.7546771E-02  0.1226150E+00
         21   -1    0    0  504  502  0.00000000000E+00  0.00000000000E+00  0.15835708096E+02  0.15835708096E+02  0.00000000000E+00 0.  1.
         21   -1    0    0  502  503 -0.00000000000E+00 -0.00000000000E+00 -0.46727544364E+03  0.46727544364E+03  0.00000000000E+00 0.  1.
         25    2    1    2    0    0 -0.33712393229E+02 -0.19208155784E+02 -0.31120935924E+03  0.33761188320E+03  0.12500015878E+03 0.  0.
          5    1    3    3  501    0 -0.75861797829E+02 -0.37389691180E+02 -0.21410653303E+03  0.23020560128E+03  0.10000000000E+00 0. -1.
         -5    1    3    3    0  501  0.42149404600E+02  0.18181535396E+02 -0.97102826215E+02  0.10740628192E+03  0.10000000000E+00 0. -1.
         21    1    1    2  504  503  0.33712393229E+02  0.19208155784E+02 -0.14023037630E+03  0.14549926853E+03  0.00000000000E+00 0.  1.
<mgrwt>
<rscale>  1 0.13088361E+03</rscale>
<asrwt>0</asrwt>
<pdfrwt beam="1">  1       21 0.24362630E-02 0.13088361E+03</pdfrwt>
<pdfrwt beam="2">  1       21 0.71888524E-01 0.13088361E+03</pdfrwt>
<totfact> 0.15570420E+06</totfact>
</mgrwt>
</event>
<event>
 6    1  0.4271609E-002  0.1304918E+03  0.7546771E-02  0.1226728E+00
         21   -1    0    0  503  502  0.00000000000E+00  0.00000000000E+00  0.86413242577E+03  0.86413242577E+03  0.00000000000E+00 0. -1.
         21   -1    0    0  504  503 -0.00000000000E+00 -0.00000000000E+00 -0.93149634954E+01  0.93149634954E+01  0.00000000000E+00 0. -1.
         25    2    1    2    0    0  0.15386371674E+02 -0.34150631155E+02  0.76629793432E+03  0.77732916586E+03  0.12500040764E+03 0.  0.
          5    1    3    3  501    0  0.68435699149E+02 -0.22069873187E+01  0.38747134011E+03  0.39347473250E+03  0.10000000000E+00 0. -1.
         -5    1    3    3    0  501 -0.53049327474E+02 -0.31943643836E+02  0.37882659420E+03  0.38385443335E+03  0.10000000000E+00 0. -1.
         21    1    1    2  504  502 -0.15386371674E+02  0.34150631155E+02  0.88519527960E+02  0.96118223411E+02  0.00000000000E+00 0. -1.
<mgrwt>
<rscale>  1 0.13049179E+03</rscale>
<asrwt>0</asrwt>
<pdfrwt beam="1">  1       21 0.13294339E+00 0.13049179E+03</pdfrwt>
<pdfrwt beam="2">  1       21 0.14330720E-02 0.13049179E+03</pdfrwt>
<totfact> 0.87085195E+05</totfact>
</mgrwt>
</event>
<event>
 6    1  0.4271609E-002  0.1309321E+03  0.7546771E-02  0.1226079E+00
         21   -1    0    0  503  502  0.00000000000E+00  0.00000000000E+00  0.97288464334E+02  0.97288464334E+02  0.00000000000E+00 0.  1.
         21   -1    0    0  504  503 -0.00000000000E+00 -0.00000000000E+00 -0.11016453905E+03  0.11016453905E+03  0.00000000000E+00 0.  1.
         25    2    1    2    0    0  0.41365616664E+01  0.38743346378E+02  0.44334466159E+02  0.13823447972E+03  0.12500027385E+03 0.  0.
          5    1    3    3  501    0  0.30452356507E+02 -0.31322757808E+02 -0.11125967979E+02  0.45080576050E+02  0.10000000000E+00 0.  1.
         -5    1    3    3    0  501 -0.26315794841E+02  0.70066104186E+02  0.55460434139E+02  0.93153903669E+02  0.10000000000E+00 0.  1.
         21    1    1    2  504  502 -0.41365616664E+01 -0.38743346378E+02 -0.57210540873E+02  0.69218523662E+02  0.00000000000E+00 0.  1.
<mgrwt>
<rscale>  1 0.13093214E+03</rscale>
<asrwt>0</asrwt>
<pdfrwt beam="1">  1       21 0.14967456E-01 0.13093214E+03</pdfrwt>
<pdfrwt beam="2">  1       21 0.16948391E-01 0.13093214E+03</pdfrwt>
<totfact> 0.12343477E+06</totfact>
</mgrwt>
</event>
<event>
 6    1  0.4271609E-002  0.1953986E+03  0.7546771E-02  0.1153680E+00
         21   -1    0    0  503  502  0.00000000000E+00  0.00000000000E+00  0.11051260956E+03  0.11051260956E+03  0.00000000000E+00 0.  1.
         21   -1    0    0  504  503 -0.00000000000E+00 -0.00000000000E+00 -0.31801439201E+03  0.31801439201E+03  0.00000000000E+00 0.  1.
         25    2    1    2    0    0  0.14059447207E+03  0.52811461794E+02 -0.32781404420E+02  0.19812937448E+03  0.12499908991E+03 0.  0.
          5    1    3    3  501    0  0.15086272851E+03  0.49245731348E+02  0.50399230083E+01  0.15877693704E+03  0.10000000000E+00 0. -1.
         -5    1    3    3    0  501 -0.10268256440E+02  0.35657304457E+01 -0.37821327429E+02  0.39352437439E+02  0.10000000000E+00 0. -1.
         21    1    1    2  504  502 -0.14059447207E+03 -0.52811461794E+02 -0.17472037802E+03  0.23039762709E+03  0.00000000000E+00 0.  1.
<mgrwt>
<rscale>  1 0.19539864E+03</rscale>
<asrwt>0</asrwt>
<pdfrwt beam="1">  1       21 0.17001940E-01 0.19539864E+03</pdfrwt>
<pdfrwt beam="2">  1       21 0.48925290E-01 0.19539864E+03</pdfrwt>
<totfact> 0.12422446E+05</totfact>
</mgrwt>
</event>
<event>
 6    1  0.4271609E-002  0.1263917E+03  0.7546771E-02  0.1232910E+00
         21   -1    0    0  503  502  0.00000000000E+00  0.00000000000E+00  0.75943962073E+02  0.75943962073E+02  0.00000000000E+00 0. -1.
         21   -1    0    0  504  503 -0.00000000000E+00 -0.00000000000E+00 -0.83993498161E+02  0.83993498161E+02  0.00000000000E+00 0. -1.
         25    2    1    2    0    0  0.68072413972E+01  0.17433132926E+02  0.18204254722E+02  0.12769596227E+03  0.12499844491E+03 0.  0.
          5    1    3    3  501    0  0.15536030458E+02  0.31945491912E+02  0.67114974768E+02  0.75936239925E+02  0.10000000000E+00 0.  1.
         -5    1    3    3    0  501 -0.87287890611E+01 -0.14512358986E+02 -0.48910720046E+02  0.51759722345E+02  0.10000000000E+00 0.  1.
         21    1    1    2  504  502 -0.68072413972E+01 -0.17433132926E+02 -0.26253790810E+02  0.32241497964E+02  0.00000000000E+00 0. -1.
<mgrwt>
<rscale>  1 0.12639171E+03</rscale>
<asrwt>0</asrwt>
<pdfrwt beam="1">  1       21 0.11683686E-01 0.12639171E+03</pdfrwt>
<pdfrwt beam="2">  1       21 0.12922077E-01 0.12639171E+03</pdfrwt>
<totfact> 0.31270424E+06</totfact>
</mgrwt>
</event>
<event>
 6    1  0.4271609E-002  0.1324450E+03  0.7546771E-02  0.1223872E+00
         21   -1    0    0  504  502  0.00000000000E+00  0.00000000000E+00  0.43708858027E+02  0.43708858027E+02  0.00000000000E+00 0. -1.
         21   -1    0    0  502  503 -0.00000000000E+00 -0.00000000000E+00 -0.73172730951E+03  0.73172730951E+03  0.00000000000E+00 0.  1.
         25    2    1    2    0    0  0.20712007938E+02 -0.38565943573E+02 -0.59162212177E+02  0.14505811510E+03  0.12500148052E+03 0.  0.
          5    1    3    3  501    0  0.93907361802E+01 -0.11214932225E+02  0.39462742776E+02  0.42086561967E+02  0.10000000000E+00 0. -1.
         -5    1    3    3    0  501  0.11321271757E+02 -0.27351011348E+02 -0.98624954953E+02  0.10297155314E+03  0.10000000000E+00 0. -1.
         21    1    1    2  504  503 -0.20712007938E+02  0.38565943573E+02 -0.62885623930E+03  0.63037805243E+03  0.00000000000E+00 0.  1.
<mgrwt>
<rscale>  1 0.13244504E+03</rscale>
<asrwt>0</asrwt>
<pdfrwt beam="1">  1       21 0.67244401E-02 0.13244504E+03</pdfrwt>
<pdfrwt beam="2">  1       21 0.11257343E+00 0.13244504E+03</pdfrwt>
<totfact> 0.10276115E+05</totfact>
</mgrwt>
</event>
<event>
 6    1  0.4271609E-002  0.1283695E+03  0.7546771E-02  0.1229895E+00
         21   -1    0    0  503  502  0.00000000000E+00  0.00000000000E+00  0.11676364841E+03  0.11676364841E+03  0.00000000000E+00 0.  1.
         21   -1    0    0  504  503 -0.00000000000E+00 -0.00000000000E+00 -0.53306500803E+02  0.53306500803E+02  0.00000000000E+00 0.  1.
         25    2    1    2    0    0 -0.20427722946E+02  0.20938106577E+02  0.48602279198E+02  0.13726217324E+03  0.12499210570E+03 0.  0.
          5    1    3    3  501    0  0.28200942925E+02 -0.12204684106E+02  0.68551634223E+02  0.75123791509E+02  0.10000000000E+00 0. -1.
         -5    1    3    3    0  501 -0.48628665871E+02  0.33142790683E+02 -0.19949355025E+02  0.62138381734E+02  0.10000000000E+00 0. -1.
         21    1    1    2  504  502  0.20427722946E+02 -0.20938106577E+02  0.14854868407E+02  0.32807975969E+02  0.00000000000E+00 0.  1.
<mgrwt>
<rscale>  1 0.12836948E+03</rscale>
<asrwt>0</asrwt>
<pdfrwt beam="1">  1       21 0.17963638E-01 0.12836948E+03</pdfrwt>
<pdfrwt beam="2">  1       21 0.82010002E-02 0.12836948E+03</pdfrwt>
<totfact> 0.32038188E+06</totfact>
</mgrwt>
</event>
<event>
 6    1  0.4271609E-002  0.1267600E+03  0.7546771E-02  0.1232344E+00
         21   -1    0    0  503  502  0.00000000000E+00  0.00000000000E+00  0.11250167190E+03  0.11250167190E+03  0.00000000000E+00 0. -1.
         21   -1    0    0  504  503 -0.00000000000E+00 -0.00000000000E+00 -0.13568755058E+03  0.13568755058E+03  0.00000000000E+00 0. -1.
         25    2    1    2    0    0  0.20848370501E+02  0.29223549261E+01  0.75326653884E+02  0.14745236834E+03  0.12499960573E+03 0.  0.
          5    1    3    3  501    0 -0.37253655263E+01  0.61647469103E+02  0.26412063462E+02  0.67170647544E+02  0.10000000000E+00 0.  1.
         -5    1    3    3    0  501  0.24573736027E+02 -0.58725114177E+02  0.48914590422E+02  0.80281720794E+02  0.10000000000E+00 0.  1.
         21    1    1    2  504  502 -0.20848370501E+02 -0.29223549261E+01 -0.98512532567E+02  0.10073685415E+03  0.00000000000E+00 0. -1.
<mgrwt>
<rscale>  1 0.12675999E+03</rscale>
<asrwt>0</asrwt>
<pdfrwt beam="1">  1       21 0.17307950E-01 0.12675999E+03</pdfrwt>
<pdfrwt beam="2">  1       21 0.20875008E-01 0.12675999E+03</pdfrwt>
<totfact> 0.64650522E+05</totfact>
</mgrwt>
</event>
<event>
 6    1  0.4271609E-002  0.1286671E+03  0.7546771E-02  0.1229447E+00
         21   -1    0    0  504  502  0.00000000000E+00  0.00000000000E+00  0.78519217139E+03  0.78519217139E+03  0.00000000000E+00 0.  1.
         21   -1    0    0  502  503 -0.00000000000E+00 -0.00000000000E+00 -0.10062035185E+03  0.10062035185E+03  0.00000000000E+00 0.  1.
         25    2    1    2    0    0  0.26841160785E+02 -0.14528977019E+02  0.77746178336E+03  0.78803683883E+03  0.12499478262E+03 0.  0.
          5    1    3    3  501    0  0.72676863910E+02  0.10507228826E+02  0.53482478597E+03  0.53984246785E+03  0.10000000000E+00 0.  1.
         -5    1    3    3    0  501 -0.45835703124E+02 -0.25036205844E+02  0.24263699739E+03  0.24819437098E+03  0.10000000000E+00 0.  1.
         21    1    1    2  504  503 -0.26841160785E+02  0.14528977019E+02 -0.92889963815E+02  0.97775684417E+02  0.00000000000E+00 0.  1.
<mgrwt>
<rscale>  1 0.12866715E+03</rscale>
<asrwt>0</asrwt>
<pdfrwt beam="1">  1       21 0.12079879E+00 0.12866715E+03</pdfrwt>
<pdfrwt beam="2">  1       21 0.15480055E-01 0.12866715E+03</pdfrwt>
<totfact> 0.20121357E+04</totfact>
</mgrwt>
</event>
<event>
 6    1  0.4271609E-002  0.1269591E+03  0.7546771E-02  0.1232039E+00
         21   -1    0    0  503  502  0.00000000000E+00  0.00000000000E+00  0.24113969243E+03  0.24113969243E+03  0.00000000000E+00 0. -1.
         21   -1    0    0  504  503 -0.00000000000E+00 -0.00000000000E+00 -0.23744702523E+02  0.23744702523E+02  0.00000000000E+00 0. -1.
         25    2    1    2    0    0  0.14634739296E+02  0.16689880427E+02  0.16668800605E+03  0.20953165414E+03  0.12500358005E+03 0.  0.
          5    1    3    3  501    0 -0.26255708464E+02 -0.26777467263E+02  0.13858183850E+03  0.14356646872E+03  0.10000000000E+00 0. -1.
         -5    1    3    3    0  501  0.40890447760E+02  0.43467347691E+02  0.28106167547E+02  0.65965185419E+02  0.10000000000E+00 0. -1.
         21    1    1    2  504  502 -0.14634739296E+02 -0.16689880427E+02  0.50706983863E+02  0.55352740812E+02  0.00000000000E+00 0. -1.
<mgrwt>
<rscale>  1 0.12695914E+03</rscale>
<asrwt>0</asrwt>
<pdfrwt beam="1">  1       21 0.37098413E-01 0.12695914E+03</pdfrwt>
<pdfrwt beam="2">  1       21 0.36530313E-02 0.12695914E+03</pdfrwt>
<totfact> 0.31643481E+06</totfact>
</mgrwt>
</event>
<event>
 6    1  0.4271609E-002  0.1262656E+03  0.7546771E-02  0.1233105E+00
         21   -1    0    0  504  502  0.00000000000E+00  0.00000000000E+00  0.41839306870E+02  0.41839306870E+02  0.00000000000E+00 0.  1.
         21   -1    0    0  502  503 -0.00000000000E+00 -0.00000000000E+00 -0.17991982331E+03  0.17991982331E+03  0.00000000000E+00 0.  1.
         25    2    1    2    0    0 -0.17894465743E+02 -0.10555109949E+01 -0.56672200815E+02  0.13840062815E+03  0.12498667737E+03 0.  0.
          5    1    3    3  501    0 -0.23308936742E+02  0.59457425150E+02 -0.40163945743E+02  0.75442988244E+02  0.10000000000E+00 0.  1.
         -5    1    3    3    0  501  0.54144709982E+01 -0.60512936145E+02 -0.16508255073E+02  0.62957639907E+02  0.10000000000E+00 0.  1.
         21    1    1    2  504  503  0.17894465743E+02  0.10555109949E+01 -0.81408315626E+02  0.83358502030E+02  0.00000000000E+00 0.  1.
<mgrwt>
<rscale>  1 0.12626558E+03</rscale>
<asrwt>0</asrwt>
<pdfrwt beam="1">  1       21 0.64368166E-02 0.12626558E+03</pdfrwt>
<pdfrwt beam="2">  1       21 0.27679972E-01 0.12626558E+03</pdfrwt>
<totfact> 0.21621756E+06</totfact>
</mgrwt>
</event>
<event>
 6    1  0.4271609E-002  0.1435380E+03  0.7546771E-02  0.1208646E+00
         21   -1    0    0  504  502  0.00000000000E+00  0.00000000000E+00  0.18823347261E+02  0.18823347261E+02  0.00000000000E+00 0.  1.
         21   -1    0    0  502  503 -0.00000000000E+00 -0.00000000000E+00 -0.66368695649E+03  0.66368695649E+03  0.00000000000E+00 0.  1.
         25    2    1    2    0    0  0.15684456252E+01 -0.70535709383E+02 -0.33045314968E+03  0.36028106331E+03  0.12500165650E+03 0.  0.
          5    1    3    3  501    0 -0.16128728600E+02  0.26275820967E+02 -0.26046661713E+02  0.40360788399E+02  0.10000000000E+00 0.  1.
         -5    1    3    3    0  501  0.17697174225E+02 -0.96811530350E+02 -0.30440648797E+03  0.31992027492E+03  0.10000000000E+00 0.  1.
         21    1    1    2  504  503 -0.15684456252E+01  0.70535709383E+02 -0.31441045955E+03  0.32222924044E+03  0.00000000000E+00 0.  1.
<mgrwt>
<rscale>  1 0.14353801E+03</rscale>
<asrwt>0</asrwt>
<pdfrwt beam="1">  1       21 0.28958994E-02 0.14353801E+03</pdfrwt>
<pdfrwt beam="2">  1       21 0.10210569E+00 0.14353801E+03</pdfrwt>
<totfact> 0.52898852E+05</totfact>
</mgrwt>
</event>
<event>
 6    1  0.4271609E-002  0.1262777E+03  0.7546771E-02  0.1233086E+00
         21   -1    0    0  504  502  0.00000000000E+00  0.00000000000E+00  0.27935345590E+03  0.27935345590E+03  0.00000000000E+00 0. -1.
         21   -1    0    0  502  503 -0.00000000000E+00 -0.00000000000E+00 -0.18609456393E+02  0.18609456393E+02  0.00000000000E+00 0. -1.
         25    2    1    2    0    0 -0.15272931238E+02 -0.93792068756E+01  0.22778971498E+03  0.26045002359E+03  0.12499931435E+03 0.  0.
          5    1    3    3  501    0  0.49025127620E+02 -0.25588595425E+02  0.13927361403E+03  0.14985122262E+03  0.10000000000E+00 0. -1.
         -5    1    3    3    0  501 -0.64298058858E+02  0.16209388549E+02  0.88516100952E+02  0.11059880098E+03  0.10000000000E+00 0. -1.
         21    1    1    2  504  503  0.15272931238E+02  0.93792068756E+01  0.32954284525E+02  0.37512888702E+02  0.00000000000E+00 0. -1.
<mgrwt>
<rscale>  1 0.12627771E+03</rscale>
<asrwt>0</asrwt>
<pdfrwt beam="1">  1       21 0.42977452E-01 0.12627771E+03</pdfrwt>
<pdfrwt beam="2">  1       21 0.28629935E-02 0.12627771E+03</pdfrwt>
<totfact> 0.35208206E+06</totfact>
</mgrwt>
</event>
<event>
 6    1  0.4271609E-002  0.1423872E+03  0.7546771E-02  0.1210152E+00
         21   -1    0    0  504  502  0.00000000000E+00  0.00000000000E+00  0.17575978222E+03  0.17575978222E+03  0.00000000000E+00 0.  1.
         21   -1    0    0  502  503 -0.00000000000E+00 -0.00000000000E+00 -0.16398408767E+03  0.16398408767E+03  0.00000000000E+00 0.  1.
         25    2    1    2    0    0 -0.36974487022E+02 -0.57292705876E+02  0.13672297884E+03  0.19740135801E+03  0.12499822545E+03 0.  0.
          5    1    3    3  501    0 -0.77674268463E+02 -0.11694003964E+02  0.57524597287E+02  0.97360828895E+02  0.10000000000E+00 0. -1.
         -5    1    3    3    0  501  0.40699781441E+02 -0.45598701912E+02  0.79198381552E+02  0.10004052912E+03  0.10000000000E+00 0. -1.
         21    1    1    2  504  503  0.36974487022E+02  0.57292705876E+02 -0.12494728428E+03  0.14234251188E+03  0.00000000000E+00 0.  1.
<mgrwt>
<rscale>  1 0.14238723E+03</rscale>
<asrwt>0</asrwt>
<pdfrwt beam="1">  1       21 0.27039967E-01 0.14238723E+03</pdfrwt>
<pdfrwt beam="2">  1       21 0.25228321E-01 0.14238723E+03</pdfrwt>
<totfact> 0.19672765E+05</totfact>
</mgrwt>
</event>
<event>
 6    1  0.4271609E-002  0.1275275E+03  0.7546771E-02  0.1231171E+00
         21   -1    0    0  504  502  0.00000000000E+00  0.00000000000E+00  0.15343242432E+02  0.15343242432E+02  0.00000000000E+00 0.  1.
         21   -1    0    0  502  503 -0.00000000000E+00 -0.00000000000E+00 -0.66339293369E+03  0.66339293369E+03  0.00000000000E+00 0.  1.
         25    2    1    2    0    0  0.33796022427E+01 -0.25037597651E+02 -0.25729366106E+03  0.28716424385E+03  0.12499988767E+03 0.  0.
          5    1    3    3  501    0  0.98502641972E+00 -0.52071045939E+02 -0.33930368058E+02  0.62158217307E+02  0.10000000000E+00 0.  1.
         -5    1    3    3    0  501  0.23945758230E+01  0.27033448289E+02 -0.22336329300E+03  0.22500602654E+03  0.10000000000E+00 0.  1.
         21    1    1    2  504  503 -0.33796022427E+01  0.25037597651E+02 -0.39075603020E+03  0.39157193227E+03  0.00000000000E+00 0.  1.
<mgrwt>
<rscale>  1 0.12752755E+03</rscale>
<asrwt>0</asrwt>
<pdfrwt beam="1">  1       21 0.23604988E-02 0.12752755E+03</pdfrwt>
<pdfrwt beam="2">  1       21 0.10206045E+00 0.12752755E+03</pdfrwt>
<totfact> 0.74066210E+05</totfact>
</mgrwt>
</event>
<event>
 6    1  0.4271609E-002  0.1266416E+03  0.7546771E-02  0.1232526E+00
         21   -1    0    0  503  502  0.00000000000E+00  0.00000000000E+00  0.50314778937E+03  0.50314778937E+03  0.00000000000E+00 0.  1.
         21   -1    0    0  504  503 -0.00000000000E+00 -0.00000000000E+00 -0.17282639705E+02  0.17282639705E+02  0.00000000000E+00 0.  1.
         25    2    1    2    0    0 -0.20248162298E+02  0.13957952739E+01  0.48371772927E+03  0.50002092797E+03  0.12500460184E+03 0.  0.
          5    1    3    3  501    0 -0.15450466857E+01 -0.25850171926E+02  0.45642780987E+03  0.45716186868E+03  0.10000000000E+00 0.  1.
         -5    1    3    3    0  501 -0.18703115612E+02  0.27245967200E+02  0.27289919400E+02  0.42859059288E+02  0.10000000000E+00 0.  1.
         21    1    1    2  504  502  0.20248162298E+02 -0.13957952739E+01  0.21474203968E+01  0.20409501102E+02  0.00000000000E+00 0.  1.
<mgrwt>
<rscale>  1 0.12664157E+03</rscale>
<asrwt>0</asrwt>
<pdfrwt beam="1">  1       21 0.77407341E-01 0.12664157E+03</pdfrwt>
<pdfrwt beam="2">  1       21 0.26588680E-02 0.12664157E+03</pdfrwt>
<totfact> 0.11467759E+06</totfact>
</mgrwt>
</event>
<event>
 6    1  0.4271609E-002  0.1485856E+03  0.7546771E-02  0.1202222E+00
         21   -1    0    0  504  502  0.00000000000E+00  0.00000000000E+00  0.21428996570E+03  0.21428996570E+03  0.00000000000E+00 0.  1.
         21   -1    0    0  502  503 -0.00000000000E+00 -0.00000000000E+00 -0.62177899075E+02  0.62177899075E+02  0.00000000000E+00 0.  1.
         25    2    1    2    0    0  0.76281588900E+02  0.25133920933E+02  0.81190627204E+02  0.16932102462E+03  0.12500838630E+03 0.  0.
          5    1    3    3  501    0 -0.20255938393E+02 -0.27216732603E+02  0.21109416745E+01  0.33992935274E+02  0.10000000000E+00 0.  1.
         -5    1    3    3    0  501  0.96537527293E+02  0.52350653536E+02  0.79079685530E+02  0.13532808934E+03  0.10000000000E+00 0.  1.
         21    1    1    2  504  503 -0.76281588900E+02 -0.25133920933E+02  0.70921439424E+02  0.10714684016E+03  0.00000000000E+00 0.  1.
<mgrwt>
<rscale>  1 0.14858564E+03</rscale>
<asrwt>0</asrwt>
<pdfrwt beam="1">  1       21 0.32967687E-01 0.14858564E+03</pdfrwt>
<pdfrwt beam="2">  1       21 0.95658307E-02 0.14858564E+03</pdfrwt>
<totfact> 0.78015206E+05</totfact>
</mgrwt>
</event>
<event>
 6    1  0.4271609E-002  0.1299603E+03  0.7546771E-02  0.1227515E+00
         21   -1    0    0  503  502  0.00000000000E+00  0.00000000000E+00  0.86638682137E+02  0.86638682137E+02  0.00000000000E+00 0.  1.
         21   -1    0    0  504  503 -0.00000000000E+00 -0.00000000000E+00 -0.95884594500E+02  0.95884594500E+02  0.00000000000E+00 0.  1.
         25    2    1    2    0    0 -0.11381797307E+01  0.35529820261E+02  0.25920343455E+02  0.13251998545E+03  0.12500407497E+03 0.  0.
          5    1    3    3  501    0  0.26343798790E+02 -0.17036987368E+02  0.57364982644E+02  0.65383529325E+02  0.10000000000E+00 0.  1.
         -5    1    3    3    0  501 -0.27481978521E+02  0.52566807629E+02 -0.31444639189E+02  0.67136456128E+02  0.10000000000E+00 0.  1.
         21    1    1    2  504  502  0.11381797307E+01 -0.35529820261E+02 -0.35166255818E+02  0.50003291184E+02  0.00000000000E+00 0.  1.
<mgrwt>
<rscale>  1 0.12996031E+03</rscale>
<asrwt>0</asrwt>
<pdfrwt beam="1">  1       21 0.13329028E-01 0.12996031E+03</pdfrwt>
<pdfrwt beam="2">  1       21 0.14751476E-01 0.12996031E+03</pdfrwt>
<totfact> 0.19540029E+06</totfact>
</mgrwt>
</event>
<event>
 6    1  0.4271609E-002  0.1262826E+03  0.7546771E-02  0.1233078E+00
         21   -1    0    0  504  502  0.00000000000E+00  0.00000000000E+00  0.12294440527E+02  0.12294440527E+02  0.00000000000E+00 0.  1.
         21   -1    0    0  502  503 -0.00000000000E+00 -0.00000000000E+00 -0.44721928690E+03  0.44721928690E+03  0.00000000000E+00 0.  1.
         25    2    1    2    0    0  0.37508459799E+01  0.17362748532E+02 -0.33478103859E+03  0.35780671627E+03  0.12502707116E+03 0.  0.
          5    1    3    3  501    0 -0.21127977177E+02  0.53952235163E+01 -0.32884603043E+03  0.32956823510E+03  0.10000000000E+00 0.  1.
         -5    1    3    3    0  501  0.24878823157E+02  0.11967525015E+02 -0.59350081588E+01  0.28238481165E+02  0.10000000000E+00 0.  1.
         21    1    1    2  504  503 -0.37508459799E+01 -0.17362748532E+02 -0.10014380778E+03  0.10170701116E+03  0.00000000000E+00 0.  1.
<mgrwt>
<rscale>  1 0.12628263E+03</rscale>
<asrwt>0</asrwt>
<pdfrwt beam="1">  1       21 0.18914521E-02 0.12628263E+03</pdfrwt>
<pdfrwt beam="2">  1       21 0.68802979E-01 0.12628263E+03</pdfrwt>
<totfact> 0.25787529E+06</totfact>
</mgrwt>
</event>
<event>
 6    1  0.4271609E-002  0.1272199E+03  0.7546771E-02  0.1231640E+00
         21   -1    0    0  503  502  0.00000000000E+00  0.00000000000E+00  0.19304167681E+03  0.19304167681E+03  0.00000000000E+00 0.  1.
         21   -1    0    0  504  503 -0.00000000000E+00 -0.00000000000E+00 -0.38239860078E+03  0.38239860078E+03  0.00000000000E+00 0.  1.
         25    2    1    2    0    0  0.22667012300E+02 -0.67509165877E+01  0.17165225853E+03  0.21365719593E+03  0.12500212474E+03 0.  0.
          5    1    3    3  501    0 -0.42732242431E+02  0.23392917937E+02  0.10403152951E+03  0.11487315737E+03  0.10000000000E+00 0. -1.
         -5    1    3    3    0  501  0.65399254732E+02 -0.30143834525E+02  0.67620729023E+02  0.98784038553E+02  0.10000000000E+00 0. -1.
         21    1    1    2  504  502 -0.22667012300E+02  0.67509165877E+01 -0.36100918250E+03  0.36178308166E+03  0.00000000000E+00 0.  1.
<mgrwt>
<rscale>  1 0.12721989E+03</rscale>
<asrwt>0</asrwt>
<pdfrwt beam="1">  1       21 0.29698720E-01 0.12721989E+03</pdfrwt>
<pdfrwt beam="2">  1       21 0.58830553E-01 0.12721989E+03</pdfrwt>
<totfact> 0.30522197E+04</totfact>
</mgrwt>
</event>
<event>
 6    1  0.4271609E-002  0.1432139E+03  0.7546771E-02  0.1209069E+00
         21   -1    0    0  504  502  0.00000000000E+00  0.00000000000E+00  0.12932986997E+03  0.12932986997E+03  0.00000000000E+00 0.  1.
         21   -1    0    0  502  503 -0.00000000000E+00 -0.00000000000E+00 -0.16152283118E+03  0.16152283118E+03  0.00000000000E+00 0.  1.
         25    2    1    2    0    0 -0.64360869245E+02  0.27245442219E+02  0.75938019896E+02  0.16210121693E+03  0.12500234419E+03 0.  0.
          5    1    3    3  501    0 -0.33485870839E+02  0.76010078404E+02  0.59228434421E+02  0.10201398438E+03  0.10000000000E+00 0. -1.
         -5    1    3    3    0  501 -0.30874998406E+02 -0.48764636185E+02  0.16709585475E+02  0.60087232551E+02  0.10000000000E+00 0. -1.
         21    1    1    2  504  503  0.64360869245E+02 -0.27245442219E+02 -0.10813098111E+03  0.12875148421E+03  0.00000000000E+00 0.  1.
<mgrwt>
<rscale>  1 0.14321390E+03</rscale>
<asrwt>0</asrwt>
<pdfrwt beam="1">  1       21 0.19896903E-01 0.14321390E+03</pdfrwt>
<pdfrwt beam="2">  1       21 0.24849666E-01 0.14321390E+03</pdfrwt>
<totfact> 0.36042324E+05</totfact>
</mgrwt>
</event>
<event>
 6    1  0.4271609E-002  0.1263860E+03  0.7546771E-02  0.1232919E+00
         21   -1    0    0  504  502  0.00000000000E+00  0.00000000000E+00  0.52773338264E+01  0.52773338264E+01  0.00000000000E+00 0. -1.
         21   -1    0    0  502  503 -0.00000000000E+00 -0.00000000000E+00 -0.13236446105E+04  0.13236446105E+04  0.00000000000E+00 0. -1.
         25    2    1    2    0    0 -0.41684964025E+01 -0.18215451116E+02 -0.77535044802E+03  0.78558369312E+03  0.12499697049E+03 0.  0.
          5    1    3    3  501    0 -0.37743485256E+02  0.21169918508E+02 -0.10974364610E+03  0.11796785150E+03  0.10000000000E+00 0. -1.
         -5    1    3    3    0  501  0.33574988854E+02 -0.39385369624E+02 -0.66560680193E+03  0.66761584162E+03  0.10000000000E+00 0. -1.
         21    1    1    2  504  503  0.41684964025E+01  0.18215451116E+02 -0.54301682869E+03  0.54333825124E+03  0.00000000000E+00 0. -1.
<mgrwt>
<rscale>  1 0.12638600E+03</rscale>
<asrwt>0</asrwt>
<pdfrwt beam="1">  1       21 0.81189670E-03 0.12638600E+03</pdfrwt>
<pdfrwt beam="2">  1       21 0.20363784E+00 0.12638600E+03</pdfrwt>
<totfact> 0.68054601E+05</totfact>
</mgrwt>
</event>
<event>
 6    1  0.4271609E-002  0.1264036E+03  0.7546771E-02  0.1232892E+00
         21   -1    0    0  504  502  0.00000000000E+00  0.00000000000E+00  0.11043602000E+03  0.11043602000E+03  0.00000000000E+00 0. -1.
         21   -1    0    0  502  503 -0.00000000000E+00 -0.00000000000E+00 -0.48521548238E+02  0.48521548238E+02  0.00000000000E+00 0. -1.
         25    2    1    2    0    0 -0.17839905795E+02  0.59044277125E+01  0.60434290266E+02  0.14010775544E+03  0.12499902075E+03 0.  0.
          5    1    3    3  501    0  0.34088600803E+02  0.34076131511E+02 -0.89028309353E+01  0.49015159310E+02  0.10000000000E+00 0. -1.
         -5    1    3    3    0  501 -0.51928506598E+02 -0.28171703799E+02  0.69337121201E+02  0.91092596126E+02  0.10000000000E+00 0. -1.
         21    1    1    2  504  503  0.17839905795E+02 -0.59044277125E+01  0.14801814948E+01  0.18849812801E+02  0.00000000000E+00 0. -1.
<mgrwt>
<rscale>  1 0.12640364E+03</rscale>
<asrwt>0</asrwt>
<pdfrwt beam="1">  1       21 0.16990157E-01 0.12640364E+03</pdfrwt>
<pdfrwt beam="2">  1       21 0.74648536E-02 0.12640364E+03</pdfrwt>
<totfact> 0.41671285E+06</totfact>
</mgrwt>
</event>
<event>
 6    1  0.4271609E-002  0.1387085E+03  0.7546771E-02  0.1215077E+00
         21   -1    0    0  503  502  0.00000000000E+00  0.00000000000E+00  0.42287037816E+03  0.42287037816E+03  0.00000000000E+00 0. -1.
         21   -1    0    0  504  503 -0.00000000000E+00 -0.00000000000E+00 -0.44009011428E+02  0.44009011428E+02  0.00000000000E+00 0.  1.
         25    2    1    2    0    0  0.53011634386E+02 -0.27983686665E+02  0.38245096350E+03  0.40682770099E+03  0.12508684467E+03 0.  0.
          5    1    3    3  501    0 -0.18533949346E+02 -0.57120522274E+02  0.19641210789E+03  0.20538740825E+03  0.10000000000E+00 0.  1.
         -5    1    3    3    0  501  0.71545583732E+02  0.29136835609E+02  0.18603885561E+03  0.20144029273E+03  0.10000000000E+00 0.  1.
         21    1    1    2  504  502 -0.53011634386E+02  0.27983686665E+02 -0.35895967602E+01  0.60051688607E+02  0.00000000000E+00 0.  1.
<mgrwt>
<rscale>  1 0.13870847E+03</rscale>
<asrwt>0</asrwt>
<pdfrwt beam="1">  1       21 0.65056979E-01 0.13870847E+03</pdfrwt>
<pdfrwt beam="2">  1       21 0.67706174E-02 0.13870847E+03</pdfrwt>
<totfact> 0.35244134E+05</totfact>
</mgrwt>
</event>
<event>
 6    1  0.4271609E-002  0.1518863E+03  0.7546771E-02  0.1198174E+00
         21   -1    0    0  503  502  0.00000000000E+00  0.00000000000E+00  0.52047689610E+02  0.52047689610E+02  0.00000000000E+00 0. -1.
         21   -1    0    0  504  503 -0.00000000000E+00 -0.00000000000E+00 -0.28469966111E+03  0.28469966111E+03  0.00000000000E+00 0. -1.
         25    2    1    2    0    0  0.76726876744E+02  0.39533441031E+02 -0.18050151582E+03  0.23590303208E+03  0.12497814511E+03 0.  0.
          5    1    3    3  501    0 -0.98197095819E+01 -0.15377399708E+02 -0.10999427606E+03  0.11149727299E+03  0.10000000000E+00 0.  1.
         -5    1    3    3    0  501  0.86546586326E+02  0.54910840739E+02 -0.70507239755E+02  0.12440575908E+03  0.10000000000E+00 0.  1.
         21    1    1    2  504  502 -0.76726876744E+02 -0.39533441031E+02 -0.52150455679E+02  0.10084431864E+03  0.00000000000E+00 0. -1.
<mgrwt>
<rscale>  1 0.15188628E+03</rscale>
<asrwt>0</asrwt>
<pdfrwt beam="1">  1       21 0.80073369E-02 0.15188628E+03</pdfrwt>
<pdfrwt beam="2">  1       21 0.43799947E-01 0.15188628E+03</pdfrwt>
<totfact> 0.60329826E+05</totfact>
</mgrwt>
</event>
<event>
 6    1  0.4271609E-002  0.1260201E+03  0.7546771E-02  0.1233484E+00
         21   -1    0    0  503  502  0.00000000000E+00  0.00000000000E+00  0.32742982458E+02  0.32742982458E+02  0.00000000000E+00 0.  1.
         21   -1    0    0  504  503 -0.00000000000E+00 -0.00000000000E+00 -0.33892843465E+03  0.33892843465E+03  0.00000000000E+00 0.  1.
         25    2    1    2    0    0  0.15999503222E+02 -0.60679867406E+00 -0.89914410673E+02  0.15480852100E+03  0.12499889848E+03 0.  0.
          5    1    3    3  501    0  0.28917822537E+02  0.24162454097E+02 -0.11265273464E+03  0.11878852331E+03  0.10000000000E+00 0.  1.
         -5    1    3    3    0  501 -0.12918319316E+02 -0.24769252771E+02  0.22738323968E+02  0.36019997691E+02  0.10000000000E+00 0.  1.
         21    1    1    2  504  502 -0.15999503222E+02  0.60679867406E+00 -0.21627104152E+03  0.21686289610E+03  0.00000000000E+00 0.  1.
<mgrwt>
<rscale>  1 0.12602014E+03</rscale>
<asrwt>0</asrwt>
<pdfrwt beam="1">  1       21 0.50373819E-02 0.12602014E+03</pdfrwt>
<pdfrwt beam="2">  1       21 0.52142837E-01 0.12602014E+03</pdfrwt>
<totfact> 0.92968962E+05</totfact>
</mgrwt>
</event>
<event>
 6    1  0.4271609E-002  0.1322783E+03  0.7546771E-02  0.1224114E+00
         21   -1    0    0  504  502  0.00000000000E+00  0.00000000000E+00  0.33108587788E+02  0.33108587788E+02  0.00000000000E+00 0.  1.
         21   -1    0    0  502  503 -0.00000000000E+00 -0.00000000000E+00 -0.24326778233E+03  0.24326778233E+03  0.00000000000E+00 0.  1.
         25    2    1    2    0    0 -0.59542873971E+00  0.43271165270E+02 -0.13104442775E+03  0.18619935196E+03  0.12499923339E+03 0.  0.
          5    1    3    3  501    0  0.52722884319E+02  0.40857995839E+01 -0.99974877576E+02  0.11309899396E+03  0.10000000000E+00 0. -1.
         -5    1    3    3    0  501 -0.53318313059E+02  0.39185365686E+02 -0.31069550174E+02  0.73100357998E+02  0.10000000000E+00 0. -1.
         21    1    1    2  504  503  0.59542873971E+00 -0.43271165270E+02 -0.79114766793E+02  0.90177018158E+02  0.00000000000E+00 0.  1.
<mgrwt>
<rscale>  1 0.13227833E+03</rscale>
<asrwt>0</asrwt>
<pdfrwt beam="1">  1       21 0.50936291E-02 0.13227833E+03</pdfrwt>
<pdfrwt beam="2">  1       21 0.37425811E-01 0.13227833E+03</pdfrwt>
<totfact> 0.17885962E+06</totfact>
</mgrwt>
</event>
<event>
 6    1  0.4271609E-002  0.1264691E+03  0.7546771E-02  0.1232791E+00
         21   -1    0    0  504  502  0.00000000000E+00  0.00000000000E+00  0.99230881086E+03  0.99230881086E+03  0.00000000000E+00 0.  1.
         21   -1    0    0  502  503 -0.00000000000E+00 -0.00000000000E+00 -0.55077919625E+01  0.55077919625E+01  0.00000000000E+00 0.  1.
         25    2    1    2    0    0  0.15524715713E+02 -0.11301002376E+02  0.78723640307E+03  0.79733028074E+03  0.12500277121E+03 0.  0.
          5    1    3    3  501    0  0.67194150836E+02  0.13291381759E+02  0.38533156782E+03  0.39137212713E+03  0.10000000000E+00 0.  1.
         -5    1    3    3    0  501 -0.51669435123E+02 -0.24592384135E+02  0.40190483525E+03  0.40595815360E+03  0.10000000000E+00 0.  1.
         21    1    1    2  504  503 -0.15524715713E+02  0.11301002376E+02  0.19956461583E+03  0.20048632209E+03  0.00000000000E+00 0.  1.
<mgrwt>
<rscale>  1 0.12646906E+03</rscale>
<asrwt>0</asrwt>
<pdfrwt beam="1">  1       21 0.15266275E+00 0.12646906E+03</pdfrwt>
<pdfrwt beam="2">  1       21 0.84735340E-03 0.12646906E+03</pdfrwt>
<totfact> 0.14044743E+06</totfact>
</mgrwt>
</event>
<event>
 6    1  0.4271609E-002  0.1368201E+03  0.7546771E-02  0.1217673E+00
         21   -1    0    0  503  502  0.00000000000E+00  0.00000000000E+00  0.20509449542E+02  0.20509449542E+02  0.00000000000E+00 0. -1.
         21   -1    0    0  504  503 -0.00000000000E+00 -0.00000000000E+00 -0.45455841929E+03  0.45455841929E+03  0.00000000000E+00 0. -1.
         25    2    1    2    0    0  0.45918990793E+02 -0.31408263812E+02 -0.32570056152E+03  0.35327127481E+03  0.12499882030E+03 0.  0.
          5    1    3    3  501    0  0.77541186358E+02 -0.35155955558E+02 -0.13271683170E+03  0.15767797630E+03  0.10000000000E+00 0. -1.
         -5    1    3    3    0  501 -0.31622195565E+02  0.37476917453E+01 -0.19298372982E+03  0.19559329851E+03  0.10000000000E+00 0. -1.
         21    1    1    2  504  502 -0.45918990793E+02  0.31408263812E+02 -0.10834840823E+03  0.12179659403E+03  0.00000000000E+00 0. -1.
<mgrwt>
<rscale>  1 0.13682009E+03</rscale>
<asrwt>0</asrwt>
<pdfrwt beam="1">  1       21 0.31553001E-02 0.13682009E+03</pdfrwt>
<pdfrwt beam="2">  1       21 0.69932061E-01 0.13682009E+03</pdfrwt>
<totfact> 0.10836991E+06</totfact>
</mgrwt>
</event>
<event>
 6    1  0.4271609E-002  0.1277301E+03  0.7546771E-02  0.1230863E+00
         21   -1    0    0  503  502  0.00000000000E+00  0.00000000000E+00  0.14958596257E+03  0.14958596257E+03  0.00000000000E+00 0.  1.
         21   -1    0    0  504  503 -0.00000000000E+00 -0.00000000000E+00 -0.64030409419E+02  0.64030409419E+02  0.00000000000E+00 0.  1.
         25    2    1    2    0    0 -0.16339469245E+02 -0.20529363680E+02  0.11661571821E+03  0.17295721704E+03  0.12500616051E+03 0.  0.
          5    1    3    3  501    0 -0.48674705969E+02  0.12040730688E+02  0.11674946383E+03  0.12706161301E+03  0.10000000000E+00 0. -1.
         -5    1    3    3    0  501  0.32335236724E+02 -0.32570094368E+02 -0.13374562057E+00  0.45895604027E+02  0.10000000000E+00 0. -1.
         21    1    1    2  504  502  0.16339469245E+02  0.20529363680E+02 -0.31060165054E+02  0.40659154953E+02  0.00000000000E+00 0.  1.
<mgrwt>
<rscale>  1 0.12773008E+03</rscale>
<asrwt>0</asrwt>
<pdfrwt beam="1">  1       21 0.23013225E-01 0.12773008E+03</pdfrwt>
<pdfrwt beam="2">  1       21 0.98508322E-02 0.12773008E+03</pdfrwt>
<totfact> 0.14728486E+06</totfact>
</mgrwt>
</event>
<event>
 6    1  0.4271609E-002  0.1292132E+03  0.7546771E-02  0.1228628E+00
         21   -1    0    0  504  502  0.00000000000E+00  0.00000000000E+00  0.21876632973E+03  0.21876632973E+03  0.00000000000E+00 0. -1.
         21   -1    0    0  502  503 -0.00000000000E+00 -0.00000000000E+00 -0.36175547231E+03  0.36175547231E+03  0.00000000000E+00 0. -1.
         25    2    1    2    0    0  0.32667236296E+02 -0.19521844930E+01  0.19883668629E+03  0.23713301853E+03  0.12500032525E+03 0.  0.
          5    1    3    3  501    0 -0.15019674317E+02  0.50697114291E+02  0.52735230126E+02  0.74677992143E+02  0.10000000000E+00 0.  1.
         -5    1    3    3    0  501  0.47686910612E+02 -0.52649298784E+02  0.14610145616E+03  0.16245502639E+03  0.10000000000E+00 0.  1.
         21    1    1    2  504  503 -0.32667236296E+02  0.19521844930E+01 -0.34182582888E+03  0.34338878351E+03  0.00000000000E+00 0. -1.
<mgrwt>
<rscale>  1 0.12921316E+03</rscale>
<asrwt>0</asrwt>
<pdfrwt beam="1">  1       21 0.33656359E-01 0.12921316E+03</pdfrwt>
<pdfrwt beam="2">  1       21 0.55654687E-01 0.12921316E+03</pdfrwt>
<totfact> 0.26877050E+04</totfact>
</mgrwt>
</event>
<event>
 6    1  0.4271609E-002  0.1430751E+03  0.7546771E-02  0.1209250E+00
         21   -1    0    0  504  502  0.00000000000E+00  0.00000000000E+00  0.25216044986E+03  0.25216044986E+03  0.00000000000E+00 0. -1.
         21   -1    0    0  502  503 -0.00000000000E+00 -0.00000000000E+00 -0.62533506470E+02  0.62533506470E+02  0.00000000000E+00 0. -1.
         25    2    1    2    0    0  0.67914062320E+02  0.15276528131E+02  0.19831911022E+03  0.24454236379E+03  0.12499922414E+03 0.  0.
          5    1    3    3  501    0  0.80988295360E+02 -0.24068124442E+02  0.70089493226E+02  0.10977670819E+03  0.10000000000E+00 0.  1.
         -5    1    3    3    0  501 -0.13074233041E+02  0.39344652574E+02  0.12822961699E+03  0.13476565560E+03  0.10000000000E+00 0.  1.
         21    1    1    2  504  503 -0.67914062320E+02 -0.15276528131E+02 -0.86921668259E+01  0.70151592545E+02  0.00000000000E+00 0. -1.
<mgrwt>
<rscale>  1 0.14307515E+03</rscale>
<asrwt>0</asrwt>
<pdfrwt beam="1">  1       21 0.38793915E-01 0.14307515E+03</pdfrwt>
<pdfrwt beam="2">  1       21 0.96205396E-02 0.14307515E+03</pdfrwt>
<totfact> 0.56011434E+05</totfact>
</mgrwt>
</event>
<event>
 6    1  0.4271609E-002  0.1272465E+03  0.7546771E-02  0.1231600E+00
         21   -1    0    0  504  502  0.00000000000E+00  0.00000000000E+00  0.19074612948E+03  0.19074612948E+03  0.00000000000E+00 0.  1.
         21   -1    0    0  502  503 -0.00000000000E+00 -0.00000000000E+00 -0.10770186249E+03  0.10770186249E+03  0.00000000000E+00 0.  1.
         25    2    1    2    0    0  0.23980038389E+02 -0.16902654573E+01  0.16766248019E+03  0.21048128665E+03  0.12495505404E+03 0.  0.
          5    1    3    3  501    0  0.21328772036E+02  0.45708056977E+02  0.15253270491E+03  0.16065608939E+03  0.10000000000E+00 0.  1.
         -5    1    3    3    0  501  0.26512663526E+01 -0.47398322434E+02  0.15129775277E+02  0.49825197268E+02  0.10000000000E+00 0.  1.
         21    1    1    2  504  503 -0.23980038389E+02  0.16902654573E+01 -0.84618213204E+02  0.87966705317E+02  0.00000000000E+00 0.  1.
<mgrwt>
<rscale>  1 0.12724647E+03</rscale>
<asrwt>0</asrwt>
<pdfrwt beam="1">  1       21 0.29345558E-01 0.12724647E+03</pdfrwt>
<pdfrwt beam="2">  1       21 0.16569517E-01 0.12724647E+03</pdfrwt>
<totfact> 0.36793774E+05</totfact>
</mgrwt>
</event>
<event>
 6    1  0.4271609E-002  0.1282116E+03  0.7546771E-02  0.1230134E+00
         21   -1    0    0  504  502  0.00000000000E+00  0.00000000000E+00  0.38198425401E+03  0.38198425401E+03  0.00000000000E+00 0. -1.
         21   -1    0    0  502  503 -0.00000000000E+00 -0.00000000000E+00 -0.23120075257E+03  0.23120075257E+03  0.00000000000E+00 0.  1.
         25    2    1    2    0    0  0.22338389439E+02 -0.17703103382E+02  0.37027836661E+03  0.39184725709E+03  0.12500320234E+03 0.  0.
          5    1    3    3  501    0 -0.49031496643E+02  0.74922737651E+00  0.20651507604E+03  0.21225723930E+03  0.10000000000E+00 0.  1.
         -5    1    3    3    0  501  0.71369886082E+02 -0.18452330758E+02  0.16376329057E+03  0.17959001779E+03  0.10000000000E+00 0.  1.
         21    1    1    2  504  503 -0.22338389439E+02  0.17703103382E+02 -0.21949486517E+03  0.22133774949E+03  0.00000000000E+00 0.  1.
<mgrwt>
<rscale>  1 0.12821156E+03</rscale>
<asrwt>0</asrwt>
<pdfrwt beam="1">  1       21 0.58766809E-01 0.12821156E+03</pdfrwt>
<pdfrwt beam="2">  1       21 0.35569346E-01 0.12821156E+03</pdfrwt>
<totfact> 0.21518808E+04</totfact>
</mgrwt>
</event>
<event>
 6    1  0.4271609E-002  0.1352059E+03  0.7546771E-02  0.1219929E+00
         21   -1    0    0  503  502  0.00000000000E+00  0.00000000000E+00  0.55291708408E+03  0.55291708408E+03  0.00000000000E+00 0. -1.
         21   -1    0    0  504  503 -0.00000000000E+00 -0.00000000000E+00 -0.18620114365E+02  0.18620114365E+02  0.00000000000E+00 0. -1.
         25    2    1    2    0    0 -0.44917199218E+02  0.25210459392E+02  0.47050390844E+03  0.48954526765E+03  0.12501007629E+03 0.  0.
          5    1    3    3  501    0 -0.35121086238E+02  0.32370407507E+01  0.46300337525E+03  0.46434481221E+03  0.10000000000E+00 0.  1.
         -5    1    3    3    0  501 -0.97961129800E+01  0.21973418641E+02  0.75005331853E+01  0.25200455440E+02  0.10000000000E+00 0.  1.
         21    1    1    2  504  502  0.44917199218E+02 -0.25210459392E+02  0.63793061280E+02  0.81991930797E+02  0.00000000000E+00 0. -1.
<mgrwt>
<rscale>  1 0.13520592E+03</rscale>
<asrwt>0</asrwt>
<pdfrwt beam="1">  1       21 0.85064154E-01 0.13520592E+03</pdfrwt>
<pdfrwt beam="2">  1       21 0.28646334E-02 0.13520592E+03</pdfrwt>
<totfact> 0.82176937E+05</totfact>
</mgrwt>
</event>
<event>
 6    1  0.4271609E-002  0.1284796E+03  0.7546771E-02  0.1229729E+00
         21   -1    0    0  503  502  0.00000000000E+00  0.00000000000E+00  0.19360841342E+03  0.19360841342E+03  0.00000000000E+00 0. -1.
         21   -1    0    0  504  503 -0.00000000000E+00 -0.00000000000E+00 -0.39294701403E+02  0.39294701403E+02  0.00000000000E+00 0. -1.
         25    2    1    2    0    0  0.10628706007E+02 -0.27804450785E+02  0.15716847579E+03  0.20299982819E+03  0.12498377330E+03 0.  0.
          5    1    3    3  501    0 -0.21399994618E+02 -0.27386188498E+02  0.16613927125E+03  0.16973576683E+03  0.10000000000E+00 0. -1.
         -5    1    3    3    0  501  0.32028700625E+02 -0.41826228657E+00 -0.89707954588E+01  0.33264061361E+02  0.10000000000E+00 0. -1.
         21    1    1    2  504  502 -0.10628706007E+02  0.27804450785E+02 -0.28547637789E+01  0.29903286626E+02  0.00000000000E+00 0. -1.
<mgrwt>
<rscale>  1 0.12847957E+03</rscale>
<asrwt>0</asrwt>
<pdfrwt beam="1">  1       21 0.29785909E-01 0.12847957E+03</pdfrwt>
<pdfrwt beam="2">  1       21 0.60453388E-02 0.12847957E+03</pdfrwt>
<totfact> 0.20907605E+06</totfact>
</mgrwt>
</event>
<event>
 6    1  0.4271609E-002  0.1404783E+03  0.7546771E-02  0.1212687E+00
         21   -1    0    0  504  502  0.00000000000E+00  0.00000000000E+00  0.32107543276E+02  0.32107543276E+02  0.00000000000E+00 0. -1.
         21   -1    0    0  502  503 -0.00000000000E+00 -0.00000000000E+00 -0.43893288248E+03  0.43893288248E+03  0.00000000000E+00 0. -1.
         25    2    1    2    0    0 -0.11949858360E+02 -0.62971937849E+02 -0.14661414996E+03  0.20305138293E+03  0.12500356422E+03 0.  0.
          5    1    3    3  501    0  0.32788286571E+02 -0.82072853092E+02 -0.72074352661E+02  0.11404274314E+03  0.10000000000E+00 0.  1.
         -5    1    3    3    0  501 -0.44738144931E+02  0.19100915243E+02 -0.74539797303E+02  0.89008639788E+02  0.10000000000E+00 0.  1.
         21    1    1    2  504  503  0.11949858360E+02  0.62971937849E+02 -0.26021118924E+03  0.26798904283E+03  0.00000000000E+00 0. -1.
<mgrwt>
<rscale>  1 0.14047831E+03</rscale>
<asrwt>0</asrwt>
<pdfrwt beam="1">  1       21 0.49396225E-02 0.14047831E+03</pdfrwt>
<pdfrwt beam="2">  1       21 0.67528130E-01 0.14047831E+03</pdfrwt>
<totfact> 0.55481301E+05</totfact>
</mgrwt>
</event>
<event>
 6    1  0.4271609E-002  0.1259326E+03  0.7546771E-02  0.1233619E+00
         21   -1    0    0  503  502  0.00000000000E+00  0.00000000000E+00  0.10893462396E+03  0.10893462396E+03  0.00000000000E+00 0. -1.
         21   -1    0    0  504  503 -0.00000000000E+00 -0.00000000000E+00 -0.58442887787E+02  0.58442887787E+02  0.00000000000E+00 0. -1.
         25    2    1    2    0    0  0.15253023169E+02 -0.98628953856E+00  0.68821511228E+02  0.14351104706E+03  0.12500157094E+03 0.  0.
          5    1    3    3  501    0 -0.54407248259E+02  0.19884883172E+01  0.42177353031E+02  0.68869745590E+02  0.10000000000E+00 0. -1.
         -5    1    3    3    0  501  0.69660271429E+02 -0.29747778558E+01  0.26644158197E+02  0.74641301468E+02  0.10000000000E+00 0. -1.
         21    1    1    2  504  502 -0.15253023169E+02  0.98628953856E+00 -0.18329775059E+02  0.23866464686E+02  0.00000000000E+00 0. -1.
<mgrwt>
<rscale>  1 0.12593260E+03</rscale>
<asrwt>0</asrwt>
<pdfrwt beam="1">  1       21 0.16759173E-01 0.12593260E+03</pdfrwt>
<pdfrwt beam="2">  1       21 0.89912135E-02 0.12593260E+03</pdfrwt>
<totfact> 0.30984967E+06</totfact>
</mgrwt>
</event>
<event>
 6    1  0.4271609E-002  0.1260095E+03  0.7546771E-02  0.1233500E+00
         21   -1    0    0  504  502  0.00000000000E+00  0.00000000000E+00  0.15498493095E+02  0.15498493095E+02  0.00000000000E+00 0.  1.
         21   -1    0    0  502  503 -0.00000000000E+00 -0.00000000000E+00 -0.32977902314E+03  0.32977902314E+03  0.00000000000E+00 0.  1.
         25    2    1    2    0    0 -0.31205871451E+01  0.15598363616E+02 -0.26381175290E+03  0.29236112484E+03  0.12500135735E+03 0.  0.
          5    1    3    3  501    0 -0.28345856016E+02  0.64522243337E+02 -0.13520021431E+03  0.15246545638E+03  0.10000000000E+00 0. -1.
         -5    1    3    3    0  501  0.25225268871E+02 -0.48923879721E+02 -0.12861153859E+03  0.13989566846E+03  0.10000000000E+00 0. -1.
         21    1    1    2  504  503  0.31205871451E+01 -0.15598363616E+02 -0.50468777147E+02  0.52916391396E+02  0.00000000000E+00 0.  1.
<mgrwt>
<rscale>  1 0.12600947E+03</rscale>
<asrwt>0</asrwt>
<pdfrwt beam="1">  1       21 0.23843835E-02 0.12600947E+03</pdfrwt>
<pdfrwt beam="2">  1       21 0.50735234E-01 0.12600947E+03</pdfrwt>
<totfact> 0.33801556E+06</totfact>
</mgrwt>
</event>
<event>
 6    1  0.4271609E-002  0.1309928E+03  0.7546771E-02  0.1225990E+00
         21   -1    0    0  503  502  0.00000000000E+00  0.00000000000E+00  0.77055317772E+01  0.77055317772E+01  0.00000000000E+00 0.  1.
         21   -1    0    0  504  503 -0.00000000000E+00 -0.00000000000E+00 -0.95111352012E+03  0.95111352012E+03  0.00000000000E+00 0.  1.
         25    2    1    2    0    0 -0.19955539047E+01 -0.39123049484E+02 -0.76786977906E+03  0.77896283667E+03  0.12499803234E+03 0.  0.
          5    1    3    3  501    0 -0.11384983867E+02  0.18342752879E+02 -0.21999197696E+02  0.30822867163E+02  0.10000000000E+00 0. -1.
         -5    1    3    3    0  501  0.93894299625E+01 -0.57465802363E+02 -0.74587058136E+03  0.74813996951E+03  0.10000000000E+00 0. -1.
         21    1    1    2  504  502  0.19955539047E+01  0.39123049484E+02 -0.17553820929E+03  0.17985621523E+03  0.00000000000E+00 0.  1.
<mgrwt>
<rscale>  1 0.13099276E+03</rscale>
<asrwt>0</asrwt>
<pdfrwt beam="1">  1       21 0.11854667E-02 0.13099276E+03</pdfrwt>
<pdfrwt beam="2">  1       21 0.14632512E+00 0.13099276E+03</pdfrwt>
<totfact> 0.92282074E+05</totfact>
</mgrwt>
</event>
<event>
 6    1  0.4271609E-002  0.1259654E+03  0.7546771E-02  0.1233568E+00
         21   -1    0    0  503  502  0.00000000000E+00  0.00000000000E+00  0.19251911885E+03  0.19251911885E+03  0.00000000000E+00 0. -1.
         21   -1    0    0  504  503 -0.00000000000E+00 -0.00000000000E+00 -0.29306693445E+02  0.29306693445E+02  0.00000000000E+00 0. -1.
         25    2    1    2    0    0  0.73908147395E+00  0.15563424732E+02  0.16330807325E+03  0.20624455499E+03  0.12499809296E+03 0.  0.
          5    1    3    3  501    0 -0.50317176963E+02 -0.24529816630E+02  0.10498300829E+03  0.11897467054E+03  0.10000000000E+00 0.  1.
         -5    1    3    3    0  501  0.51056258437E+02  0.40093241362E+02  0.58325064963E+02  0.87269884447E+02  0.10000000000E+00 0.  1.
         21    1    1    2  504  502 -0.73908147395E+00 -0.15563424732E+02 -0.95647842819E-01  0.15581257308E+02  0.00000000000E+00 0. -1.
<mgrwt>
<rscale>  1 0.12596543E+03</rscale>
<asrwt>0</asrwt>
<pdfrwt beam="1">  1       21 0.29618325E-01 0.12596543E+03</pdfrwt>
<pdfrwt beam="2">  1       21 0.45087222E-02 0.12596543E+03</pdfrwt>
<totfact> 0.34598203E+06</totfact>
</mgrwt>
</event>
<event>
 6    1  0.4271609E-002  0.1259793E+03  0.7546771E-02  0.1233547E+00
         21   -1    0    0  504  502  0.00000000000E+00  0.00000000000E+00  0.10986072323E+03  0.10986072323E+03  0.00000000000E+00 0. -1.
         21   -1    0    0  502  503 -0.00000000000E+00 -0.00000000000E+00 -0.51316970798E+02  0.51316970798E+02  0.00000000000E+00 0. -1.
         25    2    1    2    0    0 -0.75573804615E+01 -0.13736925245E+02  0.67703650649E+02  0.14301947689E+03  0.12499987737E+03 0.  0.
          5    1    3    3  501    0  0.25703659206E+02  0.48623695464E+02  0.24728505491E+02  0.60302991973E+02  0.10000000000E+00 0. -1.
         -5    1    3    3    0  501 -0.33261039667E+02 -0.62360620708E+02  0.42975145159E+02  0.82716484913E+02  0.10000000000E+00 0. -1.
         21    1    1    2  504  503  0.75573804615E+01  0.13736925245E+02 -0.91598982138E+01  0.18158217146E+02  0.00000000000E+00 0. -1.
<mgrwt>
<rscale>  1 0.12597931E+03</rscale>
<asrwt>0</asrwt>
<pdfrwt beam="1">  1       21 0.16901650E-01 0.12597931E+03</pdfrwt>
<pdfrwt beam="2">  1       21 0.78949186E-02 0.12597931E+03</pdfrwt>
<totfact> 0.38201704E+06</totfact>
</mgrwt>
</event>
<event>
 6    1  0.4271609E-002  0.1269303E+03  0.7546771E-02  0.1232083E+00
         21   -1    0    0  503  502  0.00000000000E+00  0.00000000000E+00  0.14112537281E+03  0.14112537281E+03  0.00000000000E+00 0. -1.
         21   -1    0    0  504  503 -0.00000000000E+00 -0.00000000000E+00 -0.12286086848E+03  0.12286086848E+03  0.00000000000E+00 0. -1.
         25    2    1    2    0    0  0.89639116069E+01  0.20152013995E+02  0.11102771018E+03  0.16863705285E+03  0.12499939114E+03 0.  0.
          5    1    3    3  501    0 -0.20014710564E+02 -0.42073184380E+02  0.81575527859E+02  0.93943164883E+02  0.10000000000E+00 0.  1.
         -5    1    3    3    0  501  0.28978622171E+02  0.62225198374E+02  0.29452182319E+02  0.74693887963E+02  0.10000000000E+00 0.  1.
         21    1    1    2  504  502 -0.89639116069E+01 -0.20152013995E+02 -0.92763205843E+02  0.95349188447E+02  0.00000000000E+00 0. -1.
<mgrwt>
<rscale>  1 0.12693031E+03</rscale>
<asrwt>0</asrwt>
<pdfrwt beam="1">  1       21 0.21711596E-01 0.12693031E+03</pdfrwt>
<pdfrwt beam="2">  1       21 0.18901672E-01 0.12693031E+03</pdfrwt>
<totfact> 0.51147021E+05</totfact>
</mgrwt>
</event>
<event>
 6    1  0.4271609E-002  0.1284850E+03  0.7546771E-02  0.1229721E+00
         21   -1    0    0  503  502  0.00000000000E+00  0.00000000000E+00  0.10336324009E+03  0.10336324009E+03  0.00000000000E+00 0.  1.
         21   -1    0    0  504  503 -0.00000000000E+00 -0.00000000000E+00 -0.66590231670E+02  0.66590231670E+02  0.00000000000E+00 0.  1.
         25    2    1    2    0    0  0.11814717496E+02 -0.27274846784E+02  0.49405790069E+02  0.13765653709E+03  0.12499954118E+03 0.  0.
          5    1    3    3  501    0  0.68527221869E+02 -0.17510232944E+02  0.23331022359E+02  0.74477748349E+02  0.10000000000E+00 0. -1.
         -5    1    3    3    0  501 -0.56712504373E+02 -0.97646138397E+01  0.26074767710E+02  0.63178788741E+02  0.10000000000E+00 0. -1.
         21    1    1    2  504  502 -0.11814717496E+02  0.27274846784E+02 -0.12632781652E+02  0.32296934667E+02  0.00000000000E+00 0.  1.
<mgrwt>
<rscale>  1 0.12848498E+03</rscale>
<asrwt>0</asrwt>
<pdfrwt beam="1">  1       21 0.15902037E-01 0.12848498E+03</pdfrwt>
<pdfrwt beam="2">  1       21 0.10244651E-01 0.12848498E+03</pdfrwt>
<totfact> 0.27164773E+06</totfact>
</mgrwt>
</event>
<event>
 6    1  0.4271609E-002  0.1273629E+03  0.7546771E-02  0.1231422E+00
         21   -1    0    0  503  502  0.00000000000E+00  0.00000000000E+00  0.29096191300E+02  0.29096191300E+02  0.00000000000E+00 0.  1.
         21   -1    0    0  504  503 -0.00000000000E+00 -0.00000000000E+00 -0.20167303117E+03  0.20167303117E+03  0.00000000000E+00 0.  1.
         25    2    1    2    0    0  0.15734161620E+02 -0.18682157529E+02 -0.13213471380E+03  0.18352356221E+03  0.12499891378E+03 0.  0.
          5    1    3    3  501    0  0.39923802464E+02  0.82050229220E+01 -0.14059184455E+03  0.14638069941E+03  0.10000000000E+00 0.  1.
         -5    1    3    3    0  501 -0.24189640845E+02 -0.26887180451E+02  0.84571307545E+01  0.37142862806E+02  0.10000000000E+00 0.  1.
         21    1    1    2  504  502 -0.15734161620E+02  0.18682157529E+02 -0.40442126075E+02  0.47245660258E+02  0.00000000000E+00 0.  1.
<mgrwt>
<rscale>  1 0.12736293E+03</rscale>
<asrwt>0</asrwt>
<pdfrwt beam="1">  1       21 0.44763372E-02 0.12736293E+03</pdfrwt>
<pdfrwt beam="2">  1       21 0.31026620E-01 0.12736293E+03</pdfrwt>
<totfact> 0.32028115E+06</totfact>
</mgrwt>
</event>
<event>
 6    1  0.4271609E-002  0.1259749E+03  0.7546771E-02  0.1233554E+00
         21   -1    0    0  503  502  0.00000000000E+00  0.00000000000E+00  0.55218554586E+02  0.55218554586E+02  0.00000000000E+00 0. -1.
         21   -1    0    0  504  503 -0.00000000000E+00 -0.00000000000E+00 -0.10436743889E+03  0.10436743889E+03  0.00000000000E+00 0. -1.
         25    2    1    2    0    0 -0.14807702982E+02 -0.50256200302E+01 -0.21464341466E+02  0.12779041459E+03  0.12500058873E+03 0.  0.
          5    1    3    3  501    0  0.52288765553E+01 -0.29791165100E+02  0.44922405145E+02  0.54156136790E+02  0.10000000000E+00 0. -1.
         -5    1    3    3    0  501 -0.20036579537E+02  0.24765545070E+02 -0.66386746611E+02  0.73634277804E+02  0.10000000000E+00 0. -1.
         21    1    1    2  504  502  0.14807702982E+02  0.50256200302E+01 -0.27684542838E+02  0.31795578882E+02  0.00000000000E+00 0. -1.
<mgrwt>
<rscale>  1 0.12597489E+03</rscale>
<asrwt>0</asrwt>
<pdfrwt beam="1">  1       21 0.84951624E-02 0.12597489E+03</pdfrwt>
<pdfrwt beam="2">  1       21 0.16056529E-01 0.12597489E+03</pdfrwt>
<totfact> 0.36950005E+06</totfact>
</mgrwt>
</event>
<event>
 6    1  0.4271609E-002  0.1259731E+03  0.7546771E-02  0.1233556E+00
         21   -1    0    0  504  502  0.00000000000E+00  0.00000000000E+00  0.10428539972E+03  0.10428539972E+03  0.00000000000E+00 0.  1.
         21   -1    0    0  502  503 -0.00000000000E+00 -0.00000000000E+00 -0.48385831538E+02  0.48385831538E+02  0.00000000000E+00 0.  1.
         25    2    1    2    0    0  0.15597728796E+02 -0.11648576276E+01  0.53433089044E+02  0.13683678917E+03  0.12499826330E+03 0.  0.
          5    1    3    3  501    0 -0.54282683483E+02 -0.48794540245E+01  0.33893257834E+02  0.64180851695E+02  0.10000000000E+00 0. -1.
         -5    1    3    3    0  501  0.69880412279E+02  0.37145963969E+01  0.19539831210E+02  0.72655937475E+02  0.10000000000E+00 0. -1.
         21    1    1    2  504  503 -0.15597728796E+02  0.11648576276E+01  0.24664791376E+01  0.15834442087E+02  0.00000000000E+00 0.  1.
<mgrwt>
<rscale>  1 0.12597306E+03</rscale>
<asrwt>0</asrwt>
<pdfrwt beam="1">  1       21 0.16043908E-01 0.12597306E+03</pdfrwt>
<pdfrwt beam="2">  1       21 0.74439741E-02 0.12597306E+03</pdfrwt>
<totfact> 0.46456175E+06</totfact>
</mgrwt>
</event>
<event>
 6    1  0.4271609E-002  0.1259782E+03  0.7546771E-02  0.1233548E+00
         21   -1    0    0  503  502  0.00000000000E+00  0.00000000000E+00  0.16641391037E+03  0.16641391037E+03  0.00000000000E+00 0.  1.
         21   -1    0    0  504  503 -0.00000000000E+00 -0.00000000000E+00 -0.63275087094E+02  0.63275087094E+02  0.00000000000E+00 0. -1.
         25    2    1    2    0    0 -0.14379421745E+02 -0.55259568515E+01  0.14084038652E+03  0.18896171128E+03  0.12503283523E+03 0.  0.
          5    1    3    3  501    0  0.12617068588E+02 -0.47260596836E+02  0.11288027009E+02  0.50201434111E+02  0.10000000000E+00 0. -1.
         -5    1    3    3    0  501 -0.26996490334E+02  0.41734639985E+02  0.12955235951E+03  0.13876027717E+03  0.10000000000E+00 0. -1.
         21    1    1    2  504  502  0.14379421745E+02  0.55259568515E+01 -0.37701563244E+02  0.40727286184E+02  0.00000000000E+00 0. -1.
<mgrwt>
<rscale>  1 0.12597823E+03</rscale>
<asrwt>0</asrwt>
<pdfrwt beam="1">  1       21 0.25602140E-01 0.12597823E+03</pdfrwt>
<pdfrwt beam="2">  1       21 0.97346288E-02 0.12597823E+03</pdfrwt>
<totfact> 0.12298699E+06</totfact>
</mgrwt>
</event>
<event>
 6    1  0.4271609E-002  0.1275922E+03  0.7546771E-02  0.1231073E+00
         21   -1    0    0  504  502  0.00000000000E+00  0.00000000000E+00  0.19475798957E+03  0.19475798957E+03  0.00000000000E+00 0. -1.
         21   -1    0    0  502  503 -0.00000000000E+00 -0.00000000000E+00 -0.32069786648E+02  0.32069786648E+02  0.00000000000E+00 0. -1.
         25    2    1    2    0    0 -0.16104356403E+02 -0.19907055346E+02  0.15354394874E+03  0.19963846706E+03  0.12499652871E+03 0.  0.
          5    1    3    3  501    0  0.30748131587E+02  0.23610818486E+02  0.12263158304E+03  0.12861350436E+03  0.10000000000E+00 0.  1.
         -5    1    3    3    0  501 -0.46852487990E+02 -0.43517873832E+02  0.30912365705E+02  0.71024962704E+02  0.10000000000E+00 0.  1.
         21    1    1    2  504  503  0.16104356403E+02  0.19907055346E+02  0.91442541799E+01  0.27189309152E+02  0.00000000000E+00 0. -1.
<mgrwt>
<rscale>  1 0.12759222E+03</rscale>
<asrwt>0</asrwt>
<pdfrwt beam="1">  1       21 0.29962767E-01 0.12759222E+03</pdfrwt>
<pdfrwt beam="2">  1       21 0.49338135E-02 0.12759222E+03</pdfrwt>
<totfact> 0.29113394E+06</totfact>
</mgrwt>
</event>
<event>
 6    1  0.4271609E-002  0.1291451E+03  0.7546771E-02  0.1228730E+00
         21   -1    0    0  504  502  0.00000000000E+00  0.00000000000E+00  0.10778474626E+03  0.10778474626E+03  0.00000000000E+00 0.  1.
         21   -1    0    0  502  503 -0.00000000000E+00 -0.00000000000E+00 -0.27321686640E+03  0.27321686640E+03  0.00000000000E+00 0. -1.
         25    2    1    2    0    0  0.47162561422E+01 -0.32103732591E+02  0.67568078457E+02  0.14575283952E+03  0.12500220912E+03 0.  0.
          5    1    3    3  501    0 -0.39827305726E+01  0.42996560656E+02 -0.17025316590E+01  0.43214291445E+02  0.10000000000E+00 0.  1.
         -5    1    3    3    0  501  0.86989867148E+01 -0.75100293247E+02  0.69270610116E+02  0.10253854808E+03  0.10000000000E+00 0.  1.
         21    1    1    2  504  503 -0.47162561422E+01  0.32103732591E+02 -0.23300019859E+03  0.23524877314E+03  0.00000000000E+00 0. -1.
<mgrwt>
<rscale>  1 0.12914505E+03</rscale>
<asrwt>0</asrwt>
<pdfrwt beam="1">  1       21 0.16582269E-01 0.12914505E+03</pdfrwt>
<pdfrwt beam="2">  1       21 0.42033364E-01 0.12914505E+03</pdfrwt>
<totfact> 0.18122001E+05</totfact>
</mgrwt>
</event>
<event>
 6    1  0.4271609E-002  0.1306544E+03  0.7546771E-02  0.1226488E+00
         21   -1    0    0  504  502  0.00000000000E+00  0.00000000000E+00  0.55502349626E+02  0.55502349626E+02  0.00000000000E+00 0. -1.
         21   -1    0    0  502  503 -0.00000000000E+00 -0.00000000000E+00 -0.37304043702E+03  0.37304043702E+03  0.00000000000E+00 0. -1.
         25    2    1    2    0    0  0.15201261458E+02  0.34863584193E+02 -0.24357383497E+02  0.13290538544E+03  0.12499604592E+03 0.  0.
          5    1    3    3  501    0  0.67842910840E+02  0.14831600305E+02 -0.31265626476E+02  0.76158954285E+02  0.10000000000E+00 0.  1.
         -5    1    3    3    0  501 -0.52641649382E+02  0.20031983888E+02  0.69082429794E+01  0.56746431158E+02  0.10000000000E+00 0.  1.
         21    1    1    2  504  503 -0.15201261458E+02 -0.34863584193E+02 -0.29318070390E+03  0.29563740120E+03  0.00000000000E+00 0. -1.
<mgrwt>
<rscale>  1 0.13065435E+03</rscale>
<asrwt>0</asrwt>
<pdfrwt beam="1">  1       21 0.85388232E-02 0.13065435E+03</pdfrwt>
<pdfrwt beam="2">  1       21 0.57390835E-01 0.13065435E+03</pdfrwt>
<totfact> 0.30936162E+05</totfact>
</mgrwt>
</event>
<event>
 6    1  0.4271609E-002  0.1347206E+03  0.7546771E-02  0.1220615E+00
         21   -1    0    0  504  502  0.00000000000E+00  0.00000000000E+00  0.53911274100E+03  0.53911274100E+03  0.00000000000E+00 0. -1.
         21   -1    0    0  502  503 -0.00000000000E+00 -0.00000000000E+00 -0.79271640648E+03  0.79271640648E+03  0.00000000000E+00 0. -1.
         25    2    1    2    0    0 -0.46518538723E+02  0.19005705670E+02  0.52987878017E+03  0.54673683830E+03  0.12499782952E+03 0.  0.
          5    1    3    3  501    0 -0.11545965651E+02 -0.84656284719E+01  0.47878717927E+03  0.47900119960E+03  0.10000000000E+00 0.  1.
         -5    1    3    3    0  501 -0.34972573071E+02  0.27471334142E+02  0.51091600896E+02  0.67735638691E+02  0.10000000000E+00 0.  1.
         21    1    1    2  504  503  0.46518538723E+02 -0.19005705670E+02 -0.78348244565E+03  0.78509230918E+03  0.00000000000E+00 0. -1.
<mgrwt>
<rscale>  1 0.13472063E+03</rscale>
<asrwt>0</asrwt>
<pdfrwt beam="1">  1       21 0.82940421E-01 0.13472063E+03</pdfrwt>
<pdfrwt beam="2">  1       21 0.12195637E+00 0.13472063E+03</pdfrwt>
<totfact> 0.69068940E+02</totfact>
</mgrwt>
</event>
<event>
 6    1  0.4271609E-002  0.1409274E+03  0.7546771E-02  0.1212086E+00
         21   -1    0    0  503  502  0.00000000000E+00  0.00000000000E+00  0.10573210411E+04  0.10573210411E+04  0.00000000000E+00 0.  1.
         21   -1    0    0  504  503 -0.00000000000E+00 -0.00000000000E+00 -0.27047669053E+02  0.27047669053E+02  0.00000000000E+00 0.  1.
         25    2    1    2    0    0 -0.14772588452E+02 -0.63380579947E+02  0.16644715177E+03  0.21809446597E+03  0.12500085789E+03 0.  0.
          5    1    3    3  501    0 -0.12634152304E+02  0.31765802973E+02  0.89177601785E+02  0.95505720787E+02  0.10000000000E+00 0. -1.
         -5    1    3    3    0  501 -0.21384361484E+01 -0.95146382921E+02  0.77269549980E+02  0.12258874519E+03  0.10000000000E+00 0. -1.
         21    1    1    2  504  502  0.14772588452E+02  0.63380579947E+02  0.86382622030E+03  0.86627424420E+03  0.00000000000E+00 0.  1.
<mgrwt>
<rscale>  1 0.14092743E+03</rscale>
<asrwt>0</asrwt>
<pdfrwt beam="1">  1       21 0.16266474E+00 0.14092743E+03</pdfrwt>
<pdfrwt beam="2">  1       21 0.41611807E-02 0.14092743E+03</pdfrwt>
<totfact> 0.90734219E+04</totfact>
</mgrwt>
</event>
<event>
 6    1  0.4271609E-002  0.1323996E+03  0.7546771E-02  0.1223938E+00
         21   -1    0    0  504  502  0.00000000000E+00  0.00000000000E+00  0.94283567080E+02  0.94283567080E+02  0.00000000000E+00 0.  1.
         21   -1    0    0  502  503 -0.00000000000E+00 -0.00000000000E+00 -0.29046512610E+03  0.29046512610E+03  0.00000000000E+00 0.  1.
         25    2    1    2    0    0  0.17062128186E+02 -0.40165163257E+02  0.44856762129E+02  0.13979190348E+03  0.12500116244E+03 0.  0.
          5    1    3    3  501    0 -0.16576234039E+02 -0.28467538202E+02  0.81977913476E+02  0.88349083549E+02  0.10000000000E+00 0.  1.
         -5    1    3    3    0  501  0.33638362225E+02 -0.11697625055E+02 -0.37121151346E+02  0.51442819930E+02  0.10000000000E+00 0.  1.
         21    1    1    2  504  503 -0.17062128186E+02  0.40165163257E+02 -0.24103832115E+03  0.24495678970E+03  0.00000000000E+00 0.  1.
<mgrwt>
<rscale>  1 0.13239957E+03</rscale>
<asrwt>0</asrwt>
<pdfrwt beam="1">  1       21 0.14505164E-01 0.13239957E+03</pdfrwt>
<pdfrwt beam="2">  1       21 0.44686942E-01 0.13239957E+03</pdfrwt>
<totfact> 0.20378460E+05</totfact>
</mgrwt>
</event>
<event>
 6    1  0.4271609E-002  0.1375868E+03  0.7546771E-02  0.1216613E+00
         21   -1    0    0  504  502  0.00000000000E+00  0.00000000000E+00  0.26763072639E+03  0.26763072639E+03  0.00000000000E+00 0.  1.
         21   -1    0    0  502  503 -0.00000000000E+00 -0.00000000000E+00 -0.62613473448E+02  0.62613473448E+02  0.00000000000E+00 0.  1.
         25    2    1    2    0    0 -0.33805585499E+02 -0.46479152460E+02  0.22965306676E+03  0.26771378686E+03  0.12500804527E+03 0.  0.
          5    1    3    3  501    0  0.25514176571E+02  0.40317513321E+01  0.67076047577E+00  0.25839662237E+02  0.10000000000E+00 0.  1.
         -5    1    3    3    0  501 -0.59319762070E+02 -0.50510903793E+02  0.22898230628E+03  0.24187412463E+03  0.10000000000E+00 0.  1.
         21    1    1    2  504  503  0.33805585499E+02  0.46479152460E+02 -0.24635813815E+02  0.62530412974E+02  0.00000000000E+00 0.  1.
<mgrwt>
<rscale>  1 0.13758685E+03</rscale>
<asrwt>0</asrwt>
<pdfrwt beam="1">  1       21 0.41173957E-01 0.13758685E+03</pdfrwt>
<pdfrwt beam="2">  1       21 0.96328422E-02 0.13758685E+03</pdfrwt>
<totfact> 0.49625044E+05</totfact>
</mgrwt>
</event>
<event>
 6    1  0.4271609E-002  0.1327292E+03  0.7546771E-02  0.1223461E+00
         21   -1    0    0  504  502  0.00000000000E+00  0.00000000000E+00  0.72971799293E+02  0.72971799293E+02  0.00000000000E+00 0. -1.
         21   -1    0    0  502  503 -0.00000000000E+00 -0.00000000000E+00 -0.81683083875E+03  0.81683083875E+03  0.00000000000E+00 0. -1.
         25    2    1    2    0    0 -0.31766321301E+02 -0.31353450657E+02  0.11407388655E+02  0.13321852807E+03  0.12499963867E+03 0.  0.
          5    1    3    3  501    0 -0.30543769607E+02  0.42150879770E+02 -0.16467311039E+02  0.54596711073E+02  0.10000000000E+00 0.  1.
         -5    1    3    3    0  501 -0.12225516943E+01 -0.73504330427E+02  0.27874699694E+02  0.78621816993E+02  0.10000000000E+00 0.  1.
         21    1    1    2  504  503  0.31766321301E+02  0.31353450657E+02 -0.75526642812E+03  0.75658410998E+03  0.00000000000E+00 0. -1.
<mgrwt>
<rscale>  1 0.13272923E+03</rscale>
<asrwt>0</asrwt>
<pdfrwt beam="1">  1       21 0.11226430E-01 0.13272923E+03</pdfrwt>
<pdfrwt beam="2">  1       21 0.12566629E+00 0.13272923E+03</pdfrwt>
<totfact> 0.32300144E+04</totfact>
</mgrwt>
</event>
<event>
 6    1  0.4271609E-002  0.1273704E+03  0.7546771E-02  0.1231411E+00
         21   -1    0    0  504  502  0.00000000000E+00  0.00000000000E+00  0.10169727575E+03  0.10169727575E+03  0.00000000000E+00 0. -1.
         21   -1    0    0  502  503 -0.00000000000E+00 -0.00000000000E+00 -0.57221929191E+02  0.57221929191E+02  0.00000000000E+00 0. -1.
         25    2    1    2    0    0 -0.10575354930E+02 -0.22051648357E+02  0.42943683892E+02  0.13441493352E+03  0.12500040416E+03 0.  0.
          5    1    3    3  501    0  0.53300533942E+02 -0.32264733958E+02  0.26242013022E+02  0.67606310528E+02  0.10000000000E+00 0.  1.
         -5    1    3    3    0  501 -0.63875888871E+02  0.10213085602E+02  0.16701670871E+02  0.66808622995E+02  0.10000000000E+00 0.  1.
         21    1    1    2  504  503  0.10575354930E+02  0.22051648357E+02  0.15316626661E+01  0.24504271416E+02  0.00000000000E+00 0.  1.
<mgrwt>
<rscale>  1 0.12737038E+03</rscale>
<asrwt>0</asrwt>
<pdfrwt beam="1">  1       21 0.15645735E-01 0.12737038E+03</pdfrwt>
<pdfrwt beam="2">  1       21 0.88033737E-02 0.12737038E+03</pdfrwt>
<totfact> 0.36425088E+06</totfact>
</mgrwt>
</event>
<event>
 6    1  0.4271609E-002  0.1259057E+03  0.7546771E-02  0.1233661E+00
         21   -1    0    0  503  502  0.00000000000E+00  0.00000000000E+00  0.20048794712E+03  0.20048794712E+03  0.00000000000E+00 0. -1.
         21   -1    0    0  504  503 -0.00000000000E+00 -0.00000000000E+00 -0.26711111352E+02  0.26711111352E+02  0.00000000000E+00 0. -1.
         25    2    1    2    0    0 -0.10376744740E+02 -0.10899262419E+02  0.13030020518E+03  0.18119157908E+03  0.12500309639E+03 0.  0.
          5    1    3    3  501    0  0.33357883401E+02  0.39846451832E+02  0.28337252188E+02  0.59190353692E+02  0.10000000000E+00 0.  1.
         -5    1    3    3    0  501 -0.43734628141E+02 -0.50745714251E+02  0.10196295300E+03  0.12200122539E+03  0.10000000000E+00 0.  1.
         21    1    1    2  504  502  0.10376744740E+02  0.10899262419E+02  0.43476630583E+02  0.46007479387E+02  0.00000000000E+00 0. -1.
<mgrwt>
<rscale>  1 0.12590570E+03</rscale>
<asrwt>0</asrwt>
<pdfrwt beam="1">  1       21 0.30844299E-01 0.12590570E+03</pdfrwt>
<pdfrwt beam="2">  1       21 0.41094019E-02 0.12590570E+03</pdfrwt>
<totfact> 0.37339308E+06</totfact>
</mgrwt>
</event>
<event>
 6    1  0.4271609E-002  0.1281011E+03  0.7546771E-02  0.1230301E+00
         21   -1    0    0  504  502  0.00000000000E+00  0.00000000000E+00  0.14363031159E+03  0.14363031159E+03  0.00000000000E+00 0.  1.
         21   -1    0    0  502  503 -0.00000000000E+00 -0.00000000000E+00 -0.42986143880E+02  0.42986143880E+02  0.00000000000E+00 0.  1.
         25    2    1    2    0    0  0.21139054353E+02 -0.18350337025E+02  0.90491515144E+02  0.15683943678E+03  0.12500520040E+03 0.  0.
          5    1    3    3  501    0  0.69697560572E+02 -0.31854919084E+01  0.25451734547E+02  0.74267746027E+02  0.10000000000E+00 0.  1.
         -5    1    3    3    0  501 -0.48558506219E+02 -0.15164845116E+02  0.65039780597E+02  0.82571690753E+02  0.10000000000E+00 0.  1.
         21    1    1    2  504  503 -0.21139054353E+02  0.18350337025E+02  0.10152652563E+02  0.29777018687E+02  0.00000000000E+00 0.  1.
<mgrwt>
<rscale>  1 0.12810111E+03</rscale>
<asrwt>0</asrwt>
<pdfrwt beam="1">  1       21 0.22096971E-01 0.12810111E+03</pdfrwt>
<pdfrwt beam="2">  1       21 0.66132530E-02 0.12810111E+03</pdfrwt>
<totfact> 0.31603930E+06</totfact>
</mgrwt>
</event>
<event>
 6    1  0.4271609E-002  0.1944484E+03  0.7546771E-02  0.1154509E+00
         21   -1    0    0  503  502  0.00000000000E+00  0.00000000000E+00  0.14347288056E+03  0.14347288056E+03  0.00000000000E+00 0.  1.
         21   -1    0    0  504  503 -0.00000000000E+00 -0.00000000000E+00 -0.32508840102E+03  0.32508840102E+03  0.00000000000E+00 0.  1.
         25    2    1    2    0    0  0.13063344895E+03 -0.71583832002E+02  0.42899225519E+02  0.19912443527E+03  0.12498341563E+03 0.  0.
          5    1    3    3  501    0  0.57479868961E+02 -0.23684607711E+02  0.82362433176E+02  0.10319145496E+03  0.10000000000E+00 0. -1.
         -5    1    3    3    0  501  0.73153579984E+02 -0.47899224291E+02 -0.39463207657E+02  0.95932980308E+02  0.10000000000E+00 0. -1.
         21    1    1    2  504  502 -0.13063344895E+03  0.71583832002E+02 -0.22451474598E+03  0.26943684631E+03  0.00000000000E+00 0.  1.
<mgrwt>
<rscale>  1 0.19444844E+03</rscale>
<asrwt>0</asrwt>
<pdfrwt beam="1">  1       21 0.22072751E-01 0.19444844E+03</pdfrwt>
<pdfrwt beam="2">  1       21 0.50013600E-01 0.19444844E+03</pdfrwt>
<totfact> 0.73001305E+04</totfact>
</mgrwt>
</event>
<event>
 6    1  0.4271609E-002  0.1291666E+03  0.7546771E-02  0.1228698E+00
         21   -1    0    0  503  502  0.00000000000E+00  0.00000000000E+00  0.35540978593E+03  0.35540978593E+03  0.00000000000E+00 0.  1.
         21   -1    0    0  504  503 -0.00000000000E+00 -0.00000000000E+00 -0.24965334172E+02  0.24965334172E+02  0.00000000000E+00 0.  1.
         25    2    1    2    0    0  0.28491878397E+02  0.15711579488E+02  0.32173178229E+03  0.34669201642E+03  0.12500149458E+03 0.  0.
          5    1    3    3  501    0 -0.44190695173E+02  0.30612528163E+02  0.11224239288E+03  0.12445203566E+03  0.10000000000E+00 0. -1.
         -5    1    3    3    0  501  0.72682573569E+02 -0.14900948675E+02  0.20948938941E+03  0.22223998076E+03  0.10000000000E+00 0. -1.
         21    1    1    2  504  502 -0.28491878397E+02 -0.15711579488E+02  0.87126694685E+01  0.33683103685E+02  0.00000000000E+00 0.  1.
<mgrwt>
<rscale>  1 0.12916662E+03</rscale>
<asrwt>0</asrwt>
<pdfrwt beam="1">  1       21 0.54678425E-01 0.12916662E+03</pdfrwt>
<pdfrwt beam="2">  1       21 0.38408209E-02 0.12916662E+03</pdfrwt>
<totfact> 0.13243420E+06</totfact>
</mgrwt>
</event>
<event>
 6    1  0.4271609E-002  0.1264426E+03  0.7546771E-02  0.1232832E+00
         21   -1    0    0  503  502  0.00000000000E+00  0.00000000000E+00  0.75481228537E+03  0.75481228537E+03  0.00000000000E+00 0.  1.
         21   -1    0    0  504  503 -0.00000000000E+00 -0.00000000000E+00 -0.11346491150E+02  0.11346491150E+02  0.00000000000E+00 0.  1.
         25    2    1    2    0    0 -0.18943130865E+02 -0.23399966690E+01  0.73407774569E+03  0.74488782810E+03  0.12499368762E+03 0.  0.
          5    1    3    3  501    0  0.33742662709E+02  0.42421315946E+02  0.40622491567E+03  0.40982536213E+03  0.10000000000E+00 0. -1.
         -5    1    3    3    0  501 -0.52685793575E+02 -0.44761312615E+02  0.32785283002E+03  0.33506246597E+03  0.10000000000E+00 0. -1.
         21    1    1    2  504  502  0.18943130865E+02  0.23399966690E+01  0.93880485317E+01  0.21270948419E+02  0.00000000000E+00 0.  1.
<mgrwt>
<rscale>  1 0.12644263E+03</rscale>
<asrwt>0</asrwt>
<pdfrwt beam="1">  1       21 0.11612493E+00 0.12644263E+03</pdfrwt>
<pdfrwt beam="2">  1       21 0.17456146E-02 0.12644263E+03</pdfrwt>
<totfact> 0.88627458E+05</totfact>
</mgrwt>
</event>
<event>
 6    1  0.4271609E-002  0.1314728E+03  0.7546771E-02  0.1225287E+00
         21   -1    0    0  503  502  0.00000000000E+00  0.00000000000E+00  0.14490599805E+04  0.14490599805E+04  0.00000000000E+00 0.  1.
         21   -1    0    0  504  503 -0.00000000000E+00 -0.00000000000E+00 -0.70154619522E+01  0.70154619522E+01  0.00000000000E+00 0.  1.
         25    2    1    2    0    0  0.39891478987E+02  0.82924791718E+01  0.13363153461E+04  0.13427672203E+04  0.12500003325E+03 0.  0.
          5    1    3    3  501    0  0.73016166030E+02  0.41549536372E+02  0.79839141031E+03  0.80279921433E+03  0.10000000000E+00 0.  1.
         -5    1    3    3    0  501 -0.33124687044E+02 -0.33257057200E+02  0.53792393582E+03  0.53996800598E+03  0.10000000000E+00 0.  1.
         21    1    1    2  504  502 -0.39891478987E+02 -0.82924791718E+01  0.10572917244E+03  0.11330822217E+03  0.00000000000E+00 0.  1.
<mgrwt>
<rscale>  1 0.13147282E+03</rscale>
<asrwt>0</asrwt>
<pdfrwt beam="1">  1       21 0.22293207E+00 0.13147282E+03</pdfrwt>
<pdfrwt beam="2">  1       21 0.10793030E-02 0.13147282E+03</pdfrwt>
<totfact> 0.33102563E+05</totfact>
</mgrwt>
</event>
<event>
 6    1  0.4271609E-002  0.1293247E+03  0.7546771E-02  0.1228461E+00
         21   -1    0    0  504  502  0.00000000000E+00  0.00000000000E+00  0.51375916794E+02  0.51375916794E+02  0.00000000000E+00 0.  1.
         21   -1    0    0  502  503 -0.00000000000E+00 -0.00000000000E+00 -0.15659980764E+03  0.15659980764E+03  0.00000000000E+00 0.  1.
         25    2    1    2    0    0  0.10329401844E+02 -0.31508926180E+02 -0.40950973619E+02  0.13565341211E+03  0.12500142801E+03 0.  0.
          5    1    3    3  501    0  0.42175815860E+02 -0.67579618377E+02 -0.15267787670E+02  0.81110539412E+02  0.10000000000E+00 0.  1.
         -5    1    3    3    0  501 -0.31846414016E+02  0.36070692197E+02 -0.25683185949E+02  0.54542872695E+02  0.10000000000E+00 0.  1.
         21    1    1    2  504  503 -0.10329401844E+02  0.31508926180E+02 -0.64272917228E+02  0.72322312328E+02  0.00000000000E+00 0.  1.
<mgrwt>
<rscale>  1 0.12932465E+03</rscale>
<asrwt>0</asrwt>
<pdfrwt beam="1">  1       21 0.79039872E-02 0.12932465E+03</pdfrwt>
<pdfrwt beam="2">  1       21 0.24092278E-01 0.12932465E+03</pdfrwt>
<totfact> 0.19806370E+06</totfact>
</mgrwt>
</event>
<event>
 6    1  0.4271609E-002  0.1268859E+03  0.7546771E-02  0.1232151E+00
         21   -1    0    0  504  502  0.00000000000E+00  0.00000000000E+00  0.28643184452E+02  0.28643184452E+02  0.00000000000E+00 0.  1.
         21   -1    0    0  502  503 -0.00000000000E+00 -0.00000000000E+00 -0.21608989704E+03  0.21608989704E+03  0.00000000000E+00 0.  1.
         25    2    1    2    0    0 -0.18010052829E+02 -0.12215435623E+02 -0.18273300081E+03  0.22246656068E+03  0.12500576853E+03 0.  0.
          5    1    3    3  501    0 -0.35627880883E+02  0.53797858088E+01 -0.19240845578E+03  0.19575319116E+03  0.10000000000E+00 0. -1.
         -5    1    3    3    0  501  0.17617828055E+02 -0.17595221432E+02  0.96754549677E+01  0.26713369526E+02  0.10000000000E+00 0. -1.
         21    1    1    2  504  503  0.18010052829E+02  0.12215435623E+02 -0.47137117770E+01  0.22266520812E+02  0.00000000000E+00 0.  1.
<mgrwt>
<rscale>  1 0.12688586E+03</rscale>
<asrwt>0</asrwt>
<pdfrwt beam="1">  1       21 0.44066440E-02 0.12688586E+03</pdfrwt>
<pdfrwt beam="2">  1       21 0.33244598E-01 0.12688586E+03</pdfrwt>
<totfact> 0.28745442E+06</totfact>
</mgrwt>
</event>
<event>
 6    1  0.4271609E-002  0.1261340E+03  0.7546771E-02  0.1233308E+00
         21   -1    0    0  504  502  0.00000000000E+00  0.00000000000E+00  0.25625617965E+03  0.25625617965E+03  0.00000000000E+00 0. -1.
         21   -1    0    0  502  503 -0.00000000000E+00 -0.00000000000E+00 -0.19988787589E+02  0.19988787589E+02  0.00000000000E+00 0. -1.
         25    2    1    2    0    0 -0.27468112523E+01  0.16713372865E+02  0.21096807026E+03  0.24579931914E+03  0.12499158698E+03 0.  0.
          5    1    3    3  501    0  0.52662462988E+02  0.30956695876E+02  0.65902288150E+02  0.89859744107E+02  0.10000000000E+00 0.  1.
         -5    1    3    3    0  501 -0.55409274241E+02 -0.14243323011E+02  0.14506578211E+03  0.15593957503E+03  0.10000000000E+00 0.  1.
         21    1    1    2  504  503  0.27468112523E+01 -0.16713372865E+02  0.25299321804E+02  0.30445648102E+02  0.00000000000E+00 0. -1.
<mgrwt>
<rscale>  1 0.12613397E+03</rscale>
<asrwt>0</asrwt>
<pdfrwt beam="1">  1       21 0.39424025E-01 0.12613397E+03</pdfrwt>
<pdfrwt beam="2">  1       21 0.30751983E-02 0.12613397E+03</pdfrwt>
<totfact> 0.37233269E+06</totfact>
</mgrwt>
</event>
<event>
 6    1  0.4271609E-002  0.1274720E+03  0.7546771E-02  0.1231256E+00
         21   -1    0    0  503  502  0.00000000000E+00  0.00000000000E+00  0.85229062057E+03  0.85229062057E+03  0.00000000000E+00 0. -1.
         21   -1    0    0  504  503 -0.00000000000E+00 -0.00000000000E+00 -0.91535734095E+01  0.91535734095E+01  0.00000000000E+00 0. -1.
         25    2    1    2    0    0  0.18144812662E+02  0.17169312036E+02  0.80987938633E+03  0.81984982529E+03  0.12500038452E+03 0.  0.
          5    1    3    3  501    0 -0.48466880659E+02 -0.14064193819E+01  0.50012705638E+03  0.50247198834E+03  0.10000000000E+00 0.  1.
         -5    1    3    3    0  501  0.66611693321E+02  0.18575731418E+02  0.30975232995E+03  0.31737783696E+03  0.10000000000E+00 0.  1.
         21    1    1    2  504  502 -0.18144812662E+02 -0.17169312036E+02  0.33257660826E+02  0.41594368680E+02  0.00000000000E+00 0. -1.
<mgrwt>
<rscale>  1 0.12747202E+03</rscale>
<asrwt>0</asrwt>
<pdfrwt beam="1">  1       21 0.13112157E+00 0.12747202E+03</pdfrwt>
<pdfrwt beam="2">  1       21 0.14082427E-02 0.12747202E+03</pdfrwt>
<totfact> 0.92711294E+05</totfact>
</mgrwt>
</event>
<event>
 6    1  0.4271609E-002  0.1261855E+03  0.7546771E-02  0.1233228E+00
         21   -1    0    0  503  502  0.00000000000E+00  0.00000000000E+00  0.11494256745E+04  0.11494256745E+04  0.00000000000E+00 0. -1.
         21   -1    0    0  504  503 -0.00000000000E+00 -0.00000000000E+00 -0.10078804500E+02  0.10078804500E+02  0.00000000000E+00 0. -1.
         25    2    1    2    0    0  0.13730244340E+02  0.10458366616E+02  0.11346117615E+04  0.11416070408E+04  0.12499955691E+03 0.  0.
          5    1    3    3  501    0  0.28985573040E+02  0.36742978937E+02  0.16472130621E+03  0.17124055789E+03  0.10000000000E+00 0.  1.
         -5    1    3    3    0  501 -0.15255328701E+02 -0.26284612321E+02  0.96989045531E+03  0.97036648293E+03  0.10000000000E+00 0.  1.
         21    1    1    2  504  502 -0.13730244340E+02 -0.10458366616E+02  0.47351085104E+01  0.17897438211E+02  0.00000000000E+00 0. -1.
<mgrwt>
<rscale>  1 0.12618552E+03</rscale>
<asrwt>0</asrwt>
<pdfrwt beam="1">  1       21 0.17683462E+00 0.12618552E+03</pdfrwt>
<pdfrwt beam="2">  1       21 0.15505862E-02 0.12618552E+03</pdfrwt>
<totfact> 0.36462326E+05</totfact>
</mgrwt>
</event>
<event>
 6    1  0.4271609E-002  0.1263289E+03  0.7546771E-02  0.1233007E+00
         21   -1    0    0  503  502  0.00000000000E+00  0.00000000000E+00  0.87341716903E+02  0.87341716903E+02  0.00000000000E+00 0.  1.
         21   -1    0    0  504  503 -0.00000000000E+00 -0.00000000000E+00 -0.61353032427E+02  0.61353032427E+02  0.00000000000E+00 0.  1.
         25    2    1    2    0    0 -0.60601797520E+01  0.17301650890E+02  0.30192122105E+02  0.12988672471E+03  0.12499169619E+03 0.  0.
          5    1    3    3  501    0 -0.43795283883E+02  0.56643051687E+02  0.20898099685E+02  0.74586880651E+02  0.10000000000E+00 0.  1.
         -5    1    3    3    0  501  0.37735104131E+02 -0.39341400797E+02  0.92940224198E+01  0.55299844061E+02  0.10000000000E+00 0.  1.
         21    1    1    2  504  502  0.60601797520E+01 -0.17301650890E+02 -0.42034376294E+01  0.18808024618E+02  0.00000000000E+00 0.  1.
<mgrwt>
<rscale>  1 0.12632892E+03</rscale>
<asrwt>0</asrwt>
<pdfrwt beam="1">  1       21 0.13437187E-01 0.12632892E+03</pdfrwt>
<pdfrwt beam="2">  1       21 0.94389280E-02 0.12632892E+03</pdfrwt>
<totfact> 0.42402499E+06</totfact>
</mgrwt>
</event>
<event>
 6    1  0.4271609E-002  0.1591038E+03  0.7546771E-02  0.1189712E+00
         21   -1    0    0  503  502  0.00000000000E+00  0.00000000000E+00  0.16058033871E+04  0.16058033871E+04  0.00000000000E+00 0. -1.
         21   -1    0    0  504  503 -0.00000000000E+00 -0.00000000000E+00 -0.13589710009E+03  0.13589710009E+03  0.00000000000E+00 0. -1.
         25    2    1    2    0    0  0.47521862941E+02  0.86189468916E+02  0.15834578372E+04  0.15914310406E+04  0.12500833133E+03 0.  0.
          5    1    3    3  501    0  0.82094929620E+02  0.21297353210E+02  0.76993529471E+03  0.77459248819E+03  0.10000000000E+00 0. -1.
         -5    1    3    3    0  501 -0.34573066679E+02  0.64892115706E+02  0.81352254247E+03  0.81683855243E+03  0.10000000000E+00 0. -1.
         21    1    1    2  504  502 -0.47521862941E+02 -0.86189468916E+02 -0.11355155020E+03  0.15026944654E+03  0.00000000000E+00 0. -1.
<mgrwt>
<rscale>  1 0.15910385E+03</rscale>
<asrwt>0</asrwt>
<pdfrwt beam="1">  1       21 0.24704666E+00 0.15910385E+03</pdfrwt>
<pdfrwt beam="2">  1       21 0.20907247E-01 0.15910385E+03</pdfrwt>
<totfact> 0.15347285E+03</totfact>
</mgrwt>
</event>
<event>
 6    1  0.4271609E-002  0.1324087E+03  0.7546771E-02  0.1223925E+00
         21   -1    0    0  503  502  0.00000000000E+00  0.00000000000E+00  0.32759633539E+02  0.32759633539E+02  0.00000000000E+00 0.  1.
         21   -1    0    0  504  503 -0.00000000000E+00 -0.00000000000E+00 -0.25916315099E+03  0.25916315099E+03  0.00000000000E+00 0.  1.
         25    2    1    2    0    0 -0.43517003947E+02 -0.27788778406E+01 -0.12742215535E+03  0.18376196982E+03  0.12502241433E+03 0.  0.
          5    1    3    3  501    0 -0.29570818336E+02  0.78113396056E+01 -0.15118270663E+03  0.15424548975E+03  0.10000000000E+00 0.  1.
         -5    1    3    3    0  501 -0.13946185611E+02 -0.10590217446E+02  0.23760551283E+02  0.29516480073E+02  0.10000000000E+00 0.  1.
         21    1    1    2  504  502  0.43517003947E+02  0.27788778406E+01 -0.98981362107E+02  0.10816081471E+03  0.00000000000E+00 0.  1.
<mgrwt>
<rscale>  1 0.13240867E+03</rscale>
<asrwt>0</asrwt>
<pdfrwt beam="1">  1       21 0.50399436E-02 0.13240867E+03</pdfrwt>
<pdfrwt beam="2">  1       21 0.39871254E-01 0.13240867E+03</pdfrwt>
<totfact> 0.16052430E+06</totfact>
</mgrwt>
</event>
<event>
 6    1  0.4271609E-002  0.1545212E+03  0.7546771E-02  0.1195025E+00
         21   -1    0    0  504  502  0.00000000000E+00  0.00000000000E+00  0.11592547940E+04  0.11592547940E+04  0.00000000000E+00 0.  1.
         21   -1    0    0  502  503 -0.00000000000E+00 -0.00000000000E+00 -0.18689097566E+02  0.18689097566E+02  0.00000000000E+00 0.  1.
         25    2    1    2    0    0 -0.15103976626E+02 -0.89576271561E+02  0.99083609743E+03  0.10028125370E+04  0.12499909537E+03 0.  0.
          5    1    3    3  501    0  0.54782443664E+02 -0.41033918610E+02  0.38623067190E+03  0.39224869729E+03  0.10000000000E+00 0.  1.
         -5    1    3    3    0  501 -0.69886420289E+02 -0.48542352951E+02  0.60460542553E+03  0.61056383970E+03  0.10000000000E+00 0.  1.
         21    1    1    2  504  503  0.15103976626E+02  0.89576271561E+02  0.14972959900E+03  0.17513135457E+03  0.00000000000E+00 0.  1.
<mgrwt>
<rscale>  1 0.15452124E+03</rscale>
<asrwt>0</asrwt>
<pdfrwt beam="1">  1       21 0.17834684E+00 0.15452124E+03</pdfrwt>
<pdfrwt beam="2">  1       21 0.28752467E-02 0.15452124E+03</pdfrwt>
<totfact> 0.12928427E+05</totfact>
</mgrwt>
</event>
<event>
 6    1  0.4271609E-002  0.1317270E+03  0.7546771E-02  0.1224915E+00
         21   -1    0    0  503  502  0.00000000000E+00  0.00000000000E+00  0.58253808674E+03  0.58253808674E+03  0.00000000000E+00 0. -1.
         21   -1    0    0  504  503 -0.00000000000E+00 -0.00000000000E+00 -0.14204859058E+02  0.14204859058E+02  0.00000000000E+00 0. -1.
         25    2    1    2    0    0  0.29392071985E+02  0.29405227515E+02  0.49716889828E+03  0.51432375459E+03  0.12499379910E+03 0.  0.
          5    1    3    3  501    0 -0.35610020811E+02 -0.18574955973E+02  0.27506542429E+03  0.27798219406E+03  0.10000000000E+00 0. -1.
         -5    1    3    3    0  501  0.65002092797E+02  0.47980183488E+02  0.22210347399E+03  0.23634156053E+03  0.10000000000E+00 0. -1.
         21    1    1    2  504  502 -0.29392071985E+02 -0.29405227515E+02  0.71164329399E+02  0.82419191210E+02  0.00000000000E+00 0. -1.
<mgrwt>
<rscale>  1 0.13172703E+03</rscale>
<asrwt>0</asrwt>
<pdfrwt beam="1">  1       21 0.89621226E-01 0.13172703E+03</pdfrwt>
<pdfrwt beam="2">  1       21 0.21853634E-02 0.13172703E+03</pdfrwt>
<totfact> 0.11342162E+06</totfact>
</mgrwt>
</event>
<event>
 6    1  0.4271609E-002  0.1507596E+03  0.7546771E-02  0.1199543E+00
         21   -1    0    0  503  502  0.00000000000E+00  0.00000000000E+00  0.90565196212E+02  0.90565196212E+02  0.00000000000E+00 0.  1.
         21   -1    0    0  504  503 -0.00000000000E+00 -0.00000000000E+00 -0.21451889388E+03  0.21451889388E+03  0.00000000000E+00 0.  1.
         25    2    1    2    0    0 -0.62650848198E+02  0.56374568352E+02  0.52166359521E+01  0.15084986618E+03  0.12500099240E+03 0.  0.
          5    1    3    3  501    0 -0.86890989647E+02 -0.12732578834E+00  0.16216512307E+02  0.88391433777E+02  0.10000000000E+00 0.  1.
         -5    1    3    3    0  501  0.24240141449E+02  0.56501894140E+02 -0.10999876355E+02  0.62458432407E+02  0.10000000000E+00 0.  1.
         21    1    1    2  504  502  0.62650848198E+02 -0.56374568352E+02 -0.12917033362E+03  0.15423422391E+03  0.00000000000E+00 0.  1.
<mgrwt>
<rscale>  1 0.15075964E+03</rscale>
<asrwt>0</asrwt>
<pdfrwt beam="1">  1       21 0.13933107E-01 0.15075964E+03</pdfrwt>
<pdfrwt beam="2">  1       21 0.33002907E-01 0.15075964E+03</pdfrwt>
<totfact> 0.39947928E+05</totfact>
</mgrwt>
</event>
<event>
 6    1  0.4271609E-002  0.1270234E+03  0.7546771E-02  0.1231940E+00
         21   -1    0    0  504  502  0.00000000000E+00  0.00000000000E+00  0.82196657529E+02  0.82196657529E+02  0.00000000000E+00 0. -1.
         21   -1    0    0  502  503 -0.00000000000E+00 -0.00000000000E+00 -0.95407057700E+02  0.95407057700E+02  0.00000000000E+00 0. -1.
         25    2    1    2    0    0 -0.60339725528E+01  0.21757078359E+02  0.28493634396E+02  0.13018003146E+03  0.12500069642E+03 0.  0.
          5    1    3    3  501    0  0.51188627381E+02 -0.81760952918E+01 -0.12970465389E+02  0.53435634924E+02  0.10000000000E+00 0.  1.
         -5    1    3    3    0  501 -0.57222599934E+02  0.29933173651E+02  0.41464099785E+02  0.76744396532E+02  0.10000000000E+00 0.  1.
         21    1    1    2  504  503  0.60339725528E+01 -0.21757078359E+02 -0.41704034567E+02  0.47423683773E+02  0.00000000000E+00 0. -1.
<mgrwt>
<rscale>  1 0.12702344E+03</rscale>
<asrwt>0</asrwt>
<pdfrwt beam="1">  1       21 0.12645640E-01 0.12702344E+03</pdfrwt>
<pdfrwt beam="2">  1       21 0.14678009E-01 0.12702344E+03</pdfrwt>
<totfact> 0.21640593E+06</totfact>
</mgrwt>
</event>
<event>
 6    1  0.4271609E-002  0.1789926E+03  0.7546771E-02  0.1168782E+00
         21   -1    0    0  504  502  0.00000000000E+00  0.00000000000E+00  0.39700979766E+03  0.39700979766E+03  0.00000000000E+00 0. -1.
         21   -1    0    0  502  503 -0.00000000000E+00 -0.00000000000E+00 -0.61993408003E+02  0.61993408003E+02  0.00000000000E+00 0. -1.
         25    2    1    2    0    0  0.84833818234E+02 -0.96008366629E+02  0.24048033954E+03  0.29978182535E+03  0.12499586362E+03 0.  0.
          5    1    3    3  501    0  0.14607555262E+02 -0.10456012138E+03  0.16859747653E+03  0.19892541000E+03  0.10000000000E+00 0.  1.
         -5    1    3    3    0  501  0.70226262973E+02  0.85517547520E+01  0.71882863017E+02  0.10085641534E+03  0.10000000000E+00 0.  1.
         21    1    1    2  504  503 -0.84833818234E+02  0.96008366629E+02  0.94536050114E+02  0.15922138032E+03  0.00000000000E+00 0. -1.
<mgrwt>
<rscale>  1 0.17899260E+03</rscale>
<asrwt>0</asrwt>
<pdfrwt beam="1">  1       21 0.61078429E-01 0.17899260E+03</pdfrwt>
<pdfrwt beam="2">  1       21 0.95374477E-02 0.17899260E+03</pdfrwt>
<totfact> 0.22083821E+05</totfact>
</mgrwt>
</event>
<event>
 6    1  0.4271609E-002  0.1314199E+03  0.7546771E-02  0.1225364E+00
         21   -1    0    0  503  502  0.00000000000E+00  0.00000000000E+00  0.90443183056E+01  0.90443183056E+01  0.00000000000E+00 0.  1.
         21   -1    0    0  504  503 -0.00000000000E+00 -0.00000000000E+00 -0.17502747425E+04  0.17502747425E+04  0.00000000000E+00 0.  1.
         25    2    1    2    0    0  0.52822484022E+01  0.40246512929E+02 -0.48666790915E+03  0.50410004083E+03  0.12499405353E+03 0.  0.
          5    1    3    3  501    0  0.25625422203E+02 -0.76619222215E+01 -0.41319227730E+03  0.41405704357E+03  0.10000000000E+00 0.  1.
         -5    1    3    3    0  501 -0.20343173800E+02  0.47908435150E+02 -0.73475631851E+02  0.90042997255E+02  0.10000000000E+00 0.  1.
         21    1    1    2  504  502 -0.52822484022E+01 -0.40246512929E+02 -0.12545625151E+04  0.12552190200E+04  0.00000000000E+00 0.  1.
<mgrwt>
<rscale>  1 0.13141993E+03</rscale>
<asrwt>0</asrwt>
<pdfrwt beam="1">  1       21 0.13914335E-02 0.13141993E+03</pdfrwt>
<pdfrwt beam="2">  1       21 0.26927305E+00 0.13141993E+03</pdfrwt>
<totfact> 0.11931730E+05</totfact>
</mgrwt>
</event>
<event>
 6    1  0.4271609E-002  0.1278572E+03  0.7546771E-02  0.1230670E+00
         21   -1    0    0  503  502  0.00000000000E+00  0.00000000000E+00  0.92358192690E+03  0.92358192690E+03  0.00000000000E+00 0. -1.
         21   -1    0    0  504  503 -0.00000000000E+00 -0.00000000000E+00 -0.67971486758E+01  0.67971486758E+01  0.00000000000E+00 0. -1.
         25    2    1    2    0    0 -0.12733741044E+02 -0.23653334012E+02  0.82109853769E+03  0.83099353840E+03  0.12500329558E+03 0.  0.
          5    1    3    3  501    0 -0.19757870378E+02  0.21104138035E+02  0.71553339302E+03  0.71611717240E+03  0.10000000000E+00 0. -1.
         -5    1    3    3    0  501  0.70241293344E+01 -0.44757472047E+02  0.10556514467E+03  0.11487636600E+03  0.10000000000E+00 0. -1.
         21    1    1    2  504  502  0.12733741044E+02  0.23653334012E+02  0.95686240542E+02  0.99385537177E+02  0.00000000000E+00 0. -1.
<mgrwt>
<rscale>  1 0.12785716E+03</rscale>
<asrwt>0</asrwt>
<pdfrwt beam="1">  1       21 0.14208943E+00 0.12785716E+03</pdfrwt>
<pdfrwt beam="2">  1       21 0.10457159E-02 0.12785716E+03</pdfrwt>
<totfact> 0.12137146E+06</totfact>
</mgrwt>
</event>
<event>
 6    1  0.4271609E-002  0.1380724E+03  0.7546771E-02  0.1215946E+00
         21   -1    0    0  504  502  0.00000000000E+00  0.00000000000E+00  0.14322709513E+04  0.14322709513E+04  0.00000000000E+00 0. -1.
         21   -1    0    0  502  503 -0.00000000000E+00 -0.00000000000E+00 -0.21370180675E+02  0.21370180675E+02  0.00000000000E+00 0. -1.
         25    2    1    2    0    0  0.58226986196E+02 -0.69948297739E+01  0.13808662053E+04  0.13877519471E+04  0.12499872057E+03 0.  0.
          5    1    3    3  501    0  0.63057018651E+02 -0.56490610709E+01  0.13812705484E+04  0.13827206650E+04  0.10000000000E+00 0. -1.
         -5    1    3    3    0  501 -0.48300324544E+01 -0.13457687030E+01 -0.40434304241E+00  0.50312821635E+01  0.10000000000E+00 0. -1.
         21    1    1    2  504  503 -0.58226986196E+02  0.69948297739E+01  0.30034565245E+02  0.65889184807E+02  0.00000000000E+00 0. -1.
<mgrwt>
<rscale>  1 0.13807241E+03</rscale>
<asrwt>0</asrwt>
<pdfrwt beam="1">  1       21 0.22034930E+00 0.13807241E+03</pdfrwt>
<pdfrwt beam="2">  1       21 0.32877212E-02 0.13807241E+03</pdfrwt>
<totfact> 0.56662888E+04</totfact>
</mgrwt>
</event>
<event>
 6    1  0.4271609E-002  0.1319746E+03  0.7546771E-02  0.1224555E+00
         21   -1    0    0  503  502  0.00000000000E+00  0.00000000000E+00  0.14862226634E+03  0.14862226634E+03  0.00000000000E+00 0. -1.
         21   -1    0    0  504  503 -0.00000000000E+00 -0.00000000000E+00 -0.10817673045E+03  0.10817673045E+03  0.00000000000E+00 0.  1.
         25    2    1    2    0    0 -0.40579691073E+02  0.12047258395E+02  0.11237636855E+03  0.17333707464E+03  0.12500178188E+03 0.  0.
          5    1    3    3  501    0 -0.27251587796E+02 -0.41960295552E+02  0.10616419225E+03  0.11736337229E+03  0.10000000000E+00 0.  1.
         -5    1    3    3    0  501 -0.13328103277E+02  0.54007553947E+02  0.62121763051E+01  0.55973702350E+02  0.10000000000E+00 0.  1.
         21    1    1    2  504  502  0.40579691073E+02 -0.12047258395E+02 -0.71930832660E+02  0.83461922153E+02  0.00000000000E+00 0.  1.
<mgrwt>
<rscale>  1 0.13197459E+03</rscale>
<asrwt>0</asrwt>
<pdfrwt beam="1">  1       21 0.22864964E-01 0.13197459E+03</pdfrwt>
<pdfrwt beam="2">  1       21 0.16642574E-01 0.13197459E+03</pdfrwt>
<totfact> 0.58586738E+05</totfact>
</mgrwt>
</event>
<event>
 6    1  0.4271609E-002  0.1273942E+03  0.7546771E-02  0.1231374E+00
         21   -1    0    0  503  502  0.00000000000E+00  0.00000000000E+00  0.22226741591E+03  0.22226741591E+03  0.00000000000E+00 0. -1.
         21   -1    0    0  504  503 -0.00000000000E+00 -0.00000000000E+00 -0.28142914544E+02  0.28142914544E+02  0.00000000000E+00 0. -1.
         25    2    1    2    0    0 -0.19864183627E+02  0.14519569638E+02  0.18401437120E+03  0.22380923225E+03  0.12499551968E+03 0.  0.
          5    1    3    3  501    0  0.43829879154E+02  0.39355575243E+02  0.90087349126E+02  0.10763670416E+03  0.10000000000E+00 0.  1.
         -5    1    3    3    0  501 -0.63694062781E+02 -0.24836005605E+02  0.93927022073E+02  0.11617252809E+03  0.10000000000E+00 0.  1.
         21    1    1    2  504  502  0.19864183627E+02 -0.14519569638E+02  0.10110130167E+02  0.26601098203E+02  0.00000000000E+00 0. -1.
<mgrwt>
<rscale>  1 0.12739421E+03</rscale>
<asrwt>0</asrwt>
<pdfrwt beam="1">  1       21 0.34194986E-01 0.12739421E+03</pdfrwt>
<pdfrwt beam="2">  1       21 0.43296793E-02 0.12739421E+03</pdfrwt>
<totfact> 0.28019823E+06</totfact>
</mgrwt>
</event>
<event>
 6    1  0.4271609E-002  0.1457587E+03  0.7546771E-02  0.1205784E+00
         21   -1    0    0  503  502  0.00000000000E+00  0.00000000000E+00  0.44232737139E+02  0.44232737139E+02  0.00000000000E+00 0. -1.
         21   -1    0    0  504  503 -0.00000000000E+00 -0.00000000000E+00 -0.32100040248E+03  0.32100040248E+03  0.00000000000E+00 0. -1.
         25    2    1    2    0    0  0.45680572292E+02 -0.59451670732E+02 -0.11071619632E+03  0.18304009310E+03  0.12499753484E+03 0.  0.
          5    1    3    3  501    0  0.89136544400E+02 -0.45735964692E+02 -0.76737835731E+02  0.12619749382E+03  0.10000000000E+00 0.  1.
         -5    1    3    3    0  501 -0.43455972108E+02 -0.13715706040E+02 -0.33978360593E+02  0.56842599278E+02  0.10000000000E+00 0.  1.
         21    1    1    2  504  502 -0.45680572292E+02  0.59451670732E+02 -0.16605146902E+03  0.18219304652E+03  0.00000000000E+00 0. -1.
<mgrwt>
<rscale>  1 0.14575870E+03</rscale>
<asrwt>0</asrwt>
<pdfrwt beam="1">  1       21 0.68050365E-02 0.14575870E+03</pdfrwt>
<pdfrwt beam="2">  1       21 0.49384677E-01 0.14575870E+03</pdfrwt>
<totfact> 0.62452217E+05</totfact>
</mgrwt>
</event>
<event>
 6    1  0.4271609E-002  0.1282896E+03  0.7546771E-02  0.1230016E+00
         21   -1    0    0  503  502  0.00000000000E+00  0.00000000000E+00  0.66466319363E+02  0.66466319363E+02  0.00000000000E+00 0.  1.
         21   -1    0    0  504  503 -0.00000000000E+00 -0.00000000000E+00 -0.95296254271E+02  0.95296254271E+02  0.00000000000E+00 0.  1.
         25    2    1    2    0    0 -0.97123543786E+01 -0.27200423064E+02 -0.13320196897E+02  0.12897927277E+03  0.12499612920E+03 0.  0.
          5    1    3    3  501    0 -0.36970918092E+02 -0.38658704120E+02  0.40821993352E+02  0.67288849968E+02  0.10000000000E+00 0.  1.
         -5    1    3    3    0  501  0.27258563713E+02  0.11458281056E+02 -0.54142190249E+02  0.61690422801E+02  0.10000000000E+00 0.  1.
         21    1    1    2  504  502  0.97123543786E+01  0.27200423064E+02 -0.15509738012E+02  0.32783300865E+02  0.00000000000E+00 0.  1.
<mgrwt>
<rscale>  1 0.12828961E+03</rscale>
<asrwt>0</asrwt>
<pdfrwt beam="1">  1       21 0.10225588E-01 0.12828961E+03</pdfrwt>
<pdfrwt beam="2">  1       21 0.14660962E-01 0.12828961E+03</pdfrwt>
<totfact> 0.31557350E+06</totfact>
</mgrwt>
</event>
<event>
 6    1  0.4271609E-002  0.1280166E+03  0.7546771E-02  0.1230429E+00
         21   -1    0    0  503  502  0.00000000000E+00  0.00000000000E+00  0.90573891770E+01  0.90573891770E+01  0.00000000000E+00 0.  1.
         21   -1    0    0  504  503 -0.00000000000E+00 -0.00000000000E+00 -0.92158629432E+03  0.92158629432E+03  0.00000000000E+00 0.  1.
         25    2    1    2    0    0  0.27006925330E+02  0.58049227001E+01 -0.46608936319E+03  0.48335033930E+03  0.12500073952E+03 0.  0.
          5    1    3    3  501    0 -0.18086338701E+02  0.43871853878E+02 -0.81894970612E+02  0.94650152783E+02  0.10000000000E+00 0. -1.
         -5    1    3    3    0  501  0.45093264031E+02 -0.38066931178E+02 -0.38419439257E+03  0.38870018651E+03  0.10000000000E+00 0. -1.
         21    1    1    2  504  502 -0.27006925330E+02 -0.58049227001E+01 -0.44643954196E+03  0.44729334420E+03  0.00000000000E+00 0.  1.
<mgrwt>
<rscale>  1 0.12801662E+03</rscale>
<asrwt>0</asrwt>
<pdfrwt beam="1">  1       21 0.13934451E-02 0.12801662E+03</pdfrwt>
<pdfrwt beam="2">  1       21 0.14178245E+00 0.12801662E+03</pdfrwt>
<totfact> 0.77427549E+05</totfact>
</mgrwt>
</event>
<event>
 6    1  0.4271609E-002  0.1264756E+03  0.7546771E-02  0.1232781E+00
         21   -1    0    0  504  502  0.00000000000E+00  0.00000000000E+00  0.29031501894E+02  0.29031501894E+02  0.00000000000E+00 0.  1.
         21   -1    0    0  502  503 -0.00000000000E+00 -0.00000000000E+00 -0.18517641326E+03  0.18517641326E+03  0.00000000000E+00 0.  1.
         25    2    1    2    0    0  0.98234602503E+01  0.16637723307E+02 -0.14263001085E+03  0.19062896810E+03  0.12499107678E+03 0.  0.
          5    1    3    3  501    0  0.79715277897E+01 -0.17424780232E+02  0.18075951467E+02  0.26342327970E+02  0.10000000000E+00 0. -1.
         -5    1    3    3    0  501  0.18519324606E+01  0.34062503539E+02 -0.16070596231E+03  0.16428664013E+03  0.10000000000E+00 0. -1.
         21    1    1    2  504  503 -0.98234602503E+01 -0.16637723307E+02 -0.13514900516E+02  0.23578947052E+02  0.00000000000E+00 0. -1.
<mgrwt>
<rscale>  1 0.12647562E+03</rscale>
<asrwt>0</asrwt>
<pdfrwt beam="1">  1       21 0.44663847E-02 0.12647562E+03</pdfrwt>
<pdfrwt beam="2">  1       21 0.28488681E-01 0.12647562E+03</pdfrwt>
<totfact> 0.37879762E+06</totfact>
</mgrwt>
</event>
<event>
 6    1  0.4271609E-002  0.1271413E+03  0.7546771E-02  0.1231760E+00
         21   -1    0    0  504  502  0.00000000000E+00  0.00000000000E+00  0.52610151512E+02  0.52610151512E+02  0.00000000000E+00 0.  1.
         21   -1    0    0  502  503 -0.00000000000E+00 -0.00000000000E+00 -0.16517147471E+03  0.16517147471E+03  0.00000000000E+00 0.  1.
         25    2    1    2    0    0  0.49361306318E+01  0.22716753849E+02 -0.28140117196E+02  0.13021818457E+03  0.12499797241E+03 0.  0.
          5    1    3    3  501    0  0.25762272495E+02  0.12963802319E+02 -0.73722637536E+02  0.79163073083E+02  0.10000000000E+00 0.  1.
         -5    1    3    3    0  501 -0.20826141863E+02  0.97529515305E+01  0.45582520340E+02  0.51055111487E+02  0.10000000000E+00 0.  1.
         21    1    1    2  504  503 -0.49361306318E+01 -0.22716753849E+02 -0.84421206005E+02  0.87563441655E+02  0.00000000000E+00 0.  1.
<mgrwt>
<rscale>  1 0.12714130E+03</rscale>
<asrwt>0</asrwt>
<pdfrwt beam="1">  1       21 0.80938694E-02 0.12714130E+03</pdfrwt>
<pdfrwt beam="2">  1       21 0.25410996E-01 0.12714130E+03</pdfrwt>
<totfact> 0.17185397E+06</totfact>
</mgrwt>
</event>
<event>
 6    1  0.4271609E-002  0.1646284E+03  0.7546771E-02  0.1183568E+00
         21   -1    0    0  504  502  0.00000000000E+00  0.00000000000E+00  0.41160907325E+02  0.41160907325E+02  0.00000000000E+00 0.  1.
         21   -1    0    0  502  503 -0.00000000000E+00 -0.00000000000E+00 -0.45533900810E+03  0.45533900810E+03  0.00000000000E+00 0.  1.
         25    2    1    2    0    0 -0.63815085499E+02 -0.86044911336E+02 -0.22061556298E+03  0.27527028825E+03  0.12500565211E+03 0.  0.
          5    1    3    3  501    0  0.15310782827E+02 -0.78929190355E+02 -0.77995660776E+02  0.11201593753E+03  0.10000000000E+00 0. -1.
         -5    1    3    3    0  501 -0.79125868326E+02 -0.71157209814E+01 -0.14261990220E+03  0.16325435071E+03  0.10000000000E+00 0. -1.
         21    1    1    2  504  503  0.63815085499E+02  0.86044911336E+02 -0.19356253780E+03  0.22122962718E+03  0.00000000000E+00 0.  1.
<mgrwt>
<rscale>  1 0.16462838E+03</rscale>
<asrwt>0</asrwt>
<pdfrwt beam="1">  1       21 0.63324467E-02 0.16462838E+03</pdfrwt>
<pdfrwt beam="2">  1       21 0.70052161E-01 0.16462838E+03</pdfrwt>
<totfact> 0.33479888E+05</totfact>
</mgrwt>
</event>
<event>
 6    1  0.4271609E-002  0.1273519E+03  0.7546771E-02  0.1231439E+00
         21   -1    0    0  504  502  0.00000000000E+00  0.00000000000E+00  0.24786694997E+03  0.24786694997E+03  0.00000000000E+00 0. -1.
         21   -1    0    0  502  503 -0.00000000000E+00 -0.00000000000E+00 -0.43634497775E+03  0.43634497775E+03  0.00000000000E+00 0. -1.
         25    2    1    2    0    0  0.11468893691E+02 -0.21460049607E+02  0.23113313656E+03  0.26389585796E+03  0.12500571098E+03 0.  0.
          5    1    3    3  501    0  0.45289327340E+02 -0.53350720223E+02  0.18752659801E+03  0.20015908043E+03  0.10000000000E+00 0.  1.
         -5    1    3    3    0  501 -0.33820433649E+02  0.31890670616E+02  0.43606538555E+02  0.63736777525E+02  0.10000000000E+00 0.  1.
         21    1    1    2  504  503 -0.11468893691E+02  0.21460049607E+02 -0.41961116435E+03  0.42031606976E+03  0.00000000000E+00 0. -1.
<mgrwt>
<rscale>  1 0.12735186E+03</rscale>
<asrwt>0</asrwt>
<pdfrwt beam="1">  1       21 0.38133377E-01 0.12735186E+03</pdfrwt>
<pdfrwt beam="2">  1       21 0.67129996E-01 0.12735186E+03</pdfrwt>
<totfact> 0.14116558E+04</totfact>
</mgrwt>
</event>
<event>
 6    1  0.4271609E-002  0.1540348E+03  0.7546771E-02  0.1195601E+00
         21   -1    0    0  504  502  0.00000000000E+00  0.00000000000E+00  0.37352180763E+02  0.37352180763E+02  0.00000000000E+00 0.  1.
         21   -1    0    0  502  503 -0.00000000000E+00 -0.00000000000E+00 -0.55963386180E+03  0.55963386180E+03  0.00000000000E+00 0. -1.
         25    2    1    2    0    0 -0.74742898388E+02  0.50155066686E+02 -0.15380876085E+03  0.21767835152E+03  0.12499879292E+03 0.  0.
          5    1    3    3  501    0 -0.19013174207E+01  0.76327319137E+02 -0.82974598386E+02  0.11275756574E+03  0.10000000000E+00 0.  1.
         -5    1    3    3    0  501 -0.72841580967E+02 -0.26172252451E+02 -0.70834162462E+02  0.10492078578E+03  0.10000000000E+00 0.  1.
         21    1    1    2  504  503  0.74742898388E+02 -0.50155066686E+02 -0.36847292019E+03  0.37930769105E+03  0.00000000000E+00 0. -1.
<mgrwt>
<rscale>  1 0.15403483E+03</rscale>
<asrwt>0</asrwt>
<pdfrwt beam="1">  1       21 0.57464896E-02 0.15403483E+03</pdfrwt>
<pdfrwt beam="2">  1       21 0.86097514E-01 0.15403483E+03</pdfrwt>
<totfact> 0.24974390E+05</totfact>
</mgrwt>
</event>
<event>
 6    1  0.4271609E-002  0.1593793E+03  0.7546771E-02  0.1189399E+00
         21   -1    0    0  503  502  0.00000000000E+00  0.00000000000E+00  0.60866503505E+03  0.60866503505E+03  0.00000000000E+00 0.  1.
         21   -1    0    0  504  503 -0.00000000000E+00 -0.00000000000E+00 -0.37774788565E+02  0.37774788565E+02  0.00000000000E+00 0.  1.
         25    2    1    2    0    0  0.98352913733E+02  0.10158124414E+02  0.16791178607E+03  0.23150835615E+03  0.12500107174E+03 0.  0.
          5    1    3    3  501    0  0.18818992180E+02 -0.47520459914E+02  0.99277939599E+02  0.11166229385E+03  0.10000000000E+00 0.  1.
         -5    1    3    3    0  501  0.79533921552E+02  0.57678584329E+02  0.68633846468E+02  0.11984606230E+03  0.10000000000E+00 0.  1.
         21    1    1    2  504  502 -0.98352913733E+02 -0.10158124414E+02  0.40297846042E+03  0.41493146746E+03  0.00000000000E+00 0.  1.
<mgrwt>
<rscale>  1 0.15937927E+03</rscale>
<asrwt>0</asrwt>
<pdfrwt beam="1">  1       21 0.93640767E-01 0.15937927E+03</pdfrwt>
<pdfrwt beam="2">  1       21 0.58115064E-02 0.15937927E+03</pdfrwt>
<totfact> 0.20171378E+05</totfact>
</mgrwt>
</event>
<event>
 6    1  0.4271609E-002  0.1851150E+03  0.7546771E-02  0.1162943E+00
         21   -1    0    0  503  502  0.00000000000E+00  0.00000000000E+00  0.16416433793E+04  0.16416433793E+04  0.00000000000E+00 0. -1.
         21   -1    0    0  504  503 -0.00000000000E+00 -0.00000000000E+00 -0.15836037021E+02  0.15836037021E+02  0.00000000000E+00 0. -1.
         25    2    1    2    0    0  0.10499360469E+03 -0.87287114079E+02  0.99340865728E+03  0.10105089424E+04  0.12499946017E+03 0.  0.
          5    1    3    3  501    0  0.18536364254E+02 -0.20000350072E+02  0.28662019813E+02  0.39561751510E+02  0.10000000000E+00 0. -1.
         -5    1    3    3    0  501  0.86457240434E+02 -0.67286764007E+02  0.96474663747E+03  0.97094719091E+03  0.10000000000E+00 0. -1.
         21    1    1    2  504  502 -0.10499360469E+03  0.87287114079E+02  0.63239868497E+03  0.64697047387E+03  0.00000000000E+00 0. -1.
<mgrwt>
<rscale>  1 0.18511500E+03</rscale>
<asrwt>0</asrwt>
<pdfrwt beam="1">  1       21 0.25256039E+00 0.18511500E+03</pdfrwt>
<pdfrwt beam="2">  1       21 0.24363147E-02 0.18511500E+03</pdfrwt>
<totfact> 0.57597370E+04</totfact>
</mgrwt>
</event>
<event>
 6    1  0.4271609E-002  0.1270953E+03  0.7546771E-02  0.1231831E+00
         21   -1    0    0  503  502  0.00000000000E+00  0.00000000000E+00  0.31664171181E+02  0.31664171181E+02  0.00000000000E+00 0.  1.
         21   -1    0    0  504  503 -0.00000000000E+00 -0.00000000000E+00 -0.22605854555E+03  0.22605854555E+03  0.00000000000E+00 0.  1.
         25    2    1    2    0    0  0.21712054631E+02  0.78571085067E+01 -0.10339782622E+03  0.16384237137E+03  0.12498025732E+03 0.  0.
          5    1    3    3  501    0  0.43582003863E+02  0.44999476352E+02 -0.10321614724E+03  0.12073908640E+03  0.10000000000E+00 0. -1.
         -5    1    3    3    0  501 -0.21869949231E+02 -0.37142367845E+02 -0.18167898403E+00  0.43103284977E+02  0.10000000000E+00 0. -1.
         21    1    1    2  504  502 -0.21712054631E+02 -0.78571085067E+01 -0.90996548143E+02  0.93880345357E+02  0.00000000000E+00 0.  1.
<mgrwt>
<rscale>  1 0.12709529E+03</rscale>
<asrwt>0</asrwt>
<pdfrwt beam="1">  1       21 0.48714112E-02 0.12709529E+03</pdfrwt>
<pdfrwt beam="2">  1       21 0.34778236E-01 0.12709529E+03</pdfrwt>
<totfact> 0.22255181E+06</totfact>
</mgrwt>
</event>
<event>
 6    1  0.4271609E-002  0.1326914E+03  0.7546771E-02  0.1223516E+00
         21   -1    0    0  503  502  0.00000000000E+00  0.00000000000E+00  0.66691018378E+03  0.66691018378E+03  0.00000000000E+00 0. -1.
         21   -1    0    0  504  503 -0.00000000000E+00 -0.00000000000E+00 -0.13996336918E+02  0.13996336918E+02  0.00000000000E+00 0. -1.
         25    2    1    2    0    0  0.25024292386E+02  0.36835137536E+02  0.58379209824E+03  0.59868207969E+03  0.12499590396E+03 0.  0.
          5    1    3    3  501    0 -0.30671250657E+02  0.63587629731E+02  0.33149257204E+03  0.33892690597E+03  0.10000000000E+00 0. -1.
         -5    1    3    3    0  501  0.55695543043E+02 -0.26752492195E+02  0.25229952620E+03  0.25975517372E+03  0.10000000000E+00 0. -1.
         21    1    1    2  504  502 -0.25024292386E+02 -0.36835137536E+02  0.69121748620E+02  0.82224441007E+02  0.00000000000E+00 0. -1.
<mgrwt>
<rscale>  1 0.13269144E+03</rscale>
<asrwt>0</asrwt>
<pdfrwt beam="1">  1       21 0.10260154E+00 0.13269144E+03</pdfrwt>
<pdfrwt beam="2">  1       21 0.21532831E-02 0.13269144E+03</pdfrwt>
<totfact> 0.84869161E+05</totfact>
</mgrwt>
</event>
<event>
 6    1  0.4271609E-002  0.1279521E+03  0.7546771E-02  0.1230526E+00
         21   -1    0    0  503  502  0.00000000000E+00  0.00000000000E+00  0.31526363055E+03  0.31526363055E+03  0.00000000000E+00 0.  1.
         21   -1    0    0  504  503 -0.00000000000E+00 -0.00000000000E+00 -0.76227229277E+02  0.76227229277E+02  0.00000000000E+00 0.  1.
         25    2    1    2    0    0  0.18453456010E+02  0.20146909991E+02  0.29920185609E+03  0.32541280013E+03  0.12500124709E+03 0.  0.
          5    1    3    3  501    0 -0.50261662472E+02 -0.11312055898E+02  0.10317837459E+03  0.11532555791E+03  0.10000000000E+00 0. -1.
         -5    1    3    3    0  501  0.68715118481E+02  0.31458965889E+02  0.19602348150E+03  0.21008724222E+03  0.10000000000E+00 0. -1.
         21    1    1    2  504  502 -0.18453456010E+02 -0.20146909991E+02 -0.60165454818E+02  0.66078059704E+02  0.00000000000E+00 0.  1.
<mgrwt>
<rscale>  1 0.12795210E+03</rscale>
<asrwt>0</asrwt>
<pdfrwt beam="1">  1       21 0.48502096E-01 0.12795210E+03</pdfrwt>
<pdfrwt beam="2">  1       21 0.11727266E-01 0.12795210E+03</pdfrwt>
<totfact> 0.25212372E+05</totfact>
</mgrwt>
</event>
<event>
 6    1  0.4271609E-002  0.2095783E+03  0.7546771E-02  0.1141900E+00
         21   -1    0    0  503  502  0.00000000000E+00  0.00000000000E+00  0.47638717904E+02  0.47638717904E+02  0.00000000000E+00 0.  1.
         21   -1    0    0  504  503 -0.00000000000E+00 -0.00000000000E+00 -0.81102077550E+03  0.81102077550E+03  0.00000000000E+00 0.  1.
         25    2    1    2    0    0  0.16703964946E+03 -0.19897910916E+02 -0.53831580276E+03  0.57767374570E+03  0.12499952644E+03 0.  0.
          5    1    3    3  501    0  0.18682873758E+03 -0.18430109083E+02 -0.45890152264E+03  0.49581777256E+03  0.10000000000E+00 0.  1.
         -5    1    3    3    0  501 -0.19789088113E+02 -0.14678018332E+01 -0.79414280123E+02  0.81855973136E+02  0.10000000000E+00 0.  1.
         21    1    1    2  504  502 -0.16703964946E+03  0.19897910916E+02 -0.22506625484E+03  0.28098574771E+03  0.00000000000E+00 0.  1.
<mgrwt>
<rscale>  1 0.20957827E+03</rscale>
<asrwt>0</asrwt>
<pdfrwt beam="1">  1       21 0.73290339E-02 0.20957827E+03</pdfrwt>
<pdfrwt beam="2">  1       21 0.12477242E+00 0.20957827E+03</pdfrwt>
<totfact> 0.66388142E+04</totfact>
</mgrwt>
</event>
<event>
 6    1  0.4271609E-002  0.1265693E+03  0.7546771E-02  0.1232637E+00
         21   -1    0    0  504  502  0.00000000000E+00  0.00000000000E+00  0.63186984869E+03  0.63186984869E+03  0.00000000000E+00 0. -1.
         21   -1    0    0  502  503 -0.00000000000E+00 -0.00000000000E+00 -0.93022240904E+01  0.93022240904E+01  0.00000000000E+00 0. -1.
         25    2    1    2    0    0  0.15475423528E+02  0.12215300983E+02  0.58714690567E+03  0.60063407035E+03  0.12502437890E+03 0.  0.
          5    1    3    3  501    0 -0.49737258680E+02 -0.13197904138E+02  0.33598198073E+03  0.33989981017E+03  0.10000000000E+00 0.  1.
         -5    1    3    3    0  501  0.65212682208E+02  0.25413205121E+02  0.25116492493E+03  0.26073426018E+03  0.10000000000E+00 0.  1.
         21    1    1    2  504  503 -0.15475423528E+02 -0.12215300983E+02  0.35420718936E+02  0.40538002435E+02  0.00000000000E+00 0. -1.
<mgrwt>
<rscale>  1 0.12656934E+03</rscale>
<asrwt>0</asrwt>
<pdfrwt beam="1">  1       21 0.97210712E-01 0.12656934E+03</pdfrwt>
<pdfrwt beam="2">  1       21 0.14311119E-02 0.12656934E+03</pdfrwt>
<totfact> 0.18559751E+06</totfact>
</mgrwt>
</event>
<event>
 6    1  0.4271609E-002  0.1273141E+03  0.7546771E-02  0.1231496E+00
         21   -1    0    0  503  502  0.00000000000E+00  0.00000000000E+00  0.33761260947E+03  0.33761260947E+03  0.00000000000E+00 0.  1.
         21   -1    0    0  504  503 -0.00000000000E+00 -0.00000000000E+00 -0.28682096194E+02  0.28682096194E+02  0.00000000000E+00 0.  1.
         25    2    1    2    0    0  0.23607425648E+02  0.51940518668E+01  0.31635160672E+03  0.34100910999E+03  0.12499834122E+03 0.  0.
          5    1    3    3  501    0 -0.36998134200E+02 -0.37879525009E+02  0.13377200167E+03  0.14387035406E+03  0.10000000000E+00 0.  1.
         -5    1    3    3    0  501  0.60605559848E+02  0.43073576876E+02  0.18257960505E+03  0.19713875593E+03  0.10000000000E+00 0.  1.
         21    1    1    2  504  502 -0.23607425648E+02 -0.51940518668E+01 -0.74210934401E+01  0.25285595670E+02  0.00000000000E+00 0.  1.
<mgrwt>
<rscale>  1 0.12731408E+03</rscale>
<asrwt>0</asrwt>
<pdfrwt beam="1">  1       21 0.51940399E-01 0.12731408E+03</pdfrwt>
<pdfrwt beam="2">  1       21 0.44126304E-02 0.12731408E+03</pdfrwt>
<totfact> 0.11698806E+06</totfact>
</mgrwt>
</event>
<event>
 6    1  0.4271609E-002  0.1261886E+03  0.7546771E-02  0.1233223E+00
         21   -1    0    0  504  502  0.00000000000E+00  0.00000000000E+00  0.89321440150E+01  0.89321440150E+01  0.00000000000E+00 0.  1.
         21   -1    0    0  502  503 -0.00000000000E+00 -0.00000000000E+00 -0.85125484576E+03  0.85125484576E+03  0.00000000000E+00 0.  1.
         25    2    1    2    0    0 -0.36083365720E+01 -0.16889677851E+02 -0.44653651602E+03  0.46402416199E+03  0.12500112582E+03 0.  0.
          5    1    3    3  501    0 -0.12903969086E+01 -0.64576538975E+02 -0.35455458855E+03  0.36038973455E+03  0.10000000000E+00 0.  1.
         -5    1    3    3    0  501 -0.23179396634E+01  0.47686861124E+02 -0.91981927474E+02  0.10363442744E+03  0.10000000000E+00 0.  1.
         21    1    1    2  504  503  0.36083365720E+01  0.16889677851E+02 -0.39578618572E+03  0.39616282779E+03  0.00000000000E+00 0.  1.
<mgrwt>
<rscale>  1 0.12618860E+03</rscale>
<asrwt>0</asrwt>
<pdfrwt beam="1">  1       21 0.13741760E-02 0.12618860E+03</pdfrwt>
<pdfrwt beam="2">  1       21 0.13096228E+00 0.12618860E+03</pdfrwt>
<totfact> 0.96701345E+05</totfact>
</mgrwt>
</event>
<event>
 6    1  0.4271609E-002  0.1408237E+03  0.7546771E-02  0.1212225E+00
         21   -1    0    0  504  502  0.00000000000E+00  0.00000000000E+00  0.56614178337E+01  0.56614178337E+01  0.00000000000E+00 0.  1.
         21   -1    0    0  502  503 -0.00000000000E+00 -0.00000000000E+00 -0.24639645912E+04  0.24639645912E+04  0.00000000000E+00 0.  1.
         25    2    1    2    0    0 -0.20474883870E+02 -0.61542848357E+02 -0.99838314564E+03  0.10082659472E+04  0.12499828668E+03 0.  0.
          5    1    3    3  501    0 -0.23989564296E+02 -0.99529096615E+02 -0.75545377135E+03  0.76235946306E+03  0.10000000000E+00 0. -1.
         -5    1    3    3    0  501  0.35146804257E+01  0.37986248258E+02 -0.24292937428E+03  0.24590648411E+03  0.10000000000E+00 0. -1.
         21    1    1    2  504  503  0.20474883870E+02  0.61542848357E+02 -0.14599200278E+04  0.14613600619E+04  0.00000000000E+00 0.  1.
<mgrwt>
<rscale>  1 0.14082370E+03</rscale>
<asrwt>0</asrwt>
<pdfrwt beam="1">  1       21 0.87098798E-03 0.14082370E+03</pdfrwt>
<pdfrwt beam="2">  1       21 0.37907120E+00 0.14082370E+03</pdfrwt>
<totfact> 0.58235520E+04</totfact>
</mgrwt>
</event>
<event>
 6    1  0.4271609E-002  0.1262156E+03  0.7546771E-02  0.1233182E+00
         21   -1    0    0  503  502  0.00000000000E+00  0.00000000000E+00  0.63117015812E+03  0.63117015812E+03  0.00000000000E+00 0. -1.
         21   -1    0    0  504  503 -0.00000000000E+00 -0.00000000000E+00 -0.15769218908E+02  0.15769218908E+02  0.00000000000E+00 0. -1.
         25    2    1    2    0    0  0.17341688310E+02  0.21949518896E+01  0.61663135767E+03  0.62941608119E+03  0.12499928014E+03 0.  0.
          5    1    3    3  501    0 -0.50966993640E+02 -0.13162090194E+02  0.34060951206E+03  0.34465304984E+03  0.10000000000E+00 0.  1.
         -5    1    3    3    0  501  0.68308681950E+02  0.15357042084E+02  0.27602184561E+03  0.28476303135E+03  0.10000000000E+00 0.  1.
         21    1    1    2  504  502 -0.17341688310E+02 -0.21949518896E+01 -0.12304184590E+01  0.17523295833E+02  0.00000000000E+00 0. -1.
<mgrwt>
<rscale>  1 0.12621558E+03</rscale>
<asrwt>0</asrwt>
<pdfrwt beam="1">  1       21 0.97103082E-01 0.12621558E+03</pdfrwt>
<pdfrwt beam="2">  1       21 0.24260342E-02 0.12621558E+03</pdfrwt>
<totfact> 0.79599048E+05</totfact>
</mgrwt>
</event>
<event>
 6    1  0.4271609E-002  0.1265080E+03  0.7546771E-02  0.1232731E+00
         21   -1    0    0  503  502  0.00000000000E+00  0.00000000000E+00  0.36991878881E+02  0.36991878881E+02  0.00000000000E+00 0. -1.
         21   -1    0    0  504  503 -0.00000000000E+00 -0.00000000000E+00 -0.18852107563E+03  0.18852107563E+03  0.00000000000E+00 0. -1.
         25    2    1    2    0    0 -0.19245251542E+02 -0.27216907071E+01 -0.76129080555E+02  0.14764791210E+03  0.12500592680E+03 0.  0.
          5    1    3    3  501    0 -0.14672699759E+02  0.55834999265E+02 -0.66610662255E+02  0.88146614157E+02  0.10000000000E+00 0. -1.
         -5    1    3    3    0  501 -0.45725517825E+01 -0.58556689973E+02 -0.95184183002E+01  0.59501297946E+02  0.10000000000E+00 0. -1.
         21    1    1    2  504  502  0.19245251542E+02  0.27216907071E+01 -0.75400116193E+02  0.77865042407E+02  0.00000000000E+00 0. -1.
<mgrwt>
<rscale>  1 0.12650798E+03</rscale>
<asrwt>0</asrwt>
<pdfrwt beam="1">  1       21 0.56910582E-02 0.12650798E+03</pdfrwt>
<pdfrwt beam="2">  1       21 0.29003243E-01 0.12650798E+03</pdfrwt>
<totfact> 0.24364017E+06</totfact>
</mgrwt>
</event>
<event>
 6    1  0.4271609E-002  0.1544306E+03  0.7546771E-02  0.1195132E+00
         21   -1    0    0  503  502  0.00000000000E+00  0.00000000000E+00  0.94890076871E+02  0.94890076871E+02  0.00000000000E+00 0. -1.
         21   -1    0    0  504  503 -0.00000000000E+00 -0.00000000000E+00 -0.43556864392E+03  0.43556864392E+03  0.00000000000E+00 0. -1.
         25    2    1    2    0    0 -0.56932092375E+02 -0.70579400076E+02  0.22562581137E+02  0.15607009036E+03  0.12500435265E+03 0.  0.
          5    1    3    3  501    0 -0.83339257789E+02 -0.27866645847E+02  0.47620549908E+02  0.99948529820E+02  0.10000000000E+00 0. -1.
         -5    1    3    3    0  501  0.26407165414E+02 -0.42712754228E+02 -0.25057968771E+02  0.56121560544E+02  0.10000000000E+00 0. -1.
         21    1    1    2  504  502  0.56932092375E+02  0.70579400076E+02 -0.36324114819E+03  0.37438863043E+03  0.00000000000E+00 0. -1.
<mgrwt>
<rscale>  1 0.15443058E+03</rscale>
<asrwt>0</asrwt>
<pdfrwt beam="1">  1       21 0.14598473E-01 0.15443058E+03</pdfrwt>
<pdfrwt beam="2">  1       21 0.67010561E-01 0.15443058E+03</pdfrwt>
<totfact> 0.85409168E+04</totfact>
</mgrwt>
</event>
<event>
 6    1  0.4271609E-002  0.1471911E+03  0.7546771E-02  0.1203968E+00
         21   -1    0    0  504  502  0.00000000000E+00  0.00000000000E+00  0.61984513507E+02  0.61984513507E+02  0.00000000000E+00 0. -1.
         21   -1    0    0  502  503 -0.00000000000E+00 -0.00000000000E+00 -0.37318389502E+03  0.37318389502E+03  0.00000000000E+00 0. -1.
         25    2    1    2    0    0 -0.70313943704E+02 -0.33102566854E+02 -0.39253192257E+02  0.15233531205E+03  0.12500161432E+03 0.  0.
          5    1    3    3  501    0  0.20242135594E+02  0.20036769264E+02 -0.37799638455E+02  0.47329048620E+02  0.10000000000E+00 0.  1.
         -5    1    3    3    0  501 -0.90556079298E+02 -0.53139336119E+02 -0.14535538013E+01  0.10500626343E+03  0.10000000000E+00 0.  1.
         21    1    1    2  504  503  0.70313943704E+02  0.33102566854E+02 -0.27194618926E+03  0.28283309648E+03  0.00000000000E+00 0. -1.
<mgrwt>
<rscale>  1 0.14719115E+03</rscale>
<asrwt>0</asrwt>
<pdfrwt beam="1">  1       21 0.95360789E-02 0.14719115E+03</pdfrwt>
<pdfrwt beam="2">  1       21 0.57412907E-01 0.14719115E+03</pdfrwt>
<totfact> 0.25417340E+05</totfact>
</mgrwt>
</event>
<event>
 6    1  0.4271609E-002  0.1381589E+03  0.7546771E-02  0.1215828E+00
         21   -1    0    0  504  502  0.00000000000E+00  0.00000000000E+00  0.76338651652E+02  0.76338651652E+02  0.00000000000E+00 0. -1.
         21   -1    0    0  502  503 -0.00000000000E+00 -0.00000000000E+00 -0.86150032388E+03  0.86150032388E+03  0.00000000000E+00 0.  1.
         25    2    1    2    0    0 -0.58503009890E+02 -0.58193951707E+01  0.11846009331E+02  0.13866583285E+03  0.12502566831E+03 0.  0.
          5    1    3    3  501    0 -0.48514227692E+02 -0.49512464148E+02  0.45237666486E+02  0.82774216176E+02  0.10000000000E+00 0. -1.
         -5    1    3    3    0  501 -0.99887821987E+01  0.43693068977E+02 -0.33391657155E+02  0.55891616670E+02  0.10000000000E+00 0. -1.
         21    1    1    2  504  503  0.58503009890E+02  0.58193951707E+01 -0.79700768156E+03  0.79917314269E+03  0.00000000000E+00 0.  1.
<mgrwt>
<rscale>  1 0.13815891E+03</rscale>
<asrwt>0</asrwt>
<pdfrwt beam="1">  1       21 0.11744407E-01 0.13815891E+03</pdfrwt>
<pdfrwt beam="2">  1       21 0.13253852E+00 0.13815891E+03</pdfrwt>
<totfact> 0.26024367E+04</totfact>
</mgrwt>
</event>
<event>
 6    1  0.4271609E-002  0.1906457E+03  0.7546771E-02  0.1157880E+00
         21   -1    0    0  503  502  0.00000000000E+00  0.00000000000E+00  0.16292628215E+03  0.16292628215E+03  0.00000000000E+00 0. -1.
         21   -1    0    0  504  503 -0.00000000000E+00 -0.00000000000E+00 -0.17586822872E+03  0.17586822872E+03  0.00000000000E+00 0. -1.
         25    2    1    2    0    0 -0.80829607719E+02 -0.11910904917E+03  0.18219666747E+02  0.19151437907E+03  0.12500164022E+03 0.  0.
          5    1    3    3  501    0 -0.96139599641E+01 -0.94162250900E+02  0.52940055542E+02  0.10845098986E+03  0.10000000000E+00 0. -1.
         -5    1    3    3    0  501 -0.71215647755E+02 -0.24946798266E+02 -0.34720388794E+02  0.83063389209E+02  0.10000000000E+00 0. -1.
         21    1    1    2  504  502  0.80829607719E+02  0.11910904917E+03 -0.31161613319E+02  0.14728013180E+03  0.00000000000E+00 0. -1.
<mgrwt>
<rscale>  1 0.19064575E+03</rscale>
<asrwt>0</asrwt>
<pdfrwt beam="1">  1       21 0.25065582E-01 0.19064575E+03</pdfrwt>
<pdfrwt beam="2">  1       21 0.27056651E-01 0.19064575E+03</pdfrwt>
<totfact> 0.19629559E+05</totfact>
</mgrwt>
</event>
<event>
 6    1  0.4271609E-002  0.1299652E+03  0.7546771E-02  0.1227507E+00
         21   -1    0    0  504  502  0.00000000000E+00  0.00000000000E+00  0.42261242166E+03  0.42261242166E+03  0.00000000000E+00 0.  1.
         21   -1    0    0  502  503 -0.00000000000E+00 -0.00000000000E+00 -0.48801371377E+02  0.48801371377E+02  0.00000000000E+00 0.  1.
         25    2    1    2    0    0 -0.32529918414E+02  0.14416961484E+02  0.40422550575E+03  0.42460478245E+03  0.12499966967E+03 0.  0.
          5    1    3    3  501    0 -0.21304129703E+02 -0.23854761313E+02  0.37188106978E+03  0.37325387559E+03  0.10000000000E+00 0. -1.
         -5    1    3    3    0  501 -0.11225788711E+02  0.38271722797E+02  0.32344435963E+02  0.51350906864E+02  0.10000000000E+00 0. -1.
         21    1    1    2  504  503  0.32529918414E+02 -0.14416961484E+02 -0.30414455465E+02  0.46809010582E+02  0.00000000000E+00 0.  1.
<mgrwt>
<rscale>  1 0.12996523E+03</rscale>
<asrwt>0</asrwt>
<pdfrwt beam="1">  1       21 0.65017293E-01 0.12996523E+03</pdfrwt>
<pdfrwt beam="2">  1       21 0.75079036E-02 0.12996523E+03</pdfrwt>
<totfact> 0.29609049E+05</totfact>
</mgrwt>
</event>
<event>
 6    1  0.4271609E-002  0.1283015E+03  0.7546771E-02  0.1229998E+00
         21   -1    0    0  503  502  0.00000000000E+00  0.00000000000E+00  0.71649659084E+02  0.71649659084E+02  0.00000000000E+00 0.  1.
         21   -1    0    0  504  503 -0.00000000000E+00 -0.00000000000E+00 -0.15525103335E+03  0.15525103335E+03  0.00000000000E+00 0.  1.
         25    2    1    2    0    0 -0.18079433690E+02  0.22472156869E+02  0.10256950227E+02  0.12871083128E+03  0.12501763597E+03 0.  0.
          5    1    3    3  501    0  0.94041558583E+00 -0.50805315849E+02 -0.63373467059E+01  0.51207777371E+02  0.10000000000E+00 0.  1.
         -5    1    3    3    0  501 -0.19019849275E+02  0.73277472719E+02  0.16594296933E+02  0.77503053909E+02  0.10000000000E+00 0.  1.
         21    1    1    2  504  502  0.18079433690E+02 -0.22472156869E+02 -0.93858324489E+02  0.98189861151E+02  0.00000000000E+00 0.  1.
<mgrwt>
<rscale>  1 0.12830149E+03</rscale>
<asrwt>0</asrwt>
<pdfrwt beam="1">  1       21 0.11023025E-01 0.12830149E+03</pdfrwt>
<pdfrwt beam="2">  1       21 0.23884774E-01 0.12830149E+03</pdfrwt>
<totfact> 0.11278452E+06</totfact>
</mgrwt>
</event>
<event>
 6    1  0.4271609E-002  0.1274230E+03  0.7546771E-02  0.1231330E+00
         21   -1    0    0  503  502  0.00000000000E+00  0.00000000000E+00  0.22231974705E+01  0.22231974705E+01  0.00000000000E+00 0. -1.
         21   -1    0    0  504  503 -0.00000000000E+00 -0.00000000000E+00 -0.26101551235E+04  0.26101551235E+04  0.00000000000E+00 0. -1.
         25    2    1    2    0    0 -0.23778866523E+02  0.67369508227E+01 -0.21304709514E+04  0.21342781188E+04  0.12500317087E+03 0.  0.
          5    1    3    3  501    0 -0.15721914813E+02  0.15453350650E+02 -0.62516013449E+02  0.66289113655E+02  0.10000000000E+00 0.  1.
         -5    1    3    3    0  501 -0.80569517099E+01 -0.87163998274E+01 -0.20679549380E+04  0.20679890052E+04  0.10000000000E+00 0.  1.
         21    1    1    2  504  502  0.23778866523E+02 -0.67369508227E+01 -0.47746097461E+03  0.47810020213E+03  0.00000000000E+00 0. -1.
<mgrwt>
<rscale>  1 0.12742297E+03</rscale>
<asrwt>0</asrwt>
<pdfrwt beam="1">  1       21 0.34202855E-03 0.12742297E+03</pdfrwt>
<pdfrwt beam="2">  1       21 0.40156448E+00 0.12742297E+03</pdfrwt>
<totfact> 0.18464215E+05</totfact>
</mgrwt>
</event>
<event>
 6    1  0.4271609E-002  0.1272846E+03  0.7546771E-02  0.1231541E+00
         21   -1    0    0  503  502  0.00000000000E+00  0.00000000000E+00  0.32019543078E+03  0.32019543078E+03  0.00000000000E+00 0. -1.
         21   -1    0    0  504  503 -0.00000000000E+00 -0.00000000000E+00 -0.37018090974E+02  0.37018090974E+02  0.00000000000E+00 0. -1.
         25    2    1    2    0    0 -0.16458095084E+02  0.17495314056E+02  0.30132707728E+03  0.32710757752E+03  0.12499761942E+03 0.  0.
          5    1    3    3  501    0 -0.40274561940E+02  0.60599450587E+02  0.22314341858E+03  0.23470690021E+03  0.10000000000E+00 0. -1.
         -5    1    3    3    0  501  0.23816466856E+02 -0.43104136531E+02  0.78183658693E+02  0.92400677304E+02  0.10000000000E+00 0. -1.
         21    1    1    2  504  502  0.16458095084E+02 -0.17495314056E+02 -0.18149737474E+02  0.30105944232E+02  0.00000000000E+00 0. -1.
<mgrwt>
<rscale>  1 0.12728456E+03</rscale>
<asrwt>0</asrwt>
<pdfrwt beam="1">  1       21 0.49260834E-01 0.12728456E+03</pdfrwt>
<pdfrwt beam="2">  1       21 0.56950911E-02 0.12728456E+03</pdfrwt>
<totfact> 0.85033324E+05</totfact>
</mgrwt>
</event>
<event>
 6    1  0.4271609E-002  0.1260066E+03  0.7546771E-02  0.1233504E+00
         21   -1    0    0  504  502  0.00000000000E+00  0.00000000000E+00  0.18096721493E+03  0.18096721493E+03  0.00000000000E+00 0.  1.
         21   -1    0    0  502  503 -0.00000000000E+00 -0.00000000000E+00 -0.27908551765E+02  0.27908551765E+02  0.00000000000E+00 0.  1.
         25    2    1    2    0    0 -0.12619040841E+02  0.96025267341E+01  0.13165428742E+03  0.18223752328E+03  0.12500485903E+03 0.  0.
          5    1    3    3  501    0  0.37227726946E+02  0.49566304832E+02  0.68937501887E+02  0.92709823615E+02  0.10000000000E+00 0.  1.
         -5    1    3    3    0  501 -0.49846767787E+02 -0.39963778098E+02  0.62716785536E+02  0.89527699662E+02  0.10000000000E+00 0.  1.
         21    1    1    2  504  503  0.12619040841E+02 -0.96025267341E+01  0.21404375737E+02  0.26638243413E+02  0.00000000000E+00 0.  1.
<mgrwt>
<rscale>  1 0.12600660E+03</rscale>
<asrwt>0</asrwt>
<pdfrwt beam="1">  1       21 0.27841109E-01 0.12600660E+03</pdfrwt>
<pdfrwt beam="2">  1       21 0.42936235E-02 0.12600660E+03</pdfrwt>
<totfact> 0.42269062E+06</totfact>
</mgrwt>
</event>
<event>
 6    1  0.4271609E-002  0.1379464E+03  0.7546771E-02  0.1216119E+00
         21   -1    0    0  503  502  0.00000000000E+00  0.00000000000E+00  0.14216774889E+03  0.14216774889E+03  0.00000000000E+00 0. -1.
         21   -1    0    0  504  503 -0.00000000000E+00 -0.00000000000E+00 -0.49104037783E+03  0.49104037783E+03  0.00000000000E+00 0. -1.
         25    2    1    2    0    0 -0.16883983475E+02 -0.55817562659E+02  0.10640184397E+03  0.17421410183E+03  0.12501412591E+03 0.  0.
          5    1    3    3  501    0 -0.61914336461E+02 -0.18068334414E+02  0.16097582212E+02  0.66475498652E+02  0.10000000000E+00 0. -1.
         -5    1    3    3    0  501  0.45030352986E+02 -0.37749228246E+02  0.90304261762E+02  0.10773860318E+03  0.10000000000E+00 0. -1.
         21    1    1    2  504  502  0.16883983475E+02  0.55817562659E+02 -0.45527447291E+03  0.45899402489E+03  0.00000000000E+00 0. -1.
<mgrwt>
<rscale>  1 0.13794637E+03</rscale>
<asrwt>0</asrwt>
<pdfrwt beam="1">  1       21 0.21871961E-01 0.13794637E+03</pdfrwt>
<pdfrwt beam="2">  1       21 0.75544676E-01 0.13794637E+03</pdfrwt>
<totfact> 0.31509194E+04</totfact>
</mgrwt>
</event>
<event>
 6    1  0.4271609E-002  0.1992584E+03  0.7546771E-02  0.1150366E+00
         21   -1    0    0  504  502  0.00000000000E+00  0.00000000000E+00  0.46875599162E+03  0.46875599162E+03  0.00000000000E+00 0.  1.
         21   -1    0    0  502  503 -0.00000000000E+00 -0.00000000000E+00 -0.12910710887E+03  0.12910710887E+03  0.00000000000E+00 0. -1.
         25    2    1    2    0    0  0.86397242900E+02 -0.12889312363E+03  0.38729081644E+03  0.43554343211E+03  0.12500393536E+03 0.  0.
          5    1    3    3  501    0  0.97093398397E+02 -0.10109782890E+03  0.37978950284E+03  0.40483079859E+03  0.10000000000E+00 0. -1.
         -5    1    3    3    0  501 -0.10696155497E+02 -0.27795294733E+02  0.75013135955E+01  0.30712633514E+02  0.10000000000E+00 0. -1.
         21    1    1    2  504  503 -0.86397242900E+02  0.12889312363E+03 -0.47641933681E+02  0.16231966839E+03  0.00000000000E+00 0. -1.
<mgrwt>
<rscale>  1 0.19925839E+03</rscale>
<asrwt>0</asrwt>
<pdfrwt beam="1">  1       21 0.72116305E-01 0.19925839E+03</pdfrwt>
<pdfrwt beam="2">  1       21 0.19862632E-01 0.19925839E+03</pdfrwt>
<totfact> 0.40424450E+04</totfact>
</mgrwt>
</event>
<event>
 6    1  0.4271609E-002  0.1266128E+03  0.7546771E-02  0.1232570E+00
         21   -1    0    0  504  502  0.00000000000E+00  0.00000000000E+00  0.31364544818E+02  0.31364544818E+02  0.00000000000E+00 0. -1.
         21   -1    0    0  502  503 -0.00000000000E+00 -0.00000000000E+00 -0.32905585040E+03  0.32905585040E+03  0.00000000000E+00 0.  1.
         25    2    1    2    0    0 -0.17169724322E+02 -0.10568576088E+02 -0.99036870427E+02  0.16074546229E+03  0.12499723080E+03 0.  0.
          5    1    3    3  501    0 -0.60865606036E+02 -0.92908666716E+01 -0.99521974975E+02  0.11702809793E+03  0.10000000000E+00 0. -1.
         -5    1    3    3    0  501  0.43695881714E+02 -0.12777094166E+01  0.48510454815E+00  0.43717364360E+02  0.10000000000E+00 0. -1.
         21    1    1    2  504  503  0.17169724322E+02  0.10568576088E+02 -0.19865443516E+03  0.19967493293E+03  0.00000000000E+00 0.  1.
<mgrwt>
<rscale>  1 0.12661280E+03</rscale>
<asrwt>0</asrwt>
<pdfrwt beam="1">  1       21 0.48253148E-02 0.12661280E+03</pdfrwt>
<pdfrwt beam="2">  1       21 0.50623975E-01 0.12661280E+03</pdfrwt>
<totfact> 0.10623405E+06</totfact>
</mgrwt>
</event>
<event>
 6    1  0.4271609E-002  0.1571769E+03  0.7546771E-02  0.1191921E+00
         21   -1    0    0  504  502  0.00000000000E+00  0.00000000000E+00  0.97953586605E+02  0.97953586605E+02  0.00000000000E+00 0. -1.
         21   -1    0    0  502  503 -0.00000000000E+00 -0.00000000000E+00 -0.31321190590E+03  0.31321190590E+03  0.00000000000E+00 0. -1.
         25    2    1    2    0    0 -0.54180541248E+02  0.78383475687E+02  0.18950480377E+02  0.15831521634E+03  0.12500034684E+03 0.  0.
          5    1    3    3  501    0  0.31409364628E+02  0.36406083365E+02  0.37772628588E+02  0.61145176120E+02  0.10000000000E+00 0. -1.
         -5    1    3    3    0  501 -0.85589905875E+02  0.41977392323E+02 -0.18822148211E+02  0.97170040225E+02  0.10000000000E+00 0. -1.
         21    1    1    2  504  503  0.54180541248E+02 -0.78383475687E+02 -0.23420879968E+03  0.25285027616E+03  0.00000000000E+00 0. -1.
<mgrwt>
<rscale>  1 0.15717693E+03</rscale>
<asrwt>0</asrwt>
<pdfrwt beam="1">  1       21 0.15069783E-01 0.15717693E+03</pdfrwt>
<pdfrwt beam="2">  1       21 0.48186447E-01 0.15717693E+03</pdfrwt>
<totfact> 0.16191182E+05</totfact>
</mgrwt>
</event>
<event>
 6    1  0.4271609E-002  0.1390331E+03  0.7546771E-02  0.1214636E+00
         21   -1    0    0  503  502  0.00000000000E+00  0.00000000000E+00  0.32316594163E+03  0.32316594163E+03  0.00000000000E+00 0. -1.
         21   -1    0    0  504  503 -0.00000000000E+00 -0.00000000000E+00 -0.50509750511E+02  0.50509750511E+02  0.00000000000E+00 0. -1.
         25    2    1    2    0    0 -0.27961501988E+02  0.54128545980E+02  0.27969617619E+03  0.31234620108E+03  0.12497381034E+03 0.  0.
          5    1    3    3  501    0  0.24983076804E+01  0.17838976489E+02 -0.87561565473E+01  0.20028751856E+02  0.10000000000E+00 0. -1.
         -5    1    3    3    0  501 -0.30459809669E+02  0.36289569491E+02  0.28845233274E+03  0.29231744923E+03  0.10000000000E+00 0. -1.
         21    1    1    2  504  502  0.27961501988E+02 -0.54128545980E+02 -0.70399850766E+01  0.61329491057E+02  0.00000000000E+00 0. -1.
<mgrwt>
<rscale>  1 0.13903308E+03</rscale>
<asrwt>0</asrwt>
<pdfrwt beam="1">  1       21 0.49717836E-01 0.13903308E+03</pdfrwt>
<pdfrwt beam="2">  1       21 0.77707311E-02 0.13903308E+03</pdfrwt>
<totfact> 0.49057847E+05</totfact>
</mgrwt>
</event>
<event>
 6    1  0.4271609E-002  0.1264704E+03  0.7546771E-02  0.1232789E+00
         21   -1    0    0  504  502  0.00000000000E+00  0.00000000000E+00  0.15591964230E+03  0.15591964230E+03  0.00000000000E+00 0.  1.
         21   -1    0    0  502  503 -0.00000000000E+00 -0.00000000000E+00 -0.12905686163E+04  0.12905686163E+04  0.00000000000E+00 0. -1.
         25    2    1    2    0    0  0.17368657560E+02 -0.82333879873E+01  0.13018874989E+03  0.18150449320E+03  0.12500124604E+03 0.  0.
          5    1    3    3  501    0 -0.42632653531E+01 -0.64017785604E+02  0.49408556984E+02  0.80979428303E+02  0.10000000000E+00 0.  1.
         -5    1    3    3    0  501  0.21631922913E+02  0.55784397617E+02  0.80780192910E+02  0.10052506490E+03  0.10000000000E+00 0.  1.
         21    1    1    2  504  503 -0.17368657560E+02  0.82333879873E+01 -0.12648377239E+04  0.12649837654E+04  0.00000000000E+00 0. -1.
<mgrwt>
<rscale>  1 0.12647043E+03</rscale>
<asrwt>0</asrwt>
<pdfrwt beam="1">  1       21 0.23987638E-01 0.12647043E+03</pdfrwt>
<pdfrwt beam="2">  1       21 0.19854901E+00 0.12647043E+03</pdfrwt>
<totfact> 0.24328983E+03</totfact>
</mgrwt>
</event>
<event>
 6    1  0.4271609E-002  0.1266319E+03  0.7546771E-02  0.1232541E+00
         21   -1    0    0  504  502  0.00000000000E+00  0.00000000000E+00  0.67876782004E+01  0.67876782004E+01  0.00000000000E+00 0.  1.
         21   -1    0    0  502  503 -0.00000000000E+00 -0.00000000000E+00 -0.13272765385E+04  0.13272765385E+04  0.00000000000E+00 0.  1.
         25    2    1    2    0    0  0.56141926356E+01  0.19494489800E+02 -0.59659947905E+03  0.60989062523E+03  0.12499632816E+03 0.  0.
          5    1    3    3  501    0 -0.71018820822E+01 -0.51306971206E+02 -0.18787250171E+03  0.19488183323E+03  0.10000000000E+00 0. -1.
         -5    1    3    3    0  501  0.12716074718E+02  0.70801461006E+02 -0.40872697734E+03  0.41500879201E+03  0.10000000000E+00 0. -1.
         21    1    1    2  504  503 -0.56141926356E+01 -0.19494489800E+02 -0.72388938128E+03  0.72417359150E+03  0.00000000000E+00 0.  1.
<mgrwt>
<rscale>  1 0.12663189E+03</rscale>
<asrwt>0</asrwt>
<pdfrwt beam="1">  1       21 0.10442590E-02 0.12663189E+03</pdfrwt>
<pdfrwt beam="2">  1       21 0.20419623E+00 0.12663189E+03</pdfrwt>
<totfact> 0.45457847E+05</totfact>
</mgrwt>
</event>
<event>
 6    1  0.4271609E-002  0.1269220E+03  0.7546771E-02  0.1232096E+00
         21   -1    0    0  504  502  0.00000000000E+00  0.00000000000E+00  0.60345678572E+03  0.60345678572E+03  0.00000000000E+00 0. -1.
         21   -1    0    0  502  503 -0.00000000000E+00 -0.00000000000E+00 -0.56426901817E+02  0.56426901817E+02  0.00000000000E+00 0. -1.
         25    2    1    2    0    0 -0.21694034029E+02  0.35592496071E+01  0.59432628420E+03  0.60772768260E+03  0.12500361890E+03 0.  0.
          5    1    3    3  501    0 -0.24694744790E+02 -0.14437470084E+01  0.59945144617E+03  0.59996163306E+03  0.10000000000E+00 0. -1.
         -5    1    3    3    0  501  0.30007107610E+01  0.50029966155E+01 -0.51251619735E+01  0.77660495402E+01  0.10000000000E+00 0. -1.
         21    1    1    2  504  503  0.21694034029E+02 -0.35592496071E+01 -0.47296400294E+02  0.52156004938E+02  0.00000000000E+00 0. -1.
<mgrwt>
<rscale>  1 0.12692204E+03</rscale>
<asrwt>0</asrwt>
<pdfrwt beam="1">  1       21 0.92839501E-01 0.12692204E+03</pdfrwt>
<pdfrwt beam="2">  1       21 0.86810622E-02 0.12692204E+03</pdfrwt>
<totfact> 0.10450430E+05</totfact>
</mgrwt>
</event>
<event>
 6    1  0.4271609E-002  0.1308399E+03  0.7546771E-02  0.1226215E+00
         21   -1    0    0  504  502  0.00000000000E+00  0.00000000000E+00  0.56032983897E+02  0.56032983897E+02  0.00000000000E+00 0. -1.
         21   -1    0    0  502  503 -0.00000000000E+00 -0.00000000000E+00 -0.13075657655E+03  0.13075657655E+03  0.00000000000E+00 0. -1.
         25    2    1    2    0    0  0.39443965588E+01 -0.38352830679E+02 -0.45923380096E+02  0.13866524093E+03  0.12503037358E+03 0.  0.
          5    1    3    3  501    0  0.59769321450E+02 -0.44633783964E+02 -0.24000071014E+02  0.78361724498E+02  0.10000000000E+00 0.  1.
         -5    1    3    3    0  501 -0.55824924891E+02  0.62809532848E+01 -0.21923309082E+02  0.60303516435E+02  0.10000000000E+00 0.  1.
         21    1    1    2  504  503 -0.39443965588E+01  0.38352830679E+02 -0.28800212554E+02  0.48124319512E+02  0.00000000000E+00 0. -1.
<mgrwt>
<rscale>  1 0.13083995E+03</rscale>
<asrwt>0</asrwt>
<pdfrwt beam="1">  1       21 0.86204591E-02 0.13083995E+03</pdfrwt>
<pdfrwt beam="2">  1       21 0.20116396E-01 0.13083995E+03</pdfrwt>
<totfact> 0.23880653E+06</totfact>
</mgrwt>
</event>
<event>
 6    1  0.4271609E-002  0.1391331E+03  0.7546771E-02  0.1214500E+00
         21   -1    0    0  504  502  0.00000000000E+00  0.00000000000E+00  0.30832966805E+02  0.30832966805E+02  0.00000000000E+00 0. -1.
         21   -1    0    0  502  503 -0.00000000000E+00 -0.00000000000E+00 -0.33796733668E+03  0.33796733668E+03  0.00000000000E+00 0. -1.
         25    2    1    2    0    0 -0.59398430749E+02  0.14343684273E+02 -0.17788550912E+03  0.22583463327E+03  0.12499644945E+03 0.  0.
          5    1    3    3  501    0 -0.38438961994E+02 -0.53570389185E+02 -0.10534783602E+03  0.12427999417E+03  0.10000000000E+00 0.  1.
         -5    1    3    3    0  501 -0.20959468755E+02  0.67914073458E+02 -0.72537673109E+02  0.10155463911E+03  0.10000000000E+00 0.  1.
         21    1    1    2  504  503  0.59398430749E+02 -0.14343684273E+02 -0.12924886075E+03  0.14296567022E+03  0.00000000000E+00 0. -1.
<mgrwt>
<rscale>  1 0.13913313E+03</rscale>
<asrwt>0</asrwt>
<pdfrwt beam="1">  1       21 0.47435332E-02 0.13913313E+03</pdfrwt>
<pdfrwt beam="2">  1       21 0.51994976E-01 0.13913313E+03</pdfrwt>
<totfact> 0.10349035E+06</totfact>
</mgrwt>
</event>
<event>
 6    1  0.4271609E-002  0.2015701E+03  0.7546771E-02  0.1148421E+00
         21   -1    0    0  504  502  0.00000000000E+00  0.00000000000E+00  0.13685975197E+02  0.13685975197E+02  0.00000000000E+00 0. -1.
         21   -1    0    0  502  503 -0.00000000000E+00 -0.00000000000E+00 -0.23640739234E+04  0.23640739234E+04  0.00000000000E+00 0. -1.
         25    2    1    2    0    0 -0.15111434997E+03  0.46591979964E+02 -0.12986318355E+04  0.13141823133E+04  0.12499659602E+03 0.  0.
          5    1    3    3  501    0 -0.13026700342E+03  0.26535423399E+02 -0.12537919163E+04  0.12608202887E+04  0.10000000000E+00 0. -1.
         -5    1    3    3    0  501 -0.20847346559E+02  0.20056556565E+02 -0.44839919174E+02  0.53362024618E+02  0.10000000000E+00 0. -1.
         21    1    1    2  504  503  0.15111434997E+03 -0.46591979964E+02 -0.10517561127E+04  0.10635775853E+04  0.00000000000E+00 0. -1.
<mgrwt>
<rscale>  1 0.20157011E+03</rscale>
<asrwt>0</asrwt>
<pdfrwt beam="1">  1       21 0.21055337E-02 0.20157011E+03</pdfrwt>
<pdfrwt beam="2">  1       21 0.36370384E+00 0.20157011E+03</pdfrwt>
<totfact> 0.16245611E+04</totfact>
</mgrwt>
</event>
<event>
 6    1  0.4271609E-002  0.1296088E+03  0.7546771E-02  0.1228037E+00
         21   -1    0    0  503  502  0.00000000000E+00  0.00000000000E+00  0.10098914190E+03  0.10098914190E+03  0.00000000000E+00 0. -1.
         21   -1    0    0  504  503 -0.00000000000E+00 -0.00000000000E+00 -0.76303184056E+02  0.76303184056E+02  0.00000000000E+00 0. -1.
         25    2    1    2    0    0  0.21010439596E+02  0.27032526867E+02  0.45336556912E+02  0.13730928802E+03  0.12500496432E+03 0.  0.
          5    1    3    3  501    0  0.68124234213E+02  0.56262962845E+01 -0.23230401885E+00  0.68356641683E+02  0.10000000000E+00 0.  1.
         -5    1    3    3    0  501 -0.47113794617E+02  0.21406230583E+02  0.45568860930E+02  0.68952646341E+02  0.10000000000E+00 0.  1.
         21    1    1    2  504  502 -0.21010439596E+02 -0.27032526867E+02 -0.20650599064E+02  0.39983037935E+02  0.00000000000E+00 0. -1.
<mgrwt>
<rscale>  1 0.12960879E+03</rscale>
<asrwt>0</asrwt>
<pdfrwt beam="1">  1       21 0.15536791E-01 0.12960879E+03</pdfrwt>
<pdfrwt beam="2">  1       21 0.11738951E-01 0.12960879E+03</pdfrwt>
<totfact> 0.22299858E+06</totfact>
</mgrwt>
</event>
<event>
 6    1  0.4271609E-002  0.1364632E+03  0.7546771E-02  0.1218169E+00
         21   -1    0    0  504  502  0.00000000000E+00  0.00000000000E+00  0.19146624755E+03  0.19146624755E+03  0.00000000000E+00 0.  1.
         21   -1    0    0  502  503 -0.00000000000E+00 -0.00000000000E+00 -0.60570688072E+02  0.60570688072E+02  0.00000000000E+00 0.  1.
         25    2    1    2    0    0  0.44477566174E+01  0.54549777312E+02  0.14117613605E+03  0.19634895668E+03  0.12500700242E+03 0.  0.
          5    1    3    3  501    0 -0.12848832527E+02  0.48484212483E+00  0.13894709204E+03  0.13954078957E+03  0.10000000000E+00 0.  1.
         -5    1    3    3    0  501  0.17296589144E+02  0.54064935188E+02  0.22290440149E+01  0.56808167107E+02  0.10000000000E+00 0.  1.
         21    1    1    2  504  503 -0.44477566174E+01 -0.54549777312E+02 -0.10280576575E+02  0.55687978941E+02  0.00000000000E+00 0.  1.
<mgrwt>
<rscale>  1 0.13646322E+03</rscale>
<asrwt>0</asrwt>
<pdfrwt beam="1">  1       21 0.29456346E-01 0.13646322E+03</pdfrwt>
<pdfrwt beam="2">  1       21 0.93185675E-02 0.13646322E+03</pdfrwt>
<totfact> 0.10162267E+06</totfact>
</mgrwt>
</event>
<event>
 6    1  0.4271609E-002  0.1306922E+03  0.7546771E-02  0.1226432E+00
         21   -1    0    0  504  502  0.00000000000E+00  0.00000000000E+00  0.81871397408E+03  0.81871397408E+03  0.00000000000E+00 0.  1.
         21   -1    0    0  502  503 -0.00000000000E+00 -0.00000000000E+00 -0.39668872670E+03  0.39668872670E+03  0.00000000000E+00 0.  1.
         25    2    1    2    0    0  0.22083036485E+02  0.31121913100E+02  0.81256242724E+03  0.82300555141E+03  0.12499682199E+03 0.  0.
          5    1    3    3  501    0 -0.32189267289E+01  0.76001807971E+02  0.56831206499E+03  0.57338054512E+03  0.10000000000E+00 0.  1.
         -5    1    3    3    0  501  0.25301963214E+02 -0.44879894871E+02  0.24425036225E+03  0.24962500629E+03  0.10000000000E+00 0.  1.
         21    1    1    2  504  503 -0.22083036485E+02 -0.31121913100E+02 -0.39053717986E+03  0.39239714936E+03  0.00000000000E+00 0.  1.
<mgrwt>
<rscale>  1 0.13069216E+03</rscale>
<asrwt>0</asrwt>
<pdfrwt beam="1">  1       21 0.12595600E+00 0.13069216E+03</pdfrwt>
<pdfrwt beam="2">  1       21 0.61029035E-01 0.13069216E+03</pdfrwt>
<totfact> 0.12557615E+03</totfact>
</mgrwt>
</event>
<event>
 6    1  0.4271609E-002  0.1270520E+03  0.7546771E-02  0.1231897E+00
         21   -1    0    0  503  502  0.00000000000E+00  0.00000000000E+00  0.14761813303E+03  0.14761813303E+03  0.00000000000E+00 0. -1.
         21   -1    0    0  504  503 -0.00000000000E+00 -0.00000000000E+00 -0.86758035749E+02  0.86758035749E+02  0.00000000000E+00 0. -1.
         25    2    1    2    0    0 -0.11772940351E+02  0.19489215675E+02  0.11767096899E+03  0.17317235520E+03  0.12499510395E+03 0.  0.
          5    1    3    3  501    0  0.19152207798E+02  0.67376237894E+02  0.65322416611E+02  0.95777829419E+02  0.10000000000E+00 0.  1.
         -5    1    3    3    0  501 -0.30925148149E+02 -0.47887022219E+02  0.52348552378E+02  0.77394525783E+02  0.10000000000E+00 0.  1.
         21    1    1    2  504  502  0.11772940351E+02 -0.19489215675E+02 -0.56810871709E+02  0.61203813578E+02  0.00000000000E+00 0. -1.
<mgrwt>
<rscale>  1 0.12705199E+03</rscale>
<asrwt>0</asrwt>
<pdfrwt beam="1">  1       21 0.22710482E-01 0.12705199E+03</pdfrwt>
<pdfrwt beam="2">  1       21 0.13347390E-01 0.12705199E+03</pdfrwt>
<totfact> 0.88302919E+05</totfact>
</mgrwt>
</event>
<event>
 6    1  0.4271609E-002  0.1263769E+03  0.7546771E-02  0.1232933E+00
         21   -1    0    0  503  502  0.00000000000E+00  0.00000000000E+00  0.22656484246E+02  0.22656484246E+02  0.00000000000E+00 0.  1.
         21   -1    0    0  504  503 -0.00000000000E+00 -0.00000000000E+00 -0.45527553928E+03  0.45527553928E+03  0.00000000000E+00 0.  1.
         25    2    1    2    0    0 -0.17988391775E+02 -0.50151264994E+01 -0.15637662098E+03  0.20105909941E+03  0.12498952011E+03 0.  0.
          5    1    3    3  501    0 -0.35005455033E+02 -0.59606401169E+02 -0.82257874097E+02  0.10744613903E+03  0.10000000000E+00 0.  1.
         -5    1    3    3    0  501  0.17017063258E+02  0.54591274670E+02 -0.74118746881E+02  0.93612960380E+02  0.10000000000E+00 0.  1.
         21    1    1    2  504  502  0.17988391775E+02  0.50151264994E+01 -0.27624243405E+03  0.27687292411E+03  0.00000000000E+00 0.  1.
<mgrwt>
<rscale>  1 0.12637687E+03</rscale>
<asrwt>0</asrwt>
<pdfrwt beam="1">  1       21 0.34856130E-02 0.12637687E+03</pdfrwt>
<pdfrwt beam="2">  1       21 0.70042390E-01 0.12637687E+03</pdfrwt>
<totfact> 0.91639113E+05</totfact>
</mgrwt>
</event>
<event>
 6    1  0.4271609E-002  0.1273278E+03  0.7546771E-02  0.1231476E+00
         21   -1    0    0  504  502  0.00000000000E+00  0.00000000000E+00  0.56253753962E+02  0.56253753962E+02  0.00000000000E+00 0. -1.
         21   -1    0    0  502  503 -0.00000000000E+00 -0.00000000000E+00 -0.68151869347E+03  0.68151869347E+03  0.00000000000E+00 0. -1.
         25    2    1    2    0    0  0.16972752640E+02 -0.17264531319E+02 -0.16346348162E+02  0.12837275162E+03  0.12500488745E+03 0.  0.
          5    1    3    3  501    0 -0.16677743358E+02  0.49494623572E+02 -0.21301486894E+01  0.52272482431E+02  0.10000000000E+00 0. -1.
         -5    1    3    3    0  501  0.33650495998E+02 -0.66759154891E+02 -0.14216199472E+02  0.76100269186E+02  0.10000000000E+00 0. -1.
         21    1    1    2  504  503 -0.16972752640E+02  0.17264531319E+02 -0.60891859135E+03  0.60939969582E+03  0.00000000000E+00 0. -1.
<mgrwt>
<rscale>  1 0.12732777E+03</rscale>
<asrwt>0</asrwt>
<pdfrwt beam="1">  1       21 0.86544239E-02 0.12732777E+03</pdfrwt>
<pdfrwt beam="2">  1       21 0.10484903E+00 0.12732777E+03</pdfrwt>
<totfact> 0.79080523E+04</totfact>
</mgrwt>
</event>
<event>
 6    1  0.4271609E-002  0.1266506E+03  0.7546771E-02  0.1232512E+00
         21   -1    0    0  503  502  0.00000000000E+00  0.00000000000E+00  0.26675798568E+02  0.26675798568E+02  0.00000000000E+00 0.  1.
         21   -1    0    0  504  503 -0.00000000000E+00 -0.00000000000E+00 -0.34168917670E+03  0.34168917670E+03  0.00000000000E+00 0.  1.
         25    2    1    2    0    0 -0.18416192251E+02  0.87638670265E+01 -0.12738380409E+03  0.17963019162E+03  0.12499764276E+03 0.  0.
          5    1    3    3  501    0  0.24263946378E+02  0.56527252013E+02 -0.74135705447E+02  0.96333701975E+02  0.10000000000E+00 0.  1.
         -5    1    3    3    0  501 -0.42680138628E+02 -0.47763384987E+02 -0.53248098643E+02  0.83296489649E+02  0.10000000000E+00 0.  1.
         21    1    1    2  504  502  0.18416192251E+02 -0.87638670265E+01 -0.18762957404E+03  0.18873478365E+03  0.00000000000E+00 0.  1.
<mgrwt>
<rscale>  1 0.12665059E+03</rscale>
<asrwt>0</asrwt>
<pdfrwt beam="1">  1       21 0.41039690E-02 0.12665059E+03</pdfrwt>
<pdfrwt beam="2">  1       21 0.52567566E-01 0.12665059E+03</pdfrwt>
<totfact> 0.12875043E+06</totfact>
</mgrwt>
</event>
<event>
 6    1  0.4271609E-002  0.1304160E+03  0.7546771E-02  0.1226840E+00
         21   -1    0    0  504  502  0.00000000000E+00  0.00000000000E+00  0.11248032028E+04  0.11248032028E+04  0.00000000000E+00 0. -1.
         21   -1    0    0  502  503 -0.00000000000E+00 -0.00000000000E+00 -0.13755732757E+02  0.13755732757E+02  0.00000000000E+00 0. -1.
         25    2    1    2    0    0  0.27102347602E+02 -0.25504277062E+02  0.10857612031E+04  0.10935655950E+04  0.12499326059E+03 0.  0.
          5    1    3    3  501    0  0.72081970267E+02  0.83761711740E+01  0.52670954358E+03  0.53168498566E+03  0.10000000000E+00 0. -1.
         -5    1    3    3    0  501 -0.44979622665E+02 -0.33880448237E+02  0.55905165949E+03  0.56188060938E+03  0.10000000000E+00 0. -1.
         21    1    1    2  504  503 -0.27102347602E+02  0.25504277062E+02  0.25286267014E+02  0.44993340547E+02  0.00000000000E+00 0. -1.
<mgrwt>
<rscale>  1 0.13041595E+03</rscale>
<asrwt>0</asrwt>
<pdfrwt beam="1">  1       21 0.17304657E+00 0.13041595E+03</pdfrwt>
<pdfrwt beam="2">  1       21 0.21162675E-02 0.13041595E+03</pdfrwt>
<totfact> 0.23423736E+05</totfact>
</mgrwt>
</event>
<event>
 6    1  0.4271609E-002  0.1441269E+03  0.7546771E-02  0.1207881E+00
         21   -1    0    0  504  502  0.00000000000E+00  0.00000000000E+00  0.30706335334E+02  0.30706335334E+02  0.00000000000E+00 0.  1.
         21   -1    0    0  502  503 -0.00000000000E+00 -0.00000000000E+00 -0.38277403565E+03  0.38277403565E+03  0.00000000000E+00 0.  1.
         25    2    1    2    0    0 -0.22039497339E+02 -0.68269788303E+02 -0.25287808462E+03  0.29106679617E+03  0.12500420278E+03 0.  0.
          5    1    3    3  501    0  0.39064785564E+02 -0.70422246827E+02 -0.16965183131E+03  0.18779537850E+03  0.10000000000E+00 0.  1.
         -5    1    3    3    0  501 -0.61104282903E+02  0.21524585238E+01 -0.83226253312E+02  0.10327141767E+03  0.10000000000E+00 0.  1.
         21    1    1    2  504  503  0.22039497339E+02  0.68269788303E+02 -0.99189615696E+02  0.12241357482E+03  0.00000000000E+00 0.  1.
<mgrwt>
<rscale>  1 0.14412687E+03</rscale>
<asrwt>0</asrwt>
<pdfrwt beam="1">  1       21 0.47240517E-02 0.14412687E+03</pdfrwt>
<pdfrwt beam="2">  1       21 0.58888312E-01 0.14412687E+03</pdfrwt>
<totfact> 0.80224216E+05</totfact>
</mgrwt>
</event>
<event>
 6    1  0.4271609E-002  0.1268991E+03  0.7546771E-02  0.1232131E+00
         21   -1    0    0  504  502  0.00000000000E+00  0.00000000000E+00  0.10111443319E+03  0.10111443319E+03  0.00000000000E+00 0. -1.
         21   -1    0    0  502  503 -0.00000000000E+00 -0.00000000000E+00 -0.74481969288E+02  0.74481969288E+02  0.00000000000E+00 0. -1.
         25    2    1    2    0    0 -0.21300889571E+02 -0.49927384896E+01  0.56222896761E+02  0.13879627950E+03  0.12499895099E+03 0.  0.
          5    1    3    3  501    0  0.48450726134E+01 -0.47869025389E+02  0.71610014083E+02  0.86272373546E+02  0.10000000000E+00 0. -1.
         -5    1    3    3    0  501 -0.26145962185E+02  0.42876286899E+02 -0.15387117321E+02  0.52523905951E+02  0.10000000000E+00 0. -1.
         21    1    1    2  504  503  0.21300889571E+02  0.49927384896E+01 -0.29590432863E+02  0.36800122978E+02  0.00000000000E+00 0. -1.
<mgrwt>
<rscale>  1 0.12689915E+03</rscale>
<asrwt>0</asrwt>
<pdfrwt beam="1">  1       21 0.15556067E-01 0.12689915E+03</pdfrwt>
<pdfrwt beam="2">  1       21 0.11458764E-01 0.12689915E+03</pdfrwt>
<totfact> 0.23204448E+06</totfact>
</mgrwt>
</event>
<event>
 6    1  0.4271609E-002  0.1348970E+03  0.7546771E-02  0.1220365E+00
         21   -1    0    0  503  502  0.00000000000E+00  0.00000000000E+00  0.47314568244E+02  0.47314568244E+02  0.00000000000E+00 0. -1.
         21   -1    0    0  504  503 -0.00000000000E+00 -0.00000000000E+00 -0.22349743203E+03  0.22349743203E+03  0.00000000000E+00 0.  1.
         25    2    1    2    0    0 -0.16322680204E+02  0.48021197011E+02 -0.67425022859E+02  0.15080894525E+03  0.12499895603E+03 0.  0.
          5    1    3    3  501    0  0.48142426103E+02 -0.62458284337E+01 -0.37660274135E+02  0.61441108485E+02  0.10000000000E+00 0. -1.
         -5    1    3    3    0  501 -0.64465106307E+02  0.54267025444E+02 -0.29764748724E+02  0.89367836767E+02  0.10000000000E+00 0. -1.
         21    1    1    2  504  502  0.16322680204E+02 -0.48021197011E+02 -0.10875784093E+03  0.12000305502E+03  0.00000000000E+00 0.  1.
<mgrwt>
<rscale>  1 0.13489701E+03</rscale>
<asrwt>0</asrwt>
<pdfrwt beam="1">  1       21 0.72791644E-02 0.13489701E+03</pdfrwt>
<pdfrwt beam="2">  1       21 0.34384220E-01 0.13489701E+03</pdfrwt>
<totfact> 0.11529875E+06</totfact>
</mgrwt>
</event>
<event>
 6    1  0.4271609E-002  0.1262251E+03  0.7546771E-02  0.1233167E+00
         21   -1    0    0  503  502  0.00000000000E+00  0.00000000000E+00  0.28370231663E+03  0.28370231663E+03  0.00000000000E+00 0.  1.
         21   -1    0    0  504  503 -0.00000000000E+00 -0.00000000000E+00 -0.36329714688E+02  0.36329714688E+02  0.00000000000E+00 0.  1.
         25    2    1    2    0    0  0.10282403423E+02 -0.14222029904E+02  0.26600612000E+03  0.29443511842E+03  0.12499915650E+03 0.  0.
          5    1    3    3  501    0 -0.20159025504E+02  0.14719023579E+02  0.24712652095E+03  0.24838390310E+03  0.10000000000E+00 0.  1.
         -5    1    3    3    0  501  0.30441428927E+02 -0.28941053483E+02  0.18879599051E+02  0.46051215317E+02  0.10000000000E+00 0.  1.
         21    1    1    2  504  502 -0.10282403423E+02  0.14222029904E+02 -0.18633518058E+02  0.25596912899E+02  0.00000000000E+00 0.  1.
<mgrwt>
<rscale>  1 0.12622513E+03</rscale>
<asrwt>0</asrwt>
<pdfrwt beam="1">  1       21 0.43646509E-01 0.12622513E+03</pdfrwt>
<pdfrwt beam="2">  1       21 0.55891871E-02 0.12622513E+03</pdfrwt>
<totfact> 0.11233755E+06</totfact>
</mgrwt>
</event>
<event>
 6    1  0.4271609E-002  0.1260932E+03  0.7546771E-02  0.1233371E+00
         21   -1    0    0  504  502  0.00000000000E+00  0.00000000000E+00  0.12454618484E+04  0.12454618484E+04  0.00000000000E+00 0. -1.
         21   -1    0    0  502  503 -0.00000000000E+00 -0.00000000000E+00 -0.41584085858E+01  0.41584085858E+01  0.00000000000E+00 0. -1.
         25    2    1    2    0    0 -0.96266575186E-01 -0.16556740793E+02  0.11427579364E+04  0.11496935279E+04  0.12500148827E+03 0.  0.
          5    1    3    3  501    0 -0.46766545262E+02  0.82346660592E+01  0.89991607837E+03  0.90116806290E+03  0.10000000000E+00 0. -1.
         -5    1    3    3    0  501  0.46670278687E+02 -0.24791406852E+02  0.24284185803E+03  0.24852546505E+03  0.10000000000E+00 0. -1.
         21    1    1    2  504  503  0.96266575186E-01  0.16556740793E+02  0.98545503411E+02  0.99926729034E+02  0.00000000000E+00 0. -1.
<mgrwt>
<rscale>  1 0.12609325E+03</rscale>
<asrwt>0</asrwt>
<pdfrwt beam="1">  1       21 0.19160922E+00 0.12609325E+03</pdfrwt>
<pdfrwt beam="2">  1       21 0.63975616E-03 0.12609325E+03</pdfrwt>
<totfact> 0.11758721E+06</totfact>
</mgrwt>
</event>
<event>
 6    1  0.4271609E-002  0.1630376E+03  0.7546771E-02  0.1185309E+00
         21   -1    0    0  504  502  0.00000000000E+00  0.00000000000E+00  0.36337040406E+03  0.36337040406E+03  0.00000000000E+00 0.  1.
         21   -1    0    0  502  503 -0.00000000000E+00 -0.00000000000E+00 -0.94063935956E+02  0.94063935956E+02  0.00000000000E+00 0.  1.
         25    2    1    2    0    0  0.10154016050E+03 -0.25415762501E+02  0.30582916022E+03  0.34657283986E+03  0.12499957163E+03 0.  0.
          5    1    3    3  501    0  0.10904601136E+03 -0.16122481437E+02  0.31354101356E+03  0.33235364326E+03  0.10000000000E+00 0.  1.
         -5    1    3    3    0  501 -0.75058508598E+01 -0.92932810642E+01 -0.77118533402E+01  0.14219196602E+02  0.10000000000E+00 0.  1.
         21    1    1    2  504  503 -0.10154016050E+03  0.25415762501E+02 -0.36522692115E+02  0.11086150016E+03  0.00000000000E+00 0.  1.
<mgrwt>
<rscale>  1 0.16303760E+03</rscale>
<asrwt>0</asrwt>
<pdfrwt beam="1">  1       21 0.55903138E-01 0.16303760E+03</pdfrwt>
<pdfrwt beam="2">  1       21 0.14471375E-01 0.16303760E+03</pdfrwt>
<totfact> 0.12754367E+05</totfact>
</mgrwt>
</event>
<event>
 6    1  0.4271609E-002  0.1614773E+03  0.7546771E-02  0.1187039E+00
         21   -1    0    0  504  502  0.00000000000E+00  0.00000000000E+00  0.65859505602E+02  0.65859505602E+02  0.00000000000E+00 0.  1.
         21   -1    0    0  502  503 -0.00000000000E+00 -0.00000000000E+00 -0.43793540837E+03  0.43793540837E+03  0.00000000000E+00 0.  1.
         25    2    1    2    0    0 -0.23393146957E+01 -0.10219346366E+03 -0.54901211309E+02  0.17055511847E+03  0.12500371604E+03 0.  0.
          5    1    3    3  501    0 -0.18139664778E+02 -0.12667557022E+03 -0.59382062996E+02  0.14107440212E+03  0.10000000000E+00 0. -1.
         -5    1    3    3    0  501  0.15800350083E+02  0.24482106561E+02  0.44808516872E+01  0.29480716346E+02  0.10000000000E+00 0. -1.
         21    1    1    2  504  503  0.23393146957E+01  0.10219346366E+03 -0.31717469146E+03  0.33323979551E+03  0.00000000000E+00 0.  1.
<mgrwt>
<rscale>  1 0.16147726E+03</rscale>
<asrwt>0</asrwt>
<pdfrwt beam="1">  1       21 0.10132232E-01 0.16147726E+03</pdfrwt>
<pdfrwt beam="2">  1       21 0.67374676E-01 0.16147726E+03</pdfrwt>
<totfact> 0.16147194E+05</totfact>
</mgrwt>
</event>
<event>
 6    1  0.4271609E-002  0.1278803E+03  0.7546771E-02  0.1230635E+00
         21   -1    0    0  504  502  0.00000000000E+00  0.00000000000E+00  0.49416818559E+03  0.49416818559E+03  0.00000000000E+00 0.  1.
         21   -1    0    0  502  503 -0.00000000000E+00 -0.00000000000E+00 -0.98769113224E+02  0.98769113224E+02  0.00000000000E+00 0. -1.
         25    2    1    2    0    0 -0.14502058189E+02  0.22745902815E+02  0.48385017812E+03  0.50046414652E+03  0.12500272516E+03 0.  0.
          5    1    3    3  501    0 -0.47231058666E+01 -0.25187990706E+02  0.41614843733E+03  0.41693677518E+03  0.10000000000E+00 0.  1.
         -5    1    3    3    0  501 -0.97789523226E+01  0.47933893521E+02  0.67701740783E+02  0.83527371333E+02  0.10000000000E+00 0.  1.
         21    1    1    2  504  503  0.14502058189E+02 -0.22745902815E+02 -0.88451105753E+02  0.92473152296E+02  0.00000000000E+00 0. -1.
<mgrwt>
<rscale>  1 0.12788028E+03</rscale>
<asrwt>0</asrwt>
<pdfrwt beam="1">  1       21 0.76025873E-01 0.12788028E+03</pdfrwt>
<pdfrwt beam="2">  1       21 0.15195248E-01 0.12788028E+03</pdfrwt>
<totfact> 0.60968428E+04</totfact>
</mgrwt>
</event>
<event>
 6    1  0.4271609E-002  0.1306934E+03  0.7546771E-02  0.1226430E+00
         21   -1    0    0  504  502  0.00000000000E+00  0.00000000000E+00  0.11269618666E+03  0.11269618666E+03  0.00000000000E+00 0. -1.
         21   -1    0    0  502  503 -0.00000000000E+00 -0.00000000000E+00 -0.71192355083E+03  0.71192355083E+03  0.00000000000E+00 0. -1.
         25    2    1    2    0    0 -0.11827029080E+02 -0.36233652631E+02  0.74083917704E+02  0.15023050381E+03  0.12501208427E+03 0.  0.
          5    1    3    3  501    0  0.32536897647E+02 -0.23992401694E+02  0.92276341598E+02  0.10074332864E+03  0.10000000000E+00 0.  1.
         -5    1    3    3    0  501 -0.44363926728E+02 -0.12241250937E+02 -0.18192423893E+02  0.49487175170E+02  0.10000000000E+00 0.  1.
         21    1    1    2  504  503  0.11827029080E+02  0.36233652631E+02 -0.67331128188E+03  0.67438923368E+03  0.00000000000E+00 0. -1.
<mgrwt>
<rscale>  1 0.13069345E+03</rscale>
<asrwt>0</asrwt>
<pdfrwt beam="1">  1       21 0.17337875E-01 0.13069345E+03</pdfrwt>
<pdfrwt beam="2">  1       21 0.10952670E+00 0.13069345E+03</pdfrwt>
<totfact> 0.20708425E+04</totfact>
</mgrwt>
</event>
<event>
 6    1  0.4271609E-002  0.1269452E+03  0.7546771E-02  0.1232060E+00
         21   -1    0    0  504  502  0.00000000000E+00  0.00000000000E+00  0.41158149065E+03  0.41158149065E+03  0.00000000000E+00 0.  1.
         21   -1    0    0  502  503 -0.00000000000E+00 -0.00000000000E+00 -0.18043122945E+02  0.18043122945E+02  0.00000000000E+00 0.  1.
         25    2    1    2    0    0 -0.22146036302E+02 -0.25942285519E+00  0.38582489177E+03  0.40617228034E+03  0.12499823991E+03 0.  0.
          5    1    3    3  501    0  0.18161863810E+02 -0.12448670773E+02  0.35054563640E+03  0.35123649568E+03  0.10000000000E+00 0. -1.
         -5    1    3    3    0  501 -0.40307900112E+02  0.12189247917E+02  0.35279255376E+02  0.54935784659E+02  0.10000000000E+00 0. -1.
         21    1    1    2  504  503  0.22146036302E+02  0.25942285519E+00  0.77134759299E+01  0.23452333253E+02  0.00000000000E+00 0.  1.
<mgrwt>
<rscale>  1 0.12694516E+03</rscale>
<asrwt>0</asrwt>
<pdfrwt beam="1">  1       21 0.63320222E-01 0.12694516E+03</pdfrwt>
<pdfrwt beam="2">  1       21 0.27758654E-02 0.12694516E+03</pdfrwt>
<totfact> 0.16562245E+06</totfact>
</mgrwt>
</event>
<event>
 6    1  0.4271609E-002  0.1274456E+03  0.7546771E-02  0.1231296E+00
         21   -1    0    0  503  502  0.00000000000E+00  0.00000000000E+00  0.56094542231E+02  0.56094542231E+02  0.00000000000E+00 0. -1.
         21   -1    0    0  504  503 -0.00000000000E+00 -0.00000000000E+00 -0.15813901272E+03  0.15813901272E+03  0.00000000000E+00 0. -1.
         25    2    1    2    0    0 -0.18215632345E+02 -0.16917774431E+02 -0.20625482457E+02  0.12910381887E+03  0.12499746064E+03 0.  0.
          5    1    3    3  501    0  0.21812075002E+02 -0.14471951326E+02  0.45078945341E+02  0.52127970459E+02  0.10000000000E+00 0. -1.
         -5    1    3    3    0  501 -0.40027707347E+02 -0.24458231044E+01 -0.65704427798E+02  0.76975848409E+02  0.10000000000E+00 0. -1.
         21    1    1    2  504  502  0.18215632345E+02  0.16917774431E+02 -0.81418988031E+02  0.85129736082E+02  0.00000000000E+00 0. -1.
<mgrwt>
<rscale>  1 0.12744562E+03</rscale>
<asrwt>0</asrwt>
<pdfrwt beam="1">  1       21 0.86299297E-02 0.12744562E+03</pdfrwt>
<pdfrwt beam="2">  1       21 0.24329079E-01 0.12744562E+03</pdfrwt>
<totfact> 0.16700578E+06</totfact>
</mgrwt>
</event>
<event>
 6    1  0.4271609E-002  0.1302749E+03  0.7546771E-02  0.1227048E+00
         21   -1    0    0  504  502  0.00000000000E+00  0.00000000000E+00  0.58271234517E+03  0.58271234517E+03  0.00000000000E+00 0. -1.
         21   -1    0    0  502  503 -0.00000000000E+00 -0.00000000000E+00 -0.54810712355E+02  0.54810712355E+02  0.00000000000E+00 0. -1.
         25    2    1    2    0    0  0.35966541515E+02 -0.73360195327E+01  0.56824059325E+03  0.58298278781E+03  0.12499659907E+03 0.  0.
          5    1    3    3  501    0  0.69948888942E+02 -0.24808061493E+02  0.49341124988E+03  0.49896188080E+03  0.10000000000E+00 0.  1.
         -5    1    3    3    0  501 -0.33982347427E+02  0.17472041960E+02  0.74829343367E+02  0.84020907015E+02  0.10000000000E+00 0.  1.
         21    1    1    2  504  503 -0.35966541515E+02  0.73360195327E+01 -0.40338960435E+02  0.54540269711E+02  0.00000000000E+00 0. -1.
<mgrwt>
<rscale>  1 0.13027494E+03</rscale>
<asrwt>0</asrwt>
<pdfrwt beam="1">  1       21 0.89648049E-01 0.13027494E+03</pdfrwt>
<pdfrwt beam="2">  1       21 0.84324177E-02 0.13027494E+03</pdfrwt>
<totfact> 0.11890438E+05</totfact>
</mgrwt>
</event>
<event>
 6    1  0.4271609E-002  0.1446935E+03  0.7546771E-02  0.1207150E+00
         21   -1    0    0  503  502  0.00000000000E+00  0.00000000000E+00  0.70902326966E+02  0.70902326966E+02  0.00000000000E+00 0.  1.
         21   -1    0    0  504  503 -0.00000000000E+00 -0.00000000000E+00 -0.56370350901E+03  0.56370350901E+03  0.00000000000E+00 0.  1.
         25    2    1    2    0    0  0.39741258724E+02 -0.61090758012E+02 -0.85980479402E+01  0.14494868711E+03  0.12499898843E+03 0.  0.
          5    1    3    3  501    0 -0.32367022177E+02 -0.59566028862E+02  0.14286044870E+02  0.69280855920E+02  0.10000000000E+00 0. -1.
         -5    1    3    3    0  501  0.72108280901E+02 -0.15247291500E+01 -0.22884092810E+02  0.75667831191E+02  0.10000000000E+00 0. -1.
         21    1    1    2  504  502 -0.39741258724E+02  0.61090758012E+02 -0.48420313410E+03  0.48965714886E+03  0.00000000000E+00 0.  1.
<mgrwt>
<rscale>  1 0.14469345E+03</rscale>
<asrwt>0</asrwt>
<pdfrwt beam="1">  1       21 0.10908050E-01 0.14469345E+03</pdfrwt>
<pdfrwt beam="2">  1       21 0.86723618E-01 0.14469345E+03</pdfrwt>
<totfact> 0.81295801E+04</totfact>
</mgrwt>
</event>
<event>
 6    1  0.4271609E-002  0.1267331E+03  0.7546771E-02  0.1232385E+00
         21   -1    0    0  504  502  0.00000000000E+00  0.00000000000E+00  0.75000239834E+02  0.75000239834E+02  0.00000000000E+00 0. -1.
         21   -1    0    0  502  503 -0.00000000000E+00 -0.00000000000E+00 -0.13219692310E+03  0.13219692310E+03  0.00000000000E+00 0. -1.
         25    2    1    2    0    0 -0.19593085529E+02 -0.72587693302E+01  0.19034240308E+02  0.12815456403E+03  0.12499884497E+03 0.  0.
          5    1    3    3  501    0 -0.48906414005E+02  0.45086685726E+02  0.62316243954E+01  0.66809353412E+02  0.10000000000E+00 0. -1.
         -5    1    3    3    0  501  0.29313328476E+02 -0.52345455057E+02  0.12802615912E+02  0.61345210617E+02  0.10000000000E+00 0. -1.
         21    1    1    2  504  503  0.19593085529E+02  0.72587693302E+01 -0.76230923569E+02  0.79042598901E+02  0.00000000000E+00 0. -1.
<mgrwt>
<rscale>  1 0.12673314E+03</rscale>
<asrwt>0</asrwt>
<pdfrwt beam="1">  1       21 0.11538499E-01 0.12673314E+03</pdfrwt>
<pdfrwt beam="2">  1       21 0.20337988E-01 0.12673314E+03</pdfrwt>
<totfact> 0.14041412E+06</totfact>
</mgrwt>
</event>
<event>
 6    1  0.4271609E-002  0.1259537E+03  0.7546771E-02  0.1233586E+00
         21   -1    0    0  504  502  0.00000000000E+00  0.00000000000E+00  0.73502277703E+02  0.73502277703E+02  0.00000000000E+00 0. -1.
         21   -1    0    0  502  503 -0.00000000000E+00 -0.00000000000E+00 -0.29045956732E+03  0.29045956732E+03  0.00000000000E+00 0. -1.
         25    2    1    2    0    0 -0.10522258737E+02 -0.11286755504E+02  0.19106188942E+02  0.12739457195E+03  0.12500488682E+03 0.  0.
          5    1    3    3  501    0 -0.49364429552E+02  0.11724121507E+02  0.51138978020E+02  0.72038232925E+02  0.10000000000E+00 0.  1.
         -5    1    3    3    0  501  0.38842170815E+02 -0.23010877011E+02 -0.32032789077E+02  0.55356339027E+02  0.10000000000E+00 0.  1.
         21    1    1    2  504  503  0.10522258737E+02  0.11286755504E+02 -0.23606347856E+03  0.23656727307E+03  0.00000000000E+00 0. -1.
<mgrwt>
<rscale>  1 0.12595368E+03</rscale>
<asrwt>0</asrwt>
<pdfrwt beam="1">  1       21 0.11308043E-01 0.12595368E+03</pdfrwt>
<pdfrwt beam="2">  1       21 0.44686087E-01 0.12595368E+03</pdfrwt>
<totfact> 0.31792597E+05</totfact>
</mgrwt>
</event>
<event>
 6    1  0.4271609E-002  0.1331673E+03  0.7546771E-02  0.1222830E+00
         21   -1    0    0  503  502  0.00000000000E+00  0.00000000000E+00  0.27750866386E+03  0.27750866386E+03  0.00000000000E+00 0. -1.
         21   -1    0    0  504  503 -0.00000000000E+00 -0.00000000000E+00 -0.76187298544E+02  0.76187298544E+02  0.00000000000E+00 0. -1.
         25    2    1    2    0    0  0.15755979269E+02  0.43184813839E+02  0.25215532220E+03  0.28515932838E+03  0.12498142670E+03 0.  0.
          5    1    3    3  501    0  0.30874993137E+02  0.77048719273E+02  0.22311958180E+03  0.23805908537E+03  0.10000000000E+00 0. -1.
         -5    1    3    3    0  501 -0.15119013868E+02 -0.33863905433E+02  0.29035740403E+02  0.47100243017E+02  0.10000000000E+00 0. -1.
         21    1    1    2  504  502 -0.15755979269E+02 -0.43184813839E+02 -0.50833956891E+02  0.68536634016E+02  0.00000000000E+00 0. -1.
<mgrwt>
<rscale>  1 0.13316732E+03</rscale>
<asrwt>0</asrwt>
<pdfrwt beam="1">  1       21 0.42693640E-01 0.13316732E+03</pdfrwt>
<pdfrwt beam="2">  1       21 0.11721123E-01 0.13316732E+03</pdfrwt>
<totfact> 0.32687187E+05</totfact>
</mgrwt>
</event>
<event>
 6    1  0.4271609E-002  0.1323749E+03  0.7546771E-02  0.1223974E+00
         21   -1    0    0  504  502  0.00000000000E+00  0.00000000000E+00  0.18052670053E+02  0.18052670053E+02  0.00000000000E+00 0.  1.
         21   -1    0    0  502  503 -0.00000000000E+00 -0.00000000000E+00 -0.57863314176E+03  0.57863314176E+03  0.00000000000E+00 0.  1.
         25    2    1    2    0    0 -0.42668278322E+02 -0.86287370156E+01 -0.24826810380E+03  0.28135415748E+03  0.12501229335E+03 0.  0.
          5    1    3    3  501    0  0.40835951712E+02 -0.22098523922E+02 -0.69470427025E+02  0.83558781363E+02  0.10000000000E+00 0.  1.
         -5    1    3    3    0  501 -0.83504230034E+02  0.13469786907E+02 -0.17879767678E+03  0.19779537612E+03  0.10000000000E+00 0.  1.
         21    1    1    2  504  503  0.42668278322E+02  0.86287370156E+01 -0.31231236790E+03  0.31533165433E+03  0.00000000000E+00 0.  1.
<mgrwt>
<rscale>  1 0.13237489E+03</rscale>
<asrwt>0</asrwt>
<pdfrwt beam="1">  1       21 0.27773337E-02 0.13237489E+03</pdfrwt>
<pdfrwt beam="2">  1       21 0.89020488E-01 0.13237489E+03</pdfrwt>
<totfact> 0.77969869E+05</totfact>
</mgrwt>
</event>
<event>
 6    1  0.4271609E-002  0.1284812E+03  0.7546771E-02  0.1229727E+00
         21   -1    0    0  503  502  0.00000000000E+00  0.00000000000E+00  0.29613216887E+03  0.29613216887E+03  0.00000000000E+00 0.  1.
         21   -1    0    0  504  503 -0.00000000000E+00 -0.00000000000E+00 -0.24379482191E+02  0.24379482191E+02  0.00000000000E+00 0.  1.
         25    2    1    2    0    0  0.44179636887E+01  0.29381093449E+02  0.25702868694E+03  0.28735198846E+03  0.12499860922E+03 0.  0.
          5    1    3    3  501    0 -0.30331000641E+02 -0.14868758529E+02  0.11845756851E+02  0.35796389978E+02  0.10000000000E+00 0.  1.
         -5    1    3    3    0  501  0.34748964330E+02  0.44249851978E+02  0.24518293008E+03  0.25155559848E+03  0.10000000000E+00 0.  1.
         21    1    1    2  504  502 -0.44179636887E+01 -0.29381093449E+02  0.14723999741E+02  0.33159662601E+02  0.00000000000E+00 0.  1.
<mgrwt>
<rscale>  1 0.12848120E+03</rscale>
<asrwt>0</asrwt>
<pdfrwt beam="1">  1       21 0.45558793E-01 0.12848120E+03</pdfrwt>
<pdfrwt beam="2">  1       21 0.37506898E-02 0.12848120E+03</pdfrwt>
<totfact> 0.20067751E+06</totfact>
</mgrwt>
</event>
<event>
 6    1  0.4271609E-002  0.1302776E+03  0.7546771E-02  0.1227044E+00
         21   -1    0    0  503  502  0.00000000000E+00  0.00000000000E+00  0.39235323276E+03  0.39235323276E+03  0.00000000000E+00 0. -1.
         21   -1    0    0  504  503 -0.00000000000E+00 -0.00000000000E+00 -0.18608695811E+02  0.18608695811E+02  0.00000000000E+00 0. -1.
         25    2    1    2    0    0  0.19103035311E+02  0.31331477419E+02  0.32347251766E+03  0.34872156097E+03  0.12500267985E+03 0.  0.
          5    1    3    3  501    0  0.59272794775E+02  0.20406696925E+02  0.79595438602E+02  0.10131703374E+03  0.10000000000E+00 0. -1.
         -5    1    3    3    0  501 -0.40169759464E+02  0.10924780493E+02  0.24387707906E+03  0.24740452723E+03  0.10000000000E+00 0. -1.
         21    1    1    2  504  502 -0.19103035311E+02 -0.31331477419E+02  0.50272019285E+02  0.62240367594E+02  0.00000000000E+00 0.  1.
<mgrwt>
<rscale>  1 0.13027762E+03</rscale>
<asrwt>0</asrwt>
<pdfrwt beam="1">  1       21 0.60362030E-01 0.13027762E+03</pdfrwt>
<pdfrwt beam="2">  1       21 0.28628766E-02 0.13027762E+03</pdfrwt>
<totfact> 0.17448072E+06</totfact>
</mgrwt>
</event>
<event>
 6    1  0.4271609E-002  0.1269693E+03  0.7546771E-02  0.1232023E+00
         21   -1    0    0  503  502  0.00000000000E+00  0.00000000000E+00  0.57581225414E+03  0.57581225414E+03  0.00000000000E+00 0. -1.
         21   -1    0    0  504  503 -0.00000000000E+00 -0.00000000000E+00 -0.31105622604E+02  0.31105622604E+02  0.00000000000E+00 0. -1.
         25    2    1    2    0    0 -0.21571351301E+02 -0.61791195763E+01  0.56351303633E+03  0.57764014498E+03  0.12497075766E+03 0.  0.
          5    1    3    3  501    0 -0.43635158552E+02 -0.47571018988E+02  0.45312530398E+03  0.45770031681E+03  0.10000000000E+00 0. -1.
         -5    1    3    3    0  501  0.22063807251E+02  0.41391899411E+02  0.11038773235E+03  0.11993982817E+03  0.10000000000E+00 0. -1.
         21    1    1    2  504  502  0.21571351301E+02  0.61791195763E+01 -0.18806404794E+02  0.29277731759E+02  0.00000000000E+00 0. -1.
<mgrwt>
<rscale>  1 0.12696927E+03</rscale>
<asrwt>0</asrwt>
<pdfrwt beam="1">  1       21 0.88586493E-01 0.12696927E+03</pdfrwt>
<pdfrwt beam="2">  1       21 0.47854808E-02 0.12696927E+03</pdfrwt>
<totfact> 0.32067565E+05</totfact>
</mgrwt>
</event>
<event>
 6    1  0.4271609E-002  0.1270730E+03  0.7546771E-02  0.1231865E+00
         21   -1    0    0  503  502  0.00000000000E+00  0.00000000000E+00  0.10677301607E+03  0.10677301607E+03  0.00000000000E+00 0.  1.
         21   -1    0    0  504  503 -0.00000000000E+00 -0.00000000000E+00 -0.53955982313E+02  0.53955982313E+02  0.00000000000E+00 0.  1.
         25    2    1    2    0    0  0.18190466432E+02 -0.13919577273E+02  0.53349294252E+02  0.13781762563E+03  0.12499161186E+03 0.  0.
          5    1    3    3  501    0  0.40159933109E+02 -0.43509720194E+02 -0.14180937018E+02  0.60885342681E+02  0.10000000000E+00 0.  1.
         -5    1    3    3    0  501 -0.21969466677E+02  0.29590142922E+02  0.67530231270E+02  0.76932282948E+02  0.10000000000E+00 0.  1.
         21    1    1    2  504  502 -0.18190466432E+02  0.13919577273E+02 -0.53226049089E+00  0.22911372759E+02  0.00000000000E+00 0.  1.
<mgrwt>
<rscale>  1 0.12707301E+03</rscale>
<asrwt>0</asrwt>
<pdfrwt beam="1">  1       21 0.16426618E-01 0.12707301E+03</pdfrwt>
<pdfrwt beam="2">  1       21 0.83009204E-02 0.12707301E+03</pdfrwt>
<totfact> 0.36914480E+06</totfact>
</mgrwt>
</event>
<event>
 6    1  0.4271609E-002  0.1516797E+03  0.7546771E-02  0.1198424E+00
         21   -1    0    0  504  502  0.00000000000E+00  0.00000000000E+00  0.31036840294E+02  0.31036840294E+02  0.00000000000E+00 0.  1.
         21   -1    0    0  502  503 -0.00000000000E+00 -0.00000000000E+00 -0.66533964635E+03  0.66533964635E+03  0.00000000000E+00 0.  1.
         25    2    1    2    0    0  0.13298812527E+02 -0.84891731407E+02 -0.56782881163E+03  0.58773829626E+03  0.12499312418E+03 0.  0.
          5    1    3    3  501    0 -0.40402362313E+02 -0.88874815922E+02 -0.35117410475E+03  0.36449190064E+03  0.10000000000E+00 0. -1.
         -5    1    3    3    0  501  0.53701174839E+02  0.39830845152E+01 -0.21665470688E+03  0.22324639562E+03  0.10000000000E+00 0. -1.
         21    1    1    2  504  503 -0.13298812527E+02  0.84891731407E+02 -0.66473994426E+02  0.10863819039E+03  0.00000000000E+00 0.  1.
<mgrwt>
<rscale>  1 0.15167975E+03</rscale>
<asrwt>0</asrwt>
<pdfrwt beam="1">  1       21 0.47748985E-02 0.15167975E+03</pdfrwt>
<pdfrwt beam="2">  1       21 0.10235995E+00 0.15167975E+03</pdfrwt>
<totfact> 0.22874531E+05</totfact>
</mgrwt>
</event>
<event>
 6    1  0.4271609E-002  0.2180456E+03  0.7546771E-02  0.1135349E+00
         21   -1    0    0  504  502  0.00000000000E+00  0.00000000000E+00  0.13218225041E+03  0.13218225041E+03  0.00000000000E+00 0. -1.
         21   -1    0    0  502  503 -0.00000000000E+00 -0.00000000000E+00 -0.30797448918E+03  0.30797448918E+03  0.00000000000E+00 0. -1.
         25    2    1    2    0    0 -0.16819553776E+03 -0.60245526438E+02 -0.56222978397E+02  0.22517750709E+03  0.12499849608E+03 0.  0.
          5    1    3    3  501    0 -0.17836331371E+03 -0.57499450498E+02 -0.21191338532E+02  0.18859676909E+03  0.10000000000E+00 0. -1.
         -5    1    3    3    0  501  0.10167775946E+02 -0.27460759400E+01 -0.35031639865E+02  0.36580737997E+02  0.10000000000E+00 0. -1.
         21    1    1    2  504  503  0.16819553776E+03  0.60245526438E+02 -0.11956926037E+03  0.21497923250E+03  0.00000000000E+00 0. -1.
<mgrwt>
<rscale>  1 0.21804561E+03</rscale>
<asrwt>0</asrwt>
<pdfrwt beam="1">  1       21 0.20335731E-01 0.21804561E+03</pdfrwt>
<pdfrwt beam="2">  1       21 0.47380690E-01 0.21804561E+03</pdfrwt>
<totfact> 0.94374043E+04</totfact>
</mgrwt>
</event>
<event>
 6    1  0.4271609E-002  0.1264500E+03  0.7546771E-02  0.1232820E+00
         21   -1    0    0  503  502  0.00000000000E+00  0.00000000000E+00  0.93050867113E+01  0.93050867113E+01  0.00000000000E+00 0. -1.
         21   -1    0    0  504  503 -0.00000000000E+00 -0.00000000000E+00 -0.74356345118E+03  0.74356345118E+03  0.00000000000E+00 0. -1.
         25    2    1    2    0    0 -0.18909024982E+02  0.31663712587E+01 -0.43525260789E+03  0.45324874615E+03  0.12498806376E+03 0.  0.
          5    1    3    3  501    0 -0.10090912267E+02 -0.46323204284E+02 -0.35770601940E+03  0.36083413375E+03  0.10000000000E+00 0.  1.
         -5    1    3    3    0  501 -0.88181127148E+01  0.49489575542E+02 -0.77546588488E+02  0.92414612402E+02  0.10000000000E+00 0.  1.
         21    1    1    2  504  502  0.18909024982E+02 -0.31663712587E+01 -0.29900575658E+03  0.29961979173E+03  0.00000000000E+00 0. -1.
<mgrwt>
<rscale>  1 0.12644996E+03</rscale>
<asrwt>0</asrwt>
<pdfrwt beam="1">  1       21 0.14315518E-02 0.12644996E+03</pdfrwt>
<pdfrwt beam="2">  1       21 0.11439438E+00 0.12644996E+03</pdfrwt>
<totfact> 0.12618506E+06</totfact>
</mgrwt>
</event>
<event>
 6    1  0.4271609E-002  0.1449221E+03  0.7546771E-02  0.1206855E+00
         21   -1    0    0  504  502  0.00000000000E+00  0.00000000000E+00  0.59148428053E+02  0.59148428053E+02  0.00000000000E+00 0. -1.
         21   -1    0    0  502  503 -0.00000000000E+00 -0.00000000000E+00 -0.11860505408E+04  0.11860505408E+04  0.00000000000E+00 0. -1.
         25    2    1    2    0    0 -0.49365452772E+02 -0.54232835143E+02 -0.32730174627E+02  0.14857215060E+03  0.12499708504E+03 0.  0.
          5    1    3    3  501    0 -0.39075726421E+02  0.36520804010E+02 -0.94103554454E+01  0.54306963739E+02  0.10000000000E+00 0.  1.
         -5    1    3    3    0  501 -0.10289726351E+02 -0.90753639153E+02 -0.23319819182E+02  0.94265186865E+02  0.10000000000E+00 0.  1.
         21    1    1    2  504  503  0.49365452772E+02  0.54232835143E+02 -0.10941719381E+04  0.10966268183E+04  0.00000000000E+00 0. -1.
<mgrwt>
<rscale>  1 0.14492212E+03</rscale>
<asrwt>0</asrwt>
<pdfrwt beam="1">  1       21 0.90997584E-02 0.14492212E+03</pdfrwt>
<pdfrwt beam="2">  1       21 0.18246931E+00 0.14492212E+03</pdfrwt>
<totfact> 0.17431061E+04</totfact>
</mgrwt>
</event>
<event>
 6    1  0.4271609E-002  0.1272015E+03  0.7546771E-02  0.1231668E+00
         21   -1    0    0  503  502  0.00000000000E+00  0.00000000000E+00  0.17033801268E+03  0.17033801268E+03  0.00000000000E+00 0. -1.
         21   -1    0    0  504  503 -0.00000000000E+00 -0.00000000000E+00 -0.36540871504E+02  0.36540871504E+02  0.00000000000E+00 0. -1.
         25    2    1    2    0    0  0.23415704471E+02  0.30640437770E+01  0.13181363739E+03  0.18318040602E+03  0.12499016988E+03 0.  0.
          5    1    3    3  501    0  0.72314529766E+02 -0.16808250915E+02  0.72255798541E+02  0.10359931919E+03  0.10000000000E+00 0.  1.
         -5    1    3    3    0  501 -0.48898825296E+02  0.19872294692E+02  0.59557838853E+02  0.79581086826E+02  0.10000000000E+00 0.  1.
         21    1    1    2  504  502 -0.23415704471E+02 -0.30640437770E+01  0.19835037818E+01  0.23698478166E+02  0.00000000000E+00 0. -1.
<mgrwt>
<rscale>  1 0.12720152E+03</rscale>
<asrwt>0</asrwt>
<pdfrwt beam="1">  1       21 0.26205848E-01 0.12720152E+03</pdfrwt>
<pdfrwt beam="2">  1       21 0.56216726E-02 0.12720152E+03</pdfrwt>
<totfact> 0.30195498E+06</totfact>
</mgrwt>
</event>
<event>
 6    1  0.4271609E-002  0.1263267E+03  0.7546771E-02  0.1233010E+00
         21   -1    0    0  504  502  0.00000000000E+00  0.00000000000E+00  0.68690493779E+01  0.68690493779E+01  0.00000000000E+00 0.  1.
         21   -1    0    0  502  503 -0.00000000000E+00 -0.00000000000E+00 -0.78326125917E+03  0.78326125917E+03  0.00000000000E+00 0.  1.
         25    2    1    2    0    0  0.92157642878E+01 -0.15749376263E+02 -0.71536507964E+03  0.72643349718E+03  0.12500182195E+03 0.  0.
          5    1    3    3  501    0 -0.13220466656E+02 -0.56296480065E+02 -0.17987577196E+03  0.18894278961E+03  0.10000000000E+00 0.  1.
         -5    1    3    3    0  501  0.22436230943E+02  0.40547103802E+02 -0.53548930768E+03  0.53749070757E+03  0.10000000000E+00 0.  1.
         21    1    1    2  504  503 -0.92157642878E+01  0.15749376263E+02 -0.61027130149E+02  0.63696811367E+02  0.00000000000E+00 0. -1.
<mgrwt>
<rscale>  1 0.12632667E+03</rscale>
<asrwt>0</asrwt>
<pdfrwt beam="1">  1       21 0.10567769E-02 0.12632667E+03</pdfrwt>
<pdfrwt beam="2">  1       21 0.12050172E+00 0.12632667E+03</pdfrwt>
<totfact> 0.18003227E+06</totfact>
</mgrwt>
</event>
<event>
 6    1  0.4271609E-002  0.1407061E+03  0.7546771E-02  0.1212382E+00
         21   -1    0    0  504  502  0.00000000000E+00  0.00000000000E+00  0.10250545277E+03  0.10250545277E+03  0.00000000000E+00 0.  1.
         21   -1    0    0  502  503 -0.00000000000E+00 -0.00000000000E+00 -0.10436447786E+03  0.10436447786E+03  0.00000000000E+00 0.  1.
         25    2    1    2    0    0  0.26799237938E+02  0.58771699572E+02 -0.13066090955E+02  0.14131148229E+03  0.12500360182E+03 0.  0.
          5    1    3    3  501    0  0.48247899919E+02  0.27236307088E+02  0.45315673994E+02  0.71576508576E+02  0.10000000000E+00 0.  1.
         -5    1    3    3    0  501 -0.21448661981E+02  0.31535392484E+02 -0.58381764948E+02  0.69734973710E+02  0.10000000000E+00 0.  1.
         21    1    1    2  504  503 -0.26799237938E+02 -0.58771699572E+02  0.11207065868E+02  0.65558448350E+02  0.00000000000E+00 0.  1.
<mgrwt>
<rscale>  1 0.14070612E+03</rscale>
<asrwt>0</asrwt>
<pdfrwt beam="1">  1       21 0.15770070E-01 0.14070612E+03</pdfrwt>
<pdfrwt beam="2">  1       21 0.16056074E-01 0.14070612E+03</pdfrwt>
<totfact> 0.12402548E+06</totfact>
</mgrwt>
</event>
<event>
 6    1  0.4271609E-002  0.1283058E+03  0.7546771E-02  0.1229991E+00
         21   -1    0    0  503  502  0.00000000000E+00  0.00000000000E+00  0.61823781060E+01  0.61823781060E+01  0.00000000000E+00 0.  1.
         21   -1    0    0  504  503 -0.00000000000E+00 -0.00000000000E+00 -0.16284990427E+04  0.16284990427E+04  0.00000000000E+00 0.  1.
         25    2    1    2    0    0 -0.98884864399E+01 -0.27196632229E+02 -0.68467607017E+03  0.69659436553E+03  0.12499980021E+03 0.  0.
          5    1    3    3  501    0  0.23530352511E+02 -0.17841976830E+02 -0.63668991046E+03  0.63737435288E+03  0.10000000000E+00 0.  1.
         -5    1    3    3    0  501 -0.33418838951E+02 -0.93546553993E+01 -0.47986159712E+02  0.59220012651E+02  0.10000000000E+00 0.  1.
         21    1    1    2  504  502  0.98884864399E+01  0.27196632229E+02 -0.93764059442E+03  0.93808705528E+03  0.00000000000E+00 0.  1.
<mgrwt>
<rscale>  1 0.12830584E+03</rscale>
<asrwt>0</asrwt>
<pdfrwt beam="1">  1       21 0.95113557E-03 0.12830584E+03</pdfrwt>
<pdfrwt beam="2">  1       21 0.25053819E+00 0.12830584E+03</pdfrwt>
<totfact> 0.27930282E+05</totfact>
</mgrwt>
</event>
<event>
 6    1  0.4271609E-002  0.1262510E+03  0.7546771E-02  0.1233127E+00
         21   -1    0    0  504  502  0.00000000000E+00  0.00000000000E+00  0.28736996331E+02  0.28736996331E+02  0.00000000000E+00 0.  1.
         21   -1    0    0  502  503 -0.00000000000E+00 -0.00000000000E+00 -0.18995506740E+03  0.18995506740E+03  0.00000000000E+00 0.  1.
         25    2    1    2    0    0 -0.12265649676E+02 -0.12811156237E+02 -0.12161294356E+03  0.17529692563E+03  0.12499892882E+03 0.  0.
          5    1    3    3  501    0 -0.16177701722E+02 -0.17509333018E+02  0.21470733030E+02  0.32082661245E+02  0.10000000000E+00 0. -1.
         -5    1    3    3    0  501  0.39120520460E+01  0.46981767808E+01 -0.14308367659E+03  0.14321426438E+03  0.10000000000E+00 0. -1.
         21    1    1    2  504  503  0.12265649676E+02  0.12811156237E+02 -0.39605127510E+02  0.43395138106E+02  0.00000000000E+00 0.  1.
<mgrwt>
<rscale>  1 0.12625096E+03</rscale>
<asrwt>0</asrwt>
<pdfrwt beam="1">  1       21 0.44210763E-02 0.12625096E+03</pdfrwt>
<pdfrwt beam="2">  1       21 0.29223857E-01 0.12625096E+03</pdfrwt>
<totfact> 0.36688216E+06</totfact>
</mgrwt>
</event>
<event>
 6    1  0.4271609E-002  0.1262790E+03  0.7546771E-02  0.1233084E+00
         21   -1    0    0  503  502  0.00000000000E+00  0.00000000000E+00  0.29618526770E+03  0.29618526770E+03  0.00000000000E+00 0.  1.
         21   -1    0    0  504  503 -0.00000000000E+00 -0.00000000000E+00 -0.10733807126E+03  0.10733807126E+03  0.00000000000E+00 0. -1.
         25    2    1    2    0    0 -0.14034993620E+02  0.11137858283E+02  0.28183121186E+03  0.30882877704E+03  0.12500139444E+03 0.  0.
          5    1    3    3  501    0 -0.60641396745E+02  0.29707718671E+02  0.10354693834E+03  0.12362000642E+03  0.10000000000E+00 0. -1.
         -5    1    3    3    0  501  0.46606403126E+02 -0.18569860388E+02  0.17828427353E+03  0.18520877062E+03  0.10000000000E+00 0. -1.
         21    1    1    2  504  502  0.14034993620E+02 -0.11137858283E+02 -0.92984015429E+02  0.94694561926E+02  0.00000000000E+00 0. -1.
<mgrwt>
<rscale>  1 0.12627898E+03</rscale>
<asrwt>0</asrwt>
<pdfrwt beam="1">  1       21 0.45566964E-01 0.12627898E+03</pdfrwt>
<pdfrwt beam="2">  1       21 0.16513550E-01 0.12627898E+03</pdfrwt>
<totfact> 0.15520858E+05</totfact>
</mgrwt>
</event>
<event>
 6    1  0.4271609E-002  0.1301485E+03  0.7546771E-02  0.1227236E+00
         21   -1    0    0  503  502  0.00000000000E+00  0.00000000000E+00  0.36333600256E+03  0.36333600256E+03  0.00000000000E+00 0. -1.
         21   -1    0    0  504  503 -0.00000000000E+00 -0.00000000000E+00 -0.19730917582E+02  0.19730917582E+02  0.00000000000E+00 0. -1.
         25    2    1    2    0    0  0.29880333913E+02 -0.20481371519E+02  0.29511516893E+03  0.32253929924E+03  0.12500526263E+03 0.  0.
          5    1    3    3  501    0  0.38816369372E+01  0.42259318173E+02  0.39219796147E+02  0.57785114758E+02  0.10000000000E+00 0. -1.
         -5    1    3    3    0  501  0.25998696976E+02 -0.62740689693E+02  0.25589537278E+03  0.26475418448E+03  0.10000000000E+00 0. -1.
         21    1    1    2  504  502 -0.29880333913E+02  0.20481371519E+02  0.48489916048E+02  0.60527620905E+02  0.00000000000E+00 0. -1.
<mgrwt>
<rscale>  1 0.13014852E+03</rscale>
<asrwt>0</asrwt>
<pdfrwt beam="1">  1       21 0.55897841E-01 0.13014852E+03</pdfrwt>
<pdfrwt beam="2">  1       21 0.30355261E-02 0.13014852E+03</pdfrwt>
<totfact> 0.18644771E+06</totfact>
</mgrwt>
</event>
<event>
 6    1  0.4271609E-002  0.1266281E+03  0.7546771E-02  0.1232547E+00
         21   -1    0    0  504  502  0.00000000000E+00  0.00000000000E+00  0.73126409506E+02  0.73126409506E+02  0.00000000000E+00 0. -1.
         21   -1    0    0  502  503 -0.00000000000E+00 -0.00000000000E+00 -0.19362446447E+03  0.19362446447E+03  0.00000000000E+00 0.  1.
         25    2    1    2    0    0  0.18694970264E+02  0.66619866717E+01  0.17056790715E+02  0.12777166852E+03  0.12506310882E+03 0.  0.
          5    1    3    3  501    0  0.33955122113E+01 -0.12744914684E+02  0.69000036588E+02  0.70249394322E+02  0.10000000000E+00 0. -1.
         -5    1    3    3    0  501  0.15299458053E+02  0.19406901356E+02 -0.51943245872E+02  0.57522274196E+02  0.10000000000E+00 0. -1.
         21    1    1    2  504  503 -0.18694970264E+02 -0.66619866717E+01 -0.13755484568E+03  0.13897920546E+03  0.00000000000E+00 0.  1.
<mgrwt>
<rscale>  1 0.12662806E+03</rscale>
<asrwt>0</asrwt>
<pdfrwt beam="1">  1       21 0.11250217E-01 0.12662806E+03</pdfrwt>
<pdfrwt beam="2">  1       21 0.29788378E-01 0.12662806E+03</pdfrwt>
<totfact> 0.71460859E+05</totfact>
</mgrwt>
</event>
<event>
 6    1  0.4271609E-002  0.1389822E+03  0.7546771E-02  0.1214705E+00
         21   -1    0    0  504  502  0.00000000000E+00  0.00000000000E+00  0.14945173883E+04  0.14945173883E+04  0.00000000000E+00 0.  1.
         21   -1    0    0  502  503 -0.00000000000E+00 -0.00000000000E+00 -0.15811662164E+02  0.15811662164E+02  0.00000000000E+00 0.  1.
         25    2    1    2    0    0 -0.53493735601E+02  0.28795272562E+02  0.14167750067E+04  0.14235755982E+04  0.12500126681E+03 0.  0.
          5    1    3    3  501    0 -0.23823854959E+02  0.30465001482E+02  0.11249785040E+03  0.11895994589E+03  0.10000000000E+00 0.  1.
         -5    1    3    3    0  501 -0.29669880643E+02 -0.16697289197E+01  0.13042771563E+04  0.13046156524E+04  0.10000000000E+00 0.  1.
         21    1    1    2  504  503  0.53493735601E+02 -0.28795272562E+02  0.61930719443E+02  0.86753452273E+02  0.00000000000E+00 0.  1.
<mgrwt>
<rscale>  1 0.13898224E+03</rscale>
<asrwt>0</asrwt>
<pdfrwt beam="1">  1       21 0.22992564E+00 0.13898224E+03</pdfrwt>
<pdfrwt beam="2">  1       21 0.24325646E-02 0.13898224E+03</pdfrwt>
<totfact> 0.81328011E+04</totfact>
</mgrwt>
</event>
<event>
 6    1  0.4271609E-002  0.1331702E+03  0.7546771E-02  0.1222826E+00
         21   -1    0    0  503  502  0.00000000000E+00  0.00000000000E+00  0.34271191508E+02  0.34271191508E+02  0.00000000000E+00 0.  1.
         21   -1    0    0  504  503 -0.00000000000E+00 -0.00000000000E+00 -0.84923530875E+03  0.84923530875E+03  0.00000000000E+00 0.  1.
         25    2    1    2    0    0 -0.45147858708E+02  0.83681323490E+01 -0.98666907126E+02  0.16573909503E+03  0.12500373704E+03 0.  0.
          5    1    3    3  501    0 -0.88614800663E+02  0.55592525826E+01 -0.74639930809E+02  0.11599404061E+03  0.10000000000E+00 0. -1.
         -5    1    3    3    0  501  0.43466941955E+02  0.28088797664E+01 -0.24026976317E+02  0.49745054422E+02  0.10000000000E+00 0. -1.
         21    1    1    2  504  502  0.45147858708E+02 -0.83681323490E+01 -0.71629721011E+03  0.71776740522E+03  0.00000000000E+00 0.  1.
<mgrwt>
<rscale>  1 0.13317015E+03</rscale>
<asrwt>0</asrwt>
<pdfrwt beam="1">  1       21 0.52724916E-02 0.13317015E+03</pdfrwt>
<pdfrwt beam="2">  1       21 0.13065157E+00 0.13317015E+03</pdfrwt>
<totfact> 0.10778707E+05</totfact>
</mgrwt>
</event>
<event>
 6    1  0.4271609E-002  0.1516159E+03  0.7546771E-02  0.1198501E+00
         21   -1    0    0  503  502  0.00000000000E+00  0.00000000000E+00  0.66702529697E+03  0.66702529697E+03  0.00000000000E+00 0.  1.
         21   -1    0    0  504  503 -0.00000000000E+00 -0.00000000000E+00 -0.25294784383E+02  0.25294784383E+02  0.00000000000E+00 0.  1.
         25    2    1    2    0    0  0.68345505973E+02 -0.51897200904E+02  0.53104145321E+03  0.55226118119E+03  0.12499183804E+03 0.  0.
          5    1    3    3  501    0  0.44310870005E+02 -0.66727230104E+02  0.14889943908E+03  0.16907699251E+03  0.10000000000E+00 0.  1.
         -5    1    3    3    0  501  0.24034635969E+02  0.14830029200E+02  0.38214201413E+03  0.38318418868E+03  0.10000000000E+00 0.  1.
         21    1    1    2  504  502 -0.68345505973E+02  0.51897200904E+02  0.11068905937E+03  0.14005890016E+03  0.00000000000E+00 0.  1.
<mgrwt>
<rscale>  1 0.15161592E+03</rscale>
<asrwt>0</asrwt>
<pdfrwt beam="1">  1       21 0.10261926E+00 0.15161592E+03</pdfrwt>
<pdfrwt beam="2">  1       21 0.38915058E-02 0.15161592E+03</pdfrwt>
<totfact> 0.32022415E+05</totfact>
</mgrwt>
</event>
<event>
 6    1  0.4271609E-002  0.1409973E+03  0.7546771E-02  0.1211993E+00
         21   -1    0    0  503  502  0.00000000000E+00  0.00000000000E+00  0.13588175899E+03  0.13588175899E+03  0.00000000000E+00 0. -1.
         21   -1    0    0  504  503 -0.00000000000E+00 -0.00000000000E+00 -0.90823653733E+02  0.90823653733E+02  0.00000000000E+00 0. -1.
         25    2    1    2    0    0 -0.65242902231E+02 -0.10080472421E+01  0.69286960594E+02  0.15710160621E+03  0.12499031688E+03 0.  0.
          5    1    3    3  501    0 -0.11823250505E+02  0.35078845882E+02  0.83277586643E+02  0.91134412370E+02  0.10000000000E+00 0. -1.
         -5    1    3    3    0  501 -0.53419651725E+02 -0.36086893124E+02 -0.13990626049E+02  0.65967193840E+02  0.10000000000E+00 0. -1.
         21    1    1    2  504  502  0.65242902231E+02  0.10080472421E+01 -0.24228855334E+02  0.69603806516E+02  0.00000000000E+00 0. -1.
<mgrwt>
<rscale>  1 0.14099728E+03</rscale>
<asrwt>0</asrwt>
<pdfrwt beam="1">  1       21 0.20904886E-01 0.14099728E+03</pdfrwt>
<pdfrwt beam="2">  1       21 0.13972870E-01 0.14099728E+03</pdfrwt>
<totfact> 0.94997950E+05</totfact>
</mgrwt>
</event>
<event>
 6    1  0.4271609E-002  0.1400276E+03  0.7546771E-02  0.1213292E+00
         21   -1    0    0  504  502  0.00000000000E+00  0.00000000000E+00  0.77742924498E+02  0.77742924498E+02  0.00000000000E+00 0.  1.
         21   -1    0    0  502  503 -0.00000000000E+00 -0.00000000000E+00 -0.13809204238E+03  0.13809204238E+03  0.00000000000E+00 0. -1.
         25    2    1    2    0    0  0.29939984347E+02 -0.55553626093E+02 -0.21341278350E+02  0.14164453906E+03  0.12500046899E+03 0.  0.
          5    1    3    3  501    0 -0.30921448785E+02 -0.56944155008E+02  0.20281943978E+02  0.67898012019E+02  0.10000000000E+00 0. -1.
         -5    1    3    3    0  501  0.60861433132E+02  0.13905289150E+01 -0.41623222328E+02  0.73746527040E+02  0.10000000000E+00 0. -1.
         21    1    1    2  504  503 -0.29939984347E+02  0.55553626093E+02 -0.39007839528E+02  0.74190427816E+02  0.00000000000E+00 0. -1.
<mgrwt>
<rscale>  1 0.14002759E+03</rscale>
<asrwt>0</asrwt>
<pdfrwt beam="1">  1       21 0.11960450E-01 0.14002759E+03</pdfrwt>
<pdfrwt beam="2">  1       21 0.21244929E-01 0.14002759E+03</pdfrwt>
<totfact> 0.12168572E+06</totfact>
</mgrwt>
</event>
<event>
 6    1  0.4271609E-002  0.1297897E+03  0.7546771E-02  0.1227768E+00
         21   -1    0    0  504  502  0.00000000000E+00  0.00000000000E+00  0.12671832041E+03  0.12671832041E+03  0.00000000000E+00 0. -1.
         21   -1    0    0  502  503 -0.00000000000E+00 -0.00000000000E+00 -0.10143027703E+03  0.10143027703E+03  0.00000000000E+00 0. -1.
         25    2    1    2    0    0  0.23815445497E+02 -0.25564933190E+02  0.87686490865E+02  0.15663421076E+03  0.12499845618E+03 0.  0.
          5    1    3    3  501    0  0.20694926811E+02 -0.31332098728E+01  0.11741248779E+03  0.11926357067E+03  0.10000000000E+00 0. -1.
         -5    1    3    3    0  501  0.31205186860E+01 -0.22431723317E+02 -0.29725996923E+02  0.37370640092E+02  0.10000000000E+00 0. -1.
         21    1    1    2  504  503 -0.23815445497E+02  0.25564933190E+02 -0.62398447484E+02  0.71514386676E+02  0.00000000000E+00 0. -1.
<mgrwt>
<rscale>  1 0.12978966E+03</rscale>
<asrwt>0</asrwt>
<pdfrwt beam="1">  1       21 0.19495126E-01 0.12978966E+03</pdfrwt>
<pdfrwt beam="2">  1       21 0.15604658E-01 0.12978966E+03</pdfrwt>
<totfact> 0.88564570E+05</totfact>
</mgrwt>
</event>
<event>
 6    1  0.4271609E-002  0.1357555E+03  0.7546771E-02  0.1219157E+00
         21   -1    0    0  503  502  0.00000000000E+00  0.00000000000E+00  0.97082166273E+02  0.97082166273E+02  0.00000000000E+00 0. -1.
         21   -1    0    0  504  503 -0.00000000000E+00 -0.00000000000E+00 -0.53922261606E+03  0.53922261606E+03  0.00000000000E+00 0.  1.
         25    2    1    2    0    0  0.22973136667E+02  0.47722951439E+02  0.47486727844E+02  0.14382126162E+03  0.12499728345E+03 0.  0.
          5    1    3    3  501    0  0.61792957817E+02 -0.71357240807E+01  0.11931124274E+01  0.62215124457E+02  0.10000000000E+00 0. -1.
         -5    1    3    3    0  501 -0.38819821150E+02  0.54858675520E+02  0.46293615416E+02  0.81606137160E+02  0.10000000000E+00 0. -1.
         21    1    1    2  504  502 -0.22973136667E+02 -0.47722951439E+02 -0.48962717763E+03  0.49248352072E+03  0.00000000000E+00 0.  1.
<mgrwt>
<rscale>  1 0.13575554E+03</rscale>
<asrwt>0</asrwt>
<pdfrwt beam="1">  1       21 0.14935718E-01 0.13575554E+03</pdfrwt>
<pdfrwt beam="2">  1       21 0.82957325E-01 0.13575554E+03</pdfrwt>
<totfact> 0.51542898E+04</totfact>
</mgrwt>
</event>
<event>
 6    1  0.4271609E-002  0.1279119E+03  0.7546771E-02  0.1230587E+00
         21   -1    0    0  503  502  0.00000000000E+00  0.00000000000E+00  0.79925708429E+02  0.79925708429E+02  0.00000000000E+00 0. -1.
         21   -1    0    0  504  503 -0.00000000000E+00 -0.00000000000E+00 -0.75496892980E+03  0.75496892980E+03  0.00000000000E+00 0. -1.
         25    2    1    2    0    0  0.22921122408E+02 -0.14796229308E+02  0.28314327157E+02  0.13100817912E+03  0.12496853852E+03 0.  0.
          5    1    3    3  501    0  0.43350283365E+02  0.35685298537E+02  0.47216109084E+02  0.73362514655E+02  0.10000000000E+00 0.  1.
         -5    1    3    3    0  501 -0.20429160957E+02 -0.50481527845E+02 -0.18901781927E+02  0.57645664460E+02  0.10000000000E+00 0.  1.
         21    1    1    2  504  502 -0.22921122408E+02  0.14796229308E+02 -0.70335754853E+03  0.70388645912E+03  0.00000000000E+00 0. -1.
<mgrwt>
<rscale>  1 0.12791185E+03</rscale>
<asrwt>0</asrwt>
<pdfrwt beam="1">  1       21 0.12296263E-01 0.12791185E+03</pdfrwt>
<pdfrwt beam="2">  1       21 0.11614907E+00 0.12791185E+03</pdfrwt>
<totfact> 0.33448567E+04</totfact>
</mgrwt>
</event>
<event>
 6    1  0.4271609E-002  0.1918415E+03  0.7546771E-02  0.1156811E+00
         21   -1    0    0  504  502  0.00000000000E+00  0.00000000000E+00  0.51969114595E+03  0.51969114595E+03  0.00000000000E+00 0.  1.
         21   -1    0    0  502  503 -0.00000000000E+00 -0.00000000000E+00 -0.88216377038E+02  0.88216377038E+02  0.00000000000E+00 0.  1.
         25    2    1    2    0    0 -0.55135729015E+02  0.13467884204E+03  0.48011303110E+02  0.19775807619E+03  0.12499932945E+03 0.  0.
          5    1    3    3  501    0  0.23318129516E+02  0.14256491461E+02  0.46604236223E+02  0.54027285207E+02  0.10000000000E+00 0.  1.
         -5    1    3    3    0  501 -0.78453858531E+02  0.12042235058E+03  0.14070668869E+01  0.14373079098E+03  0.10000000000E+00 0.  1.
         21    1    1    2  504  503  0.55135729015E+02 -0.13467884204E+03  0.38346346581E+03  0.41014944681E+03  0.00000000000E+00 0.  1.
<mgrwt>
<rscale>  1 0.19184153E+03</rscale>
<asrwt>0</asrwt>
<pdfrwt beam="1">  1       21 0.79952482E-01 0.19184153E+03</pdfrwt>
<pdfrwt beam="2">  1       21 0.13571751E-01 0.19184153E+03</pdfrwt>
<totfact> 0.64802270E+04</totfact>
</mgrwt>
</event>
<event>
 6    1  0.4271609E-002  0.1262766E+03  0.7546771E-02  0.1233088E+00
         21   -1    0    0  504  502  0.00000000000E+00  0.00000000000E+00  0.39436250211E+03  0.39436250211E+03  0.00000000000E+00 0.  1.
         21   -1    0    0  502  503 -0.00000000000E+00 -0.00000000000E+00 -0.12460306771E+03  0.12460306771E+03  0.00000000000E+00 0.  1.
         25    2    1    2    0    0  0.15673750041E+02 -0.86495345910E+01  0.38353607078E+03  0.40378916654E+03  0.12500117014E+03 0.  0.
          5    1    3    3  501    0  0.29954904418E+02  0.48873141714E+02  0.11150673661E+03  0.12537799882E+03  0.10000000000E+00 0.  1.
         -5    1    3    3    0  501 -0.14281154377E+02 -0.57522676305E+02  0.27202933417E+03  0.27841116772E+03  0.10000000000E+00 0.  1.
         21    1    1    2  504  503 -0.15673750041E+02  0.86495345910E+01 -0.11377663637E+03  0.11517640328E+03  0.00000000000E+00 0.  1.
<mgrwt>
<rscale>  1 0.12627658E+03</rscale>
<asrwt>0</asrwt>
<pdfrwt beam="1">  1       21 0.60671154E-01 0.12627658E+03</pdfrwt>
<pdfrwt beam="2">  1       21 0.19169703E-01 0.12627658E+03</pdfrwt>
<totfact> 0.65179217E+04</totfact>
</mgrwt>
</event>
<event>
 6    1  0.4271609E-002  0.1306699E+03  0.7546771E-02  0.1226465E+00
         21   -1    0    0  503  502  0.00000000000E+00  0.00000000000E+00  0.67148939942E+03  0.67148939942E+03  0.00000000000E+00 0. -1.
         21   -1    0    0  504  503 -0.00000000000E+00 -0.00000000000E+00 -0.12072818224E+03  0.12072818224E+03  0.00000000000E+00 0. -1.
         25    2    1    2    0    0 -0.11912439204E+01  0.38039401547E+02  0.66193540832E+03  0.67470964190E+03  0.12500480371E+03 0.  0.
          5    1    3    3  501    0 -0.41811331805E+02  0.29521350383E+02  0.58550116858E+03  0.58773406061E+03  0.10000000000E+00 0. -1.
         -5    1    3    3    0  501  0.40620087885E+02  0.85180511640E+01  0.76434239743E+02  0.86975581288E+02  0.10000000000E+00 0. -1.
         21    1    1    2  504  502  0.11912439204E+01 -0.38039401547E+02 -0.11117419114E+03  0.11750793977E+03  0.00000000000E+00 0. -1.
<mgrwt>
<rscale>  1 0.13066987E+03</rscale>
<asrwt>0</asrwt>
<pdfrwt beam="1">  1       21 0.10330606E+00 0.13066987E+03</pdfrwt>
<pdfrwt beam="2">  1       21 0.18573567E-01 0.13066987E+03</pdfrwt>
<totfact> 0.20978128E+04</totfact>
</mgrwt>
</event>
<event>
 6    1  0.4271609E-002  0.1773590E+03  0.7546771E-02  0.1170384E+00
         21   -1    0    0  504  502  0.00000000000E+00  0.00000000000E+00  0.83348897634E+02  0.83348897634E+02  0.00000000000E+00 0. -1.
         21   -1    0    0  502  503 -0.00000000000E+00 -0.00000000000E+00 -0.10279583157E+04  0.10279583157E+04  0.00000000000E+00 0. -1.
         25    2    1    2    0    0 -0.91690857467E+02 -0.86206410394E+02 -0.20354403409E+02  0.17852315973E+03  0.12496982950E+03 0.  0.
          5    1    3    3  501    0 -0.20693150227E+02  0.28779043000E+02  0.15533809553E+02  0.38700762545E+02  0.10000000000E+00 0. -1.
         -5    1    3    3    0  501 -0.70997707240E+02 -0.11498545339E+03 -0.35888212962E+02  0.13982239719E+03  0.10000000000E+00 0. -1.
         21    1    1    2  504  503  0.91690857467E+02  0.86206410394E+02 -0.92425501464E+03  0.93278405359E+03  0.00000000000E+00 0. -1.
<mgrwt>
<rscale>  1 0.17735901E+03</rscale>
<asrwt>0</asrwt>
<pdfrwt beam="1">  1       21 0.12822907E-01 0.17735901E+03</pdfrwt>
<pdfrwt beam="2">  1       21 0.15814743E+00 0.17735901E+03</pdfrwt>
<totfact> 0.13686118E+04</totfact>
</mgrwt>
</event>
<event>
 6    1  0.4271609E-002  0.1261778E+03  0.7546771E-02  0.1233240E+00
         21   -1    0    0  504  502  0.00000000000E+00  0.00000000000E+00  0.40820764075E+02  0.40820764075E+02  0.00000000000E+00 0. -1.
         21   -1    0    0  502  503 -0.00000000000E+00 -0.00000000000E+00 -0.13066016108E+03  0.13066016108E+03  0.00000000000E+00 0. -1.
         25    2    1    2    0    0  0.13667137701E+02  0.10559807269E+02 -0.67050821276E+02  0.14288688091E+03  0.12499019130E+03 0.  0.
          5    1    3    3  501    0  0.16555050287E+02  0.56015030034E+02 -0.76620390053E+02  0.96345458905E+02  0.10000000000E+00 0.  1.
         -5    1    3    3    0  501 -0.28879125863E+01 -0.45455222765E+02  0.95695687761E+01  0.46541422006E+02  0.10000000000E+00 0.  1.
         21    1    1    2  504  503 -0.13667137701E+02 -0.10559807269E+02 -0.22788575725E+02  0.28594044241E+02  0.00000000000E+00 0.  1.
<mgrwt>
<rscale>  1 0.12617784E+03</rscale>
<asrwt>0</asrwt>
<pdfrwt beam="1">  1       21 0.62801176E-02 0.12617784E+03</pdfrwt>
<pdfrwt beam="2">  1       21 0.20101563E-01 0.12617784E+03</pdfrwt>
<totfact> 0.41115944E+06</totfact>
</mgrwt>
</event>
<event>
 6    1  0.4271609E-002  0.1268448E+03  0.7546771E-02  0.1232214E+00
         21   -1    0    0  504  502  0.00000000000E+00  0.00000000000E+00  0.14246953907E+04  0.14246953907E+04  0.00000000000E+00 0. -1.
         21   -1    0    0  502  503 -0.00000000000E+00 -0.00000000000E+00 -0.12845908043E+02  0.12845908043E+02  0.00000000000E+00 0.  1.
         25    2    1    2    0    0  0.43202540616E+01 -0.21127899521E+02  0.14102217249E+04  0.14159148722E+04  0.12499823636E+03 0.  0.
          5    1    3    3  501    0 -0.16789859941E+02 -0.46075434509E+02  0.13006297972E+04  0.13015539652E+04  0.10000000000E+00 0. -1.
         -5    1    3    3    0  501  0.21110114003E+02  0.24947534988E+02  0.10959192770E+03  0.11436090692E+03  0.10000000000E+00 0. -1.
         21    1    1    2  504  503 -0.43202540616E+01  0.21127899521E+02  0.16277578054E+01  0.21626426630E+02  0.00000000000E+00 0.  1.
<mgrwt>
<rscale>  1 0.12684483E+03</rscale>
<asrwt>0</asrwt>
<pdfrwt beam="1">  1       21 0.21918378E+00 0.12684483E+03</pdfrwt>
<pdfrwt beam="2">  1       21 0.19762947E-02 0.12684483E+03</pdfrwt>
<totfact> 0.13317639E+05</totfact>
</mgrwt>
</event>
<event>
 6    1  0.4271609E-002  0.1276435E+03  0.7546771E-02  0.1230995E+00
         21   -1    0    0  504  502  0.00000000000E+00  0.00000000000E+00  0.30202813946E+03  0.30202813946E+03  0.00000000000E+00 0.  1.
         21   -1    0    0  502  503 -0.00000000000E+00 -0.00000000000E+00 -0.65182231023E+02  0.65182231023E+02  0.00000000000E+00 0. -1.
         25    2    1    2    0    0  0.24391124959E+02  0.86476635191E+01  0.28514743444E+03  0.31241304868E+03  0.12499257802E+03 0.  0.
          5    1    3    3  501    0  0.27235694579E+02 -0.41015193660E+02  0.43499367662E+02  0.65698052918E+02  0.10000000000E+00 0. -1.
         -5    1    3    3    0  501 -0.28445696194E+01  0.49662857179E+02  0.24164806678E+03  0.24671499577E+03  0.10000000000E+00 0. -1.
         21    1    1    2  504  503 -0.24391124959E+02 -0.86476635191E+01 -0.48301526007E+02  0.54797321793E+02  0.00000000000E+00 0. -1.
<mgrwt>
<rscale>  1 0.12764346E+03</rscale>
<asrwt>0</asrwt>
<pdfrwt beam="1">  1       21 0.46465867E-01 0.12764346E+03</pdfrwt>
<pdfrwt beam="2">  1       21 0.10028036E-01 0.12764346E+03</pdfrwt>
<totfact> 0.36250681E+05</totfact>
</mgrwt>
</event>
<event>
 6    1  0.4271609E-002  0.1400135E+03  0.7546771E-02  0.1213311E+00
         21   -1    0    0  504  502  0.00000000000E+00  0.00000000000E+00  0.37909690101E+03  0.37909690101E+03  0.00000000000E+00 0. -1.
         21   -1    0    0  502  503 -0.00000000000E+00 -0.00000000000E+00 -0.91996175196E+02  0.91996175196E+02  0.00000000000E+00 0. -1.
         25    2    1    2    0    0  0.43026948306E+02  0.46138157456E+02  0.35306677934E+03  0.37981565254E+03  0.12499492545E+03 0.  0.
          5    1    3    3  501    0  0.70628150274E+02  0.22918731121E+02  0.32697098975E+03  0.33529634950E+03  0.10000000000E+00 0.  1.
         -5    1    3    3    0  501 -0.27601201968E+02  0.23219426334E+02  0.26095789589E+02  0.44519303045E+02  0.10000000000E+00 0.  1.
         21    1    1    2  504  503 -0.43026948306E+02 -0.46138157456E+02 -0.65966053523E+02  0.91277423668E+02  0.00000000000E+00 0. -1.
<mgrwt>
<rscale>  1 0.14001350E+03</rscale>
<asrwt>0</asrwt>
<pdfrwt beam="1">  1       21 0.58322599E-01 0.14001350E+03</pdfrwt>
<pdfrwt beam="2">  1       21 0.14153258E-01 0.14001350E+03</pdfrwt>
<totfact> 0.12233071E+05</totfact>
</mgrwt>
</event>
<event>
 6    1  0.4271609E-002  0.1262304E+03  0.7546771E-02  0.1233159E+00
         21   -1    0    0  503  502  0.00000000000E+00  0.00000000000E+00  0.63352867533E+03  0.63352867533E+03  0.00000000000E+00 0. -1.
         21   -1    0    0  504  503 -0.00000000000E+00 -0.00000000000E+00 -0.81647052344E+01  0.81647052344E+01  0.00000000000E+00 0. -1.
         25    2    1    2    0    0 -0.14858232928E+02  0.93138113890E+01  0.54206578882E+03  0.55656934652E+03  0.12500641546E+03 0.  0.
          5    1    3    3  501    0 -0.29540916415E+02  0.48018631209E+02  0.12118069878E+03  0.13365338171E+03  0.10000000000E+00 0. -1.
         -5    1    3    3    0  501  0.14682683487E+02 -0.38704819820E+02  0.42088509004E+03  0.42291596481E+03  0.10000000000E+00 0. -1.
         21    1    1    2  504  502  0.14858232928E+02 -0.93138113890E+01  0.83298181277E+02  0.85124034047E+02  0.00000000000E+00 0. -1.
<mgrwt>
<rscale>  1 0.12623042E+03</rscale>
<asrwt>0</asrwt>
<pdfrwt beam="1">  1       21 0.97465911E-01 0.12623042E+03</pdfrwt>
<pdfrwt beam="2">  1       21 0.12561090E-02 0.12623042E+03</pdfrwt>
<totfact> 0.22697490E+06</totfact>
</mgrwt>
</event>
<event>
 6    1  0.4271609E-002  0.1258571E+03  0.7546771E-02  0.1233736E+00
         21   -1    0    0  504  502  0.00000000000E+00  0.00000000000E+00  0.51575340383E+02  0.51575340383E+02  0.00000000000E+00 0.  1.
         21   -1    0    0  502  503 -0.00000000000E+00 -0.00000000000E+00 -0.12630905650E+03  0.12630905650E+03  0.00000000000E+00 0.  1.
         25    2    1    2    0    0  0.35918804737E-01  0.15450770346E+02 -0.28371425506E+02  0.12901529023E+03  0.12490508290E+03 0.  0.
          5    1    3    3  501    0 -0.36076145717E+02  0.49467249642E+02  0.15093014172E+02  0.63057958687E+02  0.10000000000E+00 0. -1.
         -5    1    3    3    0  501  0.36112064522E+02 -0.34016479295E+02 -0.43464439678E+02  0.65957331542E+02  0.10000000000E+00 0. -1.
         21    1    1    2  504  503 -0.35918804737E-01 -0.15450770346E+02 -0.46362290610E+02  0.48869106653E+02  0.00000000000E+00 0.  1.
<mgrwt>
<rscale>  1 0.12585709E+03</rscale>
<asrwt>0</asrwt>
<pdfrwt beam="1">  1       21 0.79346679E-02 0.12585709E+03</pdfrwt>
<pdfrwt beam="2">  1       21 0.19432162E-01 0.12585709E+03</pdfrwt>
<totfact> 0.29334970E+06</totfact>
</mgrwt>
</event>
<event>
 6    1  0.4271609E-002  0.1797172E+03  0.7546771E-02  0.1168077E+00
         21   -1    0    0  504  502  0.00000000000E+00  0.00000000000E+00  0.93906061789E+02  0.93906061789E+02  0.00000000000E+00 0.  1.
         21   -1    0    0  502  503 -0.00000000000E+00 -0.00000000000E+00 -0.12781414904E+04  0.12781414904E+04  0.00000000000E+00 0. -1.
         25    2    1    2    0    0 -0.12910154093E+03 -0.28215563440E+01  0.10783925876E+01  0.17972040590E+03  0.12499236903E+03 0.  0.
          5    1    3    3  501    0 -0.95203787143E+02 -0.10548383092E+02  0.58758289370E+02  0.11237248792E+03  0.10000000000E+00 0. -1.
         -5    1    3    3    0  501 -0.33897753785E+02  0.77268267479E+01 -0.57679896782E+02  0.67347917979E+02  0.10000000000E+00 0. -1.
         21    1    1    2  504  503  0.12910154093E+03  0.28215563440E+01 -0.11853138212E+04  0.11923271463E+04  0.00000000000E+00 0. -1.
<mgrwt>
<rscale>  1 0.17971717E+03</rscale>
<asrwt>0</asrwt>
<pdfrwt beam="1">  1       21 0.14447086E-01 0.17971717E+03</pdfrwt>
<pdfrwt beam="2">  1       21 0.19663716E+00 0.17971717E+03</pdfrwt>
<totfact> 0.59990557E+03</totfact>
</mgrwt>
</event>
<event>
 6    1  0.4271609E-002  0.1267984E+03  0.7546771E-02  0.1232285E+00
         21   -1    0    0  504  502  0.00000000000E+00  0.00000000000E+00  0.59813204234E+02  0.59813204234E+02  0.00000000000E+00 0. -1.
         21   -1    0    0  502  503 -0.00000000000E+00 -0.00000000000E+00 -0.10690610589E+03  0.10690610589E+03  0.00000000000E+00 0. -1.
         25    2    1    2    0    0 -0.31124670562E+01 -0.21113644120E+02 -0.14312276239E+02  0.12760354831E+03  0.12498940304E+03 0.  0.
          5    1    3    3  501    0 -0.48007987513E+01  0.39631298992E+02 -0.44472644474E+02  0.59762142155E+02  0.10000000000E+00 0.  1.
         -5    1    3    3    0  501  0.16883316951E+01 -0.60744943112E+02  0.30160368235E+02  0.67841406159E+02  0.10000000000E+00 0.  1.
         21    1    1    2  504  503  0.31124670562E+01  0.21113644120E+02 -0.32780625421E+02  0.39115761812E+02  0.00000000000E+00 0. -1.
<mgrwt>
<rscale>  1 0.12679836E+03</rscale>
<asrwt>0</asrwt>
<pdfrwt beam="1">  1       21 0.92020315E-02 0.12679836E+03</pdfrwt>
<pdfrwt beam="2">  1       21 0.16447093E-01 0.12679836E+03</pdfrwt>
<totfact> 0.30804265E+06</totfact>
</mgrwt>
</event>
<event>
 6    1  0.4271609E-002  0.1268172E+03  0.7546771E-02  0.1232256E+00
         21   -1    0    0  504  502  0.00000000000E+00  0.00000000000E+00  0.16468158262E+02  0.16468158262E+02  0.00000000000E+00 0.  1.
         21   -1    0    0  502  503 -0.00000000000E+00 -0.00000000000E+00 -0.48737149764E+03  0.48737149764E+03  0.00000000000E+00 0.  1.
         25    2    1    2    0    0  0.18341400813E+02 -0.11108733556E+02 -0.23561498451E+03  0.26757619939E+03  0.12499116213E+03 0.  0.
          5    1    3    3  501    0  0.35260644053E+02 -0.22444579377E+02 -0.12632149763E+02  0.43665242128E+02  0.10000000000E+00 0.  1.
         -5    1    3    3    0  501 -0.16919243240E+02  0.11335845820E+02 -0.22298283474E+03  0.22391095726E+03  0.10000000000E+00 0.  1.
         21    1    1    2  504  503 -0.18341400813E+02  0.11108733556E+02 -0.23528835487E+03  0.23626345651E+03  0.00000000000E+00 0.  1.
<mgrwt>
<rscale>  1 0.12681720E+03</rscale>
<asrwt>0</asrwt>
<pdfrwt beam="1">  1       21 0.25335626E-02 0.12681720E+03</pdfrwt>
<pdfrwt beam="2">  1       21 0.74980236E-01 0.12681720E+03</pdfrwt>
<totfact> 0.13312351E+06</totfact>
</mgrwt>
</event>
<event>
 6    1  0.4271609E-002  0.1370672E+03  0.7546771E-02  0.1217331E+00
         21   -1    0    0  503  502  0.00000000000E+00  0.00000000000E+00  0.48690842574E+03  0.48690842574E+03  0.00000000000E+00 0.  1.
         21   -1    0    0  504  503 -0.00000000000E+00 -0.00000000000E+00 -0.25222036606E+03  0.25222036606E+03  0.00000000000E+00 0.  1.
         25    2    1    2    0    0  0.25448393168E+02 -0.50096335409E+02  0.47394243781E+03  0.49336483801E+03  0.12502066025E+03 0.  0.
          5    1    3    3  501    0 -0.26763562115E+02  0.22966514094E+02  0.24354365237E+03  0.24608386708E+03  0.10000000000E+00 0. -1.
         -5    1    3    3    0  501  0.52211955284E+02 -0.73062849503E+02  0.23039878543E+03  0.24728097092E+03  0.10000000000E+00 0. -1.
         21    1    1    2  504  502 -0.25448393168E+02  0.50096335409E+02 -0.23925437812E+03  0.24576395380E+03  0.00000000000E+00 0.  1.
<mgrwt>
<rscale>  1 0.13706724E+03</rscale>
<asrwt>0</asrwt>
<pdfrwt beam="1">  1       21 0.74908988E-01 0.13706724E+03</pdfrwt>
<pdfrwt beam="2">  1       21 0.38803133E-01 0.13706724E+03</pdfrwt>
<totfact> 0.10642067E+04</totfact>
</mgrwt>
</event>
<event>
 6    1  0.4271609E-002  0.1358107E+03  0.7546771E-02  0.1219080E+00
         21   -1    0    0  503  502  0.00000000000E+00  0.00000000000E+00  0.27915633985E+03  0.27915633985E+03  0.00000000000E+00 0.  1.
         21   -1    0    0  504  503 -0.00000000000E+00 -0.00000000000E+00 -0.32215734023E+02  0.32215734023E+02  0.00000000000E+00 0.  1.
         25    2    1    2    0    0 -0.52549685331E+02  0.77771784521E+01  0.18939377167E+03  0.23305482128E+03  0.12499037979E+03 0.  0.
          5    1    3    3  501    0 -0.73635946281E+02 -0.12450557184E+02  0.18965997962E+03  0.20383372348E+03  0.10000000000E+00 0. -1.
         -5    1    3    3    0  501  0.21086260949E+02  0.20227735637E+02 -0.26620794745E+00  0.29221097797E+02  0.10000000000E+00 0. -1.
         21    1    1    2  504  502  0.52549685331E+02 -0.77771784521E+01  0.57546834162E+02  0.78317252602E+02  0.00000000000E+00 0.  1.
<mgrwt>
<rscale>  1 0.13581071E+03</rscale>
<asrwt>0</asrwt>
<pdfrwt beam="1">  1       21 0.42947128E-01 0.13581071E+03</pdfrwt>
<pdfrwt beam="2">  1       21 0.49562670E-02 0.13581071E+03</pdfrwt>
<totfact> 0.14223988E+06</totfact>
</mgrwt>
</event>
<event>
 6    1  0.4271609E-002  0.1289257E+03  0.7546771E-02  0.1229059E+00
         21   -1    0    0  504  502  0.00000000000E+00  0.00000000000E+00  0.21565346958E+03  0.21565346958E+03  0.00000000000E+00 0.  1.
         21   -1    0    0  502  503 -0.00000000000E+00 -0.00000000000E+00 -0.44133439816E+03  0.44133439816E+03  0.00000000000E+00 0.  1.
         25    2    1    2    0    0 -0.26031977271E+02  0.17227159647E+02  0.19575534448E+03  0.23439708326E+03  0.12508956343E+03 0.  0.
          5    1    3    3  501    0 -0.26460256192E+02 -0.52684283395E+02  0.93036834381E+02  0.11014373076E+03  0.10000000000E+00 0.  1.
         -5    1    3    3    0  501  0.42827892048E+00  0.69911443041E+02  0.10271851010E+03  0.12425335250E+03  0.10000000000E+00 0.  1.
         21    1    1    2  504  503  0.26031977271E+02 -0.17227159647E+02 -0.42143627306E+03  0.42259078447E+03  0.00000000000E+00 0.  1.
<mgrwt>
<rscale>  1 0.12892571E+03</rscale>
<asrwt>0</asrwt>
<pdfrwt beam="1">  1       21 0.33177457E-01 0.12892571E+03</pdfrwt>
<pdfrwt beam="2">  1       21 0.67897600E-01 0.12892571E+03</pdfrwt>
<totfact> 0.18091483E+04</totfact>
</mgrwt>
</event>
<event>
 6    1  0.4271609E-002  0.1314480E+03  0.7546771E-02  0.1225323E+00
         21   -1    0    0  503  502  0.00000000000E+00  0.00000000000E+00  0.27578648211E+03  0.27578648211E+03  0.00000000000E+00 0. -1.
         21   -1    0    0  504  503 -0.00000000000E+00 -0.00000000000E+00 -0.33557400551E+02  0.33557400551E+02  0.00000000000E+00 0. -1.
         25    2    1    2    0    0 -0.40162823237E+02  0.41154035544E+01  0.23362259225E+03  0.26806361407E+03  0.12509435103E+03 0.  0.
          5    1    3    3  501    0 -0.44724984120E+02 -0.65448409647E+01  0.24657211644E+03  0.25068102791E+03  0.10000000000E+00 0. -1.
         -5    1    3    3    0  501  0.45621608828E+01  0.10660244519E+02 -0.12949524184E+02  0.17382586163E+02  0.10000000000E+00 0. -1.
         21    1    1    2  504  502  0.40162823237E+02 -0.41154035544E+01  0.86064893059E+01  0.41280268591E+02  0.00000000000E+00 0. -1.
<mgrwt>
<rscale>  1 0.13144803E+03</rscale>
<asrwt>0</asrwt>
<pdfrwt beam="1">  1       21 0.42428688E-01 0.13144803E+03</pdfrwt>
<pdfrwt beam="2">  1       21 0.51626772E-02 0.13144803E+03</pdfrwt>
<totfact> 0.13604543E+06</totfact>
</mgrwt>
</event>
<event>
 6    1  0.4271609E-002  0.1592436E+03  0.7546771E-02  0.1189553E+00
         21   -1    0    0  504  502  0.00000000000E+00  0.00000000000E+00  0.17835538605E+03  0.17835538605E+03  0.00000000000E+00 0.  1.
         21   -1    0    0  502  503 -0.00000000000E+00 -0.00000000000E+00 -0.18621684159E+03  0.18621684159E+03  0.00000000000E+00 0. -1.
         25    2    1    2    0    0 -0.35267485479E+02  0.92134295002E+02 -0.13141366027E+03  0.20646570930E+03  0.12500406059E+03 0.  0.
          5    1    3    3  501    0 -0.50630190909E+02  0.51686049342E+02 -0.46278048777E+01  0.72500279351E+02  0.10000000000E+00 0.  1.
         -5    1    3    3    0  501  0.15362705430E+02  0.40448245660E+02 -0.12678585539E+03  0.13396542995E+03  0.10000000000E+00 0.  1.
         21    1    1    2  504  503  0.35267485479E+02 -0.92134295002E+02  0.12355220473E+03  0.15810651834E+03  0.00000000000E+00 0.  1.
<mgrwt>
<rscale>  1 0.15924365E+03</rscale>
<asrwt>0</asrwt>
<pdfrwt beam="1">  1       21 0.27439290E-01 0.15924365E+03</pdfrwt>
<pdfrwt beam="2">  1       21 0.28648745E-01 0.15924365E+03</pdfrwt>
<totfact> 0.14932183E+05</totfact>
</mgrwt>
</event>
<event>
 6    1  0.4271609E-002  0.1267649E+03  0.7546771E-02  0.1232337E+00
         21   -1    0    0  504  502  0.00000000000E+00  0.00000000000E+00  0.31251084808E+03  0.31251084808E+03  0.00000000000E+00 0. -1.
         21   -1    0    0  502  503 -0.00000000000E+00 -0.00000000000E+00 -0.86706889497E+02  0.86706889497E+02  0.00000000000E+00 0.  1.
         25    2    1    2    0    0  0.19994603860E+02  0.64971067795E+01  0.29809644310E+03  0.32393028910E+03  0.12500938454E+03 0.  0.
          5    1    3    3  501    0  0.30107135271E+02 -0.36922513208E+02  0.26275612832E+03  0.26704026765E+03  0.10000000000E+00 0. -1.
         -5    1    3    3    0  501 -0.10112531411E+02  0.43419619987E+02  0.35340314787E+02  0.56890021450E+02  0.10000000000E+00 0. -1.
         21    1    1    2  504  503 -0.19994603860E+02 -0.64971067795E+01 -0.72292484523E+02  0.75287448479E+02  0.00000000000E+00 0.  1.
<mgrwt>
<rscale>  1 0.12676491E+03</rscale>
<asrwt>0</asrwt>
<pdfrwt beam="1">  1       21 0.48078591E-01 0.12676491E+03</pdfrwt>
<pdfrwt beam="2">  1       21 0.13339522E-01 0.12676491E+03</pdfrwt>
<totfact> 0.20425281E+05</totfact>
</mgrwt>
</event>
<event>
 6    1  0.4271609E-002  0.1259736E+03  0.7546771E-02  0.1233555E+00
         21   -1    0    0  504  502  0.00000000000E+00  0.00000000000E+00  0.25104432876E+03  0.25104432876E+03  0.00000000000E+00 0. -1.
         21   -1    0    0  502  503 -0.00000000000E+00 -0.00000000000E+00 -0.20016318907E+02  0.20016318907E+02  0.00000000000E+00 0. -1.
         25    2    1    2    0    0 -0.36610158509E+01  0.15200644656E+02  0.20120156291E+03  0.23738454973E+03  0.12499957159E+03 0.  0.
          5    1    3    3  501    0 -0.11928159528E+02 -0.52825387661E+02  0.62644763417E+02  0.82808085082E+02  0.10000000000E+00 0. -1.
         -5    1    3    3    0  501  0.82671436774E+01  0.68026032317E+02  0.13855679949E+03  0.15457646465E+03  0.10000000000E+00 0. -1.
         21    1    1    2  504  503  0.36610158509E+01 -0.15200644656E+02  0.29826446944E+02  0.33676097938E+02  0.00000000000E+00 0. -1.
<mgrwt>
<rscale>  1 0.12597363E+03</rscale>
<asrwt>0</asrwt>
<pdfrwt beam="1">  1       21 0.38622202E-01 0.12597363E+03</pdfrwt>
<pdfrwt beam="2">  1       21 0.30794338E-02 0.12597363E+03</pdfrwt>
<totfact> 0.38697989E+06</totfact>
</mgrwt>
</event>
<event>
 6    1  0.4271609E-002  0.1295535E+03  0.7546771E-02  0.1228120E+00
         21   -1    0    0  504  502  0.00000000000E+00  0.00000000000E+00  0.53656783834E+03  0.53656783834E+03  0.00000000000E+00 0.  1.
         21   -1    0    0  502  503 -0.00000000000E+00 -0.00000000000E+00 -0.28254977431E+02  0.28254977431E+02  0.00000000000E+00 0.  1.
         25    2    1    2    0    0  0.29069636196E+02  0.17716734637E+02  0.51420440624E+03  0.53027376743E+03  0.12500068238E+03 0.  0.
          5    1    3    3  501    0 -0.30999056016E+01  0.11845421494E+01 -0.70360050219E+01  0.77799692487E+01  0.10000000000E+00 0. -1.
         -5    1    3    3    0  501  0.32169541798E+02  0.16532192488E+02  0.52124041126E+03  0.52249379818E+03  0.10000000000E+00 0. -1.
         21    1    1    2  504  503 -0.29069636196E+02 -0.17716734637E+02 -0.58915453296E+01  0.34549048340E+02  0.00000000000E+00 0.  1.
<mgrwt>
<rscale>  1 0.12955345E+03</rscale>
<asrwt>0</asrwt>
<pdfrwt beam="1">  1       21 0.82548891E-01 0.12955345E+03</pdfrwt>
<pdfrwt beam="2">  1       21 0.43469200E-02 0.12955345E+03</pdfrwt>
<totfact> 0.44159622E+05</totfact>
</mgrwt>
</event>
<event>
 6    1  0.4271609E-002  0.1277774E+03  0.7546771E-02  0.1230791E+00
         21   -1    0    0  503  502  0.00000000000E+00  0.00000000000E+00  0.43359577736E+03  0.43359577736E+03  0.00000000000E+00 0. -1.
         21   -1    0    0  504  503 -0.00000000000E+00 -0.00000000000E+00 -0.16131569732E+02  0.16131569732E+02  0.00000000000E+00 0. -1.
         25    2    1    2    0    0  0.50863563050E+00  0.26493441186E+02  0.39445108854E+03  0.41463084034E+03  0.12499964550E+03 0.  0.
          5    1    3    3  501    0 -0.51526989436E+02  0.35511124866E+02  0.12205279237E+03  0.13716036145E+03  0.10000000000E+00 0. -1.
         -5    1    3    3    0  501  0.52035625066E+02 -0.90176836800E+01  0.27239829617E+03  0.27747047889E+03  0.10000000000E+00 0. -1.
         21    1    1    2  504  502 -0.50863563050E+00 -0.26493441186E+02  0.23013119088E+02  0.35096506753E+02  0.00000000000E+00 0. -1.
<mgrwt>
<rscale>  1 0.12777743E+03</rscale>
<asrwt>0</asrwt>
<pdfrwt beam="1">  1       21 0.66707034E-01 0.12777743E+03</pdfrwt>
<pdfrwt beam="2">  1       21 0.24817803E-02 0.12777743E+03</pdfrwt>
<totfact> 0.17773163E+06</totfact>
</mgrwt>
</event>
<event>
 6    1  0.4271609E-002  0.1263030E+03  0.7546771E-02  0.1233047E+00
         21   -1    0    0  504  502  0.00000000000E+00  0.00000000000E+00  0.15553575583E+02  0.15553575583E+02  0.00000000000E+00 0. -1.
         21   -1    0    0  502  503 -0.00000000000E+00 -0.00000000000E+00 -0.77955947273E+03  0.77955947273E+03  0.00000000000E+00 0.  1.
         25    2    1    2    0    0 -0.92695549976E+01  0.15579083100E+02 -0.24364427628E+03  0.27443575002E+03  0.12499526010E+03 0.  0.
          5    1    3    3  501    0 -0.54625825056E+02 -0.29478079792E+02 -0.11060481291E+03  0.12683206452E+03  0.10000000000E+00 0.  1.
         -5    1    3    3    0  501  0.45356270059E+02  0.45057162892E+02 -0.13303946336E+03  0.14760368550E+03  0.10000000000E+00 0.  1.
         21    1    1    2  504  503  0.92695549976E+01 -0.15579083100E+02 -0.52036162087E+03  0.52067729829E+03  0.00000000000E+00 0.  1.
<mgrwt>
<rscale>  1 0.12630300E+03</rscale>
<asrwt>0</asrwt>
<pdfrwt beam="1">  1       21 0.23928579E-02 0.12630300E+03</pdfrwt>
<pdfrwt beam="2">  1       21 0.11993222E+00 0.12630300E+03</pdfrwt>
<totfact> 0.49263502E+05</totfact>
</mgrwt>
</event>
<event>
 6    1  0.4271609E-002  0.1260596E+03  0.7546771E-02  0.1233423E+00
         21   -1    0    0  504  502  0.00000000000E+00  0.00000000000E+00  0.99593026712E+02  0.99593026712E+02  0.00000000000E+00 0.  1.
         21   -1    0    0  502  503 -0.00000000000E+00 -0.00000000000E+00 -0.52866942431E+02  0.52866942431E+02  0.00000000000E+00 0.  1.
         25    2    1    2    0    0 -0.16092457081E+02 -0.25773443407E+01  0.50386439691E+02  0.13575643417E+03  0.12500162493E+03 0.  0.
          5    1    3    3  501    0  0.33435277028E+02  0.38673670379E+02  0.49694638955E+02  0.71296126623E+02  0.10000000000E+00 0. -1.
         -5    1    3    3    0  501 -0.49527734108E+02 -0.41251014720E+02  0.69180073566E+00  0.64460307551E+02  0.10000000000E+00 0. -1.
         21    1    1    2  504  503  0.16092457081E+02  0.25773443407E+01 -0.36603554104E+01  0.16703534969E+02  0.00000000000E+00 0.  1.
<mgrwt>
<rscale>  1 0.12605957E+03</rscale>
<asrwt>0</asrwt>
<pdfrwt beam="1">  1       21 0.15322004E-01 0.12605957E+03</pdfrwt>
<pdfrwt beam="2">  1       21 0.81333758E-02 0.12605957E+03</pdfrwt>
<totfact> 0.43355174E+06</totfact>
</mgrwt>
</event>
<event>
 6    1  0.4271609E-002  0.1275137E+03  0.7546771E-02  0.1231192E+00
         21   -1    0    0  503  502  0.00000000000E+00  0.00000000000E+00  0.19735683203E+02  0.19735683203E+02  0.00000000000E+00 0.  1.
         21   -1    0    0  504  503 -0.00000000000E+00 -0.00000000000E+00 -0.30573172739E+03  0.30573172739E+03  0.00000000000E+00 0.  1.
         25    2    1    2    0    0  0.21267319881E+02  0.13194821256E+02 -0.21245209388E+03  0.24778140909E+03  0.12503332473E+03 0.  0.
          5    1    3    3  501    0  0.36045365764E+02 -0.27846852637E+02 -0.19589941912E+03  0.20112510536E+03  0.10000000000E+00 0.  1.
         -5    1    3    3    0  501 -0.14778045883E+02  0.41041673893E+02 -0.16552674762E+02  0.46656303731E+02  0.10000000000E+00 0.  1.
         21    1    1    2  504  502 -0.21267319881E+02 -0.13194821256E+02 -0.73543950310E+02  0.77686001507E+02  0.00000000000E+00 0.  1.
<mgrwt>
<rscale>  1 0.12751366E+03</rscale>
<asrwt>0</asrwt>
<pdfrwt beam="1">  1       21 0.30362589E-02 0.12751366E+03</pdfrwt>
<pdfrwt beam="2">  1       21 0.47035651E-01 0.12751366E+03</pdfrwt>
<totfact> 0.26632145E+06</totfact>
</mgrwt>
</event>
<event>
 6    1  0.4271609E-002  0.1284551E+03  0.7546771E-02  0.1229766E+00
         21   -1    0    0  503  502  0.00000000000E+00  0.00000000000E+00  0.17546440537E+02  0.17546440537E+02  0.00000000000E+00 0. -1.
         21   -1    0    0  504  503 -0.00000000000E+00 -0.00000000000E+00 -0.55592844969E+03  0.55592844969E+03  0.00000000000E+00 0. -1.
         25    2    1    2    0    0  0.10682003791E+02  0.27593429274E+02 -0.22808145957E+03  0.26176679983E+03  0.12500081101E+03 0.  0.
          5    1    3    3  501    0 -0.43035868255E+02 -0.27816471551E+02 -0.94130494071E+02  0.10717463301E+03  0.10000000000E+00 0.  1.
         -5    1    3    3    0  501  0.53717872046E+02  0.55409900824E+02 -0.13395096550E+03  0.15459216683E+03  0.10000000000E+00 0.  1.
         21    1    1    2  504  502 -0.10682003791E+02 -0.27593429274E+02 -0.31030054958E+03  0.31170809039E+03  0.00000000000E+00 0. -1.
<mgrwt>
<rscale>  1 0.12845507E+03</rscale>
<asrwt>0</asrwt>
<pdfrwt beam="1">  1       21 0.26994526E-02 0.12845507E+03</pdfrwt>
<pdfrwt beam="2">  1       21 0.85527448E-01 0.12845507E+03</pdfrwt>
<totfact> 0.89470363E+05</totfact>
</mgrwt>
</event>
<event>
 6    1  0.4271609E-002  0.1491251E+03  0.7546771E-02  0.1201552E+00
         21   -1    0    0  503  502  0.00000000000E+00  0.00000000000E+00  0.11556442312E+03  0.11556442312E+03  0.00000000000E+00 0.  1.
         21   -1    0    0  504  503 -0.00000000000E+00 -0.00000000000E+00 -0.29551340789E+03  0.29551340789E+03  0.00000000000E+00 0.  1.
         25    2    1    2    0    0  0.68298875523E+02  0.44152694312E+02  0.57699570950E+02  0.15989854674E+03  0.12499643174E+03 0.  0.
          5    1    3    3  501    0  0.38535000196E+02  0.62886468446E+01 -0.36913958658E+02  0.53732147389E+02  0.10000000000E+00 0. -1.
         -5    1    3    3    0  501  0.29763875327E+02  0.37864047467E+02  0.94613529609E+02  0.10616639935E+03  0.10000000000E+00 0. -1.
         21    1    1    2  504  502 -0.68298875523E+02 -0.44152694312E+02 -0.23764855572E+03  0.25117928427E+03  0.00000000000E+00 0.  1.
<mgrwt>
<rscale>  1 0.14912513E+03</rscale>
<asrwt>0</asrwt>
<pdfrwt beam="1">  1       21 0.17779142E-01 0.14912513E+03</pdfrwt>
<pdfrwt beam="2">  1       21 0.45463601E-01 0.14912513E+03</pdfrwt>
<totfact> 0.13527033E+05</totfact>
</mgrwt>
</event>
<event>
 6    1  0.4271609E-002  0.1280659E+03  0.7546771E-02  0.1230354E+00
         21   -1    0    0  504  502  0.00000000000E+00  0.00000000000E+00  0.98279374622E+01  0.98279374622E+01  0.00000000000E+00 0.  1.
         21   -1    0    0  502  503 -0.00000000000E+00 -0.00000000000E+00 -0.61883930848E+03  0.61883930848E+03  0.00000000000E+00 0.  1.
         25    2    1    2    0    0  0.94836715399E+01 -0.26169882159E+02 -0.49277192324E+03  0.50914146639E+03  0.12500424675E+03 0.  0.
          5    1    3    3  501    0 -0.98317991536E+01 -0.61836162955E+02 -0.42912534266E+03  0.43366916542E+03  0.10000000000E+00 0. -1.
         -5    1    3    3    0  501  0.19315470694E+02  0.35666280796E+02 -0.63646580578E+02  0.75472300967E+02  0.10000000000E+00 0. -1.
         21    1    1    2  504  503 -0.94836715399E+01  0.26169882159E+02 -0.11623944778E+03  0.11952577956E+03  0.00000000000E+00 0.  1.
<mgrwt>
<rscale>  1 0.12806586E+03</rscale>
<asrwt>0</asrwt>
<pdfrwt beam="1">  1       21 0.15119896E-02 0.12806586E+03</pdfrwt>
<pdfrwt beam="2">  1       21 0.95206096E-01 0.12806586E+03</pdfrwt>
<totfact> 0.17844900E+06</totfact>
</mgrwt>
</event>
<event>
 6    1  0.4271609E-002  0.1312945E+03  0.7546771E-02  0.1225548E+00
         21   -1    0    0  504  502  0.00000000000E+00  0.00000000000E+00  0.10269859867E+04  0.10269859867E+04  0.00000000000E+00 0.  1.
         21   -1    0    0  502  503 -0.00000000000E+00 -0.00000000000E+00 -0.73232848214E+01  0.73232848214E+01  0.00000000000E+00 0.  1.
         25    2    1    2    0    0 -0.28440194484E+02 -0.28331796689E+02  0.84141454478E+03  0.85159654379E+03  0.12500680727E+03 0.  0.
          5    1    3    3  501    0  0.23680732941E+02 -0.49569075354E+02  0.19076737740E+03  0.19851970337E+03  0.10000000000E+00 0.  1.
         -5    1    3    3    0  501 -0.52120927424E+02  0.21237278665E+02  0.65064716738E+03  0.65307684043E+03  0.10000000000E+00 0.  1.
         21    1    1    2  504  503  0.28440194484E+02  0.28331796689E+02  0.17824815710E+03  0.18271272774E+03  0.00000000000E+00 0.  1.
<mgrwt>
<rscale>  1 0.13129447E+03</rscale>
<asrwt>0</asrwt>
<pdfrwt beam="1">  1       21 0.15799773E+00 0.13129447E+03</pdfrwt>
<pdfrwt beam="2">  1       21 0.11266600E-02 0.13129447E+03</pdfrwt>
<totfact> 0.81901004E+05</totfact>
</mgrwt>
</event>
<event>
 6    1  0.4271609E-002  0.1450834E+03  0.7546771E-02  0.1206648E+00
         21   -1    0    0  503  502  0.00000000000E+00  0.00000000000E+00  0.10453100938E+03  0.10453100938E+03  0.00000000000E+00 0. -1.
         21   -1    0    0  504  503 -0.00000000000E+00 -0.00000000000E+00 -0.13559660372E+03  0.13559660372E+03  0.00000000000E+00 0. -1.
         25    2    1    2    0    0  0.24729426556E+02  0.69376533852E+02  0.25440045546E+02  0.14729693215E+03  0.12499816926E+03 0.  0.
          5    1    3    3  501    0  0.71277289375E+02  0.21507742092E+02 -0.34815233587E+01  0.74532985687E+02  0.10000000000E+00 0. -1.
         -5    1    3    3    0  501 -0.46547862819E+02  0.47868791760E+02  0.28921568904E+02  0.72763946467E+02  0.10000000000E+00 0. -1.
         21    1    1    2  504  502 -0.24729426556E+02 -0.69376533852E+02 -0.56505639885E+02  0.92830680951E+02  0.00000000000E+00 0. -1.
<mgrwt>
<rscale>  1 0.14508339E+03</rscale>
<asrwt>0</asrwt>
<pdfrwt beam="1">  1       21 0.16081694E-01 0.14508339E+03</pdfrwt>
<pdfrwt beam="2">  1       21 0.20861016E-01 0.14508339E+03</pdfrwt>
<totfact> 0.73974827E+05</totfact>
</mgrwt>
</event>
<event>
 6    1  0.4271609E-002  0.1268784E+03  0.7546771E-02  0.1232163E+00
         21   -1    0    0  503  502  0.00000000000E+00  0.00000000000E+00  0.11108038071E+02  0.11108038071E+02  0.00000000000E+00 0.  1.
         21   -1    0    0  504  503 -0.00000000000E+00 -0.00000000000E+00 -0.61099448828E+03  0.61099448828E+03  0.00000000000E+00 0.  1.
         25    2    1    2    0    0  0.18537723354E+02  0.11372631898E+02 -0.36919839108E+03  0.39039157588E+03  0.12500058639E+03 0.  0.
          5    1    3    3  501    0 -0.34840365043E+02  0.50029354844E+02 -0.17535131548E+03  0.18564719557E+03  0.10000000000E+00 0. -1.
         -5    1    3    3    0  501  0.53378088398E+02 -0.38656722945E+02 -0.19384707560E+03  0.20474438031E+03  0.10000000000E+00 0. -1.
         21    1    1    2  504  502 -0.18537723354E+02 -0.11372631898E+02 -0.23068805913E+03  0.23171095047E+03  0.00000000000E+00 0.  1.
<mgrwt>
<rscale>  1 0.12687841E+03</rscale>
<asrwt>0</asrwt>
<pdfrwt beam="1">  1       21 0.17089284E-02 0.12687841E+03</pdfrwt>
<pdfrwt beam="2">  1       21 0.93999181E-01 0.12687841E+03</pdfrwt>
<totfact> 0.15106576E+06</totfact>
</mgrwt>
</event>
<event>
 6    1  0.4271609E-002  0.1262044E+03  0.7546771E-02  0.1233199E+00
         21   -1    0    0  503  502  0.00000000000E+00  0.00000000000E+00  0.55967059232E+03  0.55967059232E+03  0.00000000000E+00 0. -1.
         21   -1    0    0  504  503 -0.00000000000E+00 -0.00000000000E+00 -0.13010168525E+02  0.13010168525E+02  0.00000000000E+00 0. -1.
         25    2    1    2    0    0  0.16101492473E+02 -0.67695276554E+01  0.53905258583E+03  0.55362915296E+03  0.12498985622E+03 0.  0.
          5    1    3    3  501    0  0.28109287180E+02 -0.39283664573E+02  0.49605295205E+03  0.49839931738E+03  0.10000000000E+00 0.  1.
         -5    1    3    3    0  501 -0.12007794707E+02  0.32514136917E+02  0.42999633773E+02  0.55229835577E+02  0.10000000000E+00 0.  1.
         21    1    1    2  504  502 -0.16101492473E+02  0.67695276554E+01  0.76078379720E+01  0.19051607889E+02  0.00000000000E+00 0. -1.
<mgrwt>
<rscale>  1 0.12620439E+03</rscale>
<asrwt>0</asrwt>
<pdfrwt beam="1">  1       21 0.86103150E-01 0.12620439E+03</pdfrwt>
<pdfrwt beam="2">  1       21 0.20015648E-02 0.12620439E+03</pdfrwt>
<totfact> 0.14316371E+06</totfact>
</mgrwt>
</event>
<event>
 6    1  0.4271609E-002  0.1270309E+03  0.7546771E-02  0.1231929E+00
         21   -1    0    0  503  502  0.00000000000E+00  0.00000000000E+00  0.92323743729E+02  0.92323743729E+02  0.00000000000E+00 0. -1.
         21   -1    0    0  504  503 -0.00000000000E+00 -0.00000000000E+00 -0.61119627599E+02  0.61119627599E+02  0.00000000000E+00 0. -1.
         25    2    1    2    0    0  0.74270345603E+01 -0.21386811979E+02  0.31189064504E+02  0.13080365411E+03  0.12499712643E+03 0.  0.
          5    1    3    3  501    0  0.10104984313E+02  0.51802978681E+02  0.49691722506E+01  0.53012847321E+02  0.10000000000E+00 0.  1.
         -5    1    3    3    0  501 -0.26779497523E+01 -0.73189790660E+02  0.26219892253E+02  0.77790806793E+02  0.10000000000E+00 0.  1.
         21    1    1    2  504  502 -0.74270345603E+01  0.21386811979E+02  0.15051625712E-01  0.22639717214E+02  0.00000000000E+00 0. -1.
<mgrwt>
<rscale>  1 0.12703086E+03</rscale>
<asrwt>0</asrwt>
<pdfrwt beam="1">  1       21 0.14203653E-01 0.12703086E+03</pdfrwt>
<pdfrwt beam="2">  1       21 0.94030196E-02 0.12703086E+03</pdfrwt>
<totfact> 0.38659588E+06</totfact>
</mgrwt>
</event>
<event>
 6    1  0.4271609E-002  0.1260625E+03  0.7546771E-02  0.1233418E+00
         21   -1    0    0  503  502  0.00000000000E+00  0.00000000000E+00  0.18499520433E+03  0.18499520433E+03  0.00000000000E+00 0. -1.
         21   -1    0    0  504  503 -0.00000000000E+00 -0.00000000000E+00 -0.30094210283E+02  0.30094210283E+02  0.00000000000E+00 0. -1.
         25    2    1    2    0    0  0.16370293648E+02 -0.12793928892E+01  0.15346971592E+03  0.19860694158E+03  0.12498856019E+03 0.  0.
          5    1    3    3  501    0 -0.11473692390E+02  0.56900626863E+02  0.96177805978E+02  0.11233658049E+03  0.10000000000E+00 0. -1.
         -5    1    3    3    0  501  0.27843986038E+02 -0.58180019752E+02  0.57291909940E+02  0.86270361083E+02  0.10000000000E+00 0. -1.
         21    1    1    2  504  502 -0.16370293648E+02  0.12793928892E+01  0.14312781302E+01  0.16482473036E+02  0.00000000000E+00 0. -1.
<mgrwt>
<rscale>  1 0.12606254E+03</rscale>
<asrwt>0</asrwt>
<pdfrwt beam="1">  1       21 0.28460800E-01 0.12606254E+03</pdfrwt>
<pdfrwt beam="2">  1       21 0.46298786E-02 0.12606254E+03</pdfrwt>
<totfact> 0.35733341E+06</totfact>
</mgrwt>
</event>
<event>
 6    1  0.4271609E-002  0.1285226E+03  0.7546771E-02  0.1229665E+00
         21   -1    0    0  504  502  0.00000000000E+00  0.00000000000E+00  0.32731104249E+02  0.32731104249E+02  0.00000000000E+00 0. -1.
         21   -1    0    0  502  503 -0.00000000000E+00 -0.00000000000E+00 -0.19372165413E+03  0.19372165413E+03  0.00000000000E+00 0. -1.
         25    2    1    2    0    0 -0.52995671454E+01  0.29390457255E+02 -0.13936828467E+03  0.18958262490E+03  0.12500467392E+03 0.  0.
          5    1    3    3  501    0  0.22893102573E+02 -0.43661388738E+02 -0.65100270419E+02  0.81660677321E+02  0.10000000000E+00 0. -1.
         -5    1    3    3    0  501 -0.28192669718E+02  0.73051845993E+02 -0.74268014254E+02  0.10792194758E+03  0.10000000000E+00 0. -1.
         21    1    1    2  504  503  0.52995671454E+01 -0.29390457255E+02 -0.21622265204E+02  0.36870133471E+02  0.00000000000E+00 0. -1.
<mgrwt>
<rscale>  1 0.12852258E+03</rscale>
<asrwt>0</asrwt>
<pdfrwt beam="1">  1       21 0.50355545E-02 0.12852258E+03</pdfrwt>
<pdfrwt beam="2">  1       21 0.29803331E-01 0.12852258E+03</pdfrwt>
<totfact> 0.28430877E+06</totfact>
</mgrwt>
</event>
<event>
 6    1  0.4271609E-002  0.1263560E+03  0.7546771E-02  0.1232965E+00
         21   -1    0    0  503  502  0.00000000000E+00  0.00000000000E+00  0.78696906144E+02  0.78696906144E+02  0.00000000000E+00 0. -1.
         21   -1    0    0  504  503 -0.00000000000E+00 -0.00000000000E+00 -0.82322272800E+02  0.82322272800E+02  0.00000000000E+00 0. -1.
         25    2    1    2    0    0  0.10629923274E+02 -0.15109077156E+02  0.23179878389E+02  0.12846459949E+03  0.12499826830E+03 0.  0.
          5    1    3    3  501    0 -0.56907783675E+02  0.74017446374E+00  0.83082969200E+01  0.57515923871E+02  0.10000000000E+00 0. -1.
         -5    1    3    3    0  501  0.67537706950E+02 -0.15849251620E+02  0.14871581469E+02  0.70948675621E+02  0.10000000000E+00 0. -1.
         21    1    1    2  504  502 -0.10629923274E+02  0.15109077156E+02 -0.26805245045E+02  0.32554579452E+02  0.00000000000E+00 0. -1.
<mgrwt>
<rscale>  1 0.12635603E+03</rscale>
<asrwt>0</asrwt>
<pdfrwt beam="1">  1       21 0.12107216E-01 0.12635603E+03</pdfrwt>
<pdfrwt beam="2">  1       21 0.12664965E-01 0.12635603E+03</pdfrwt>
<totfact> 0.30429329E+06</totfact>
</mgrwt>
</event>
<event>
 6    1  0.4271609E-002  0.1273504E+03  0.7546771E-02  0.1231441E+00
         21   -1    0    0  503  502  0.00000000000E+00  0.00000000000E+00  0.14689232004E+03  0.14689232004E+03  0.00000000000E+00 0.  1.
         21   -1    0    0  504  503 -0.00000000000E+00 -0.00000000000E+00 -0.41133825479E+02  0.41133825479E+02  0.00000000000E+00 0.  1.
         25    2    1    2    0    0 -0.21250383472E+02 -0.11880668183E+02  0.10247382034E+03  0.16345953893E+03  0.12500163175E+03 0.  0.
          5    1    3    3  501    0 -0.29838085525E+02 -0.57693751130E+02  0.96703910142E+02  0.11649264571E+03  0.10000000000E+00 0. -1.
         -5    1    3    3    0  501  0.85877020533E+01  0.45813082947E+02  0.57699101949E+01  0.46966893226E+02  0.10000000000E+00 0. -1.
         21    1    1    2  504  502  0.21250383472E+02  0.11880668183E+02  0.32846742210E+01  0.24566606581E+02  0.00000000000E+00 0.  1.
<mgrwt>
<rscale>  1 0.12735045E+03</rscale>
<asrwt>0</asrwt>
<pdfrwt beam="1">  1       21 0.22598818E-01 0.12735045E+03</pdfrwt>
<pdfrwt beam="2">  1       21 0.63282809E-02 0.12735045E+03</pdfrwt>
<totfact> 0.32658034E+06</totfact>
</mgrwt>
</event>
<event>
 6    1  0.4271609E-002  0.1348186E+03  0.7546771E-02  0.1220476E+00
         21   -1    0    0  503  502  0.00000000000E+00  0.00000000000E+00  0.15003722145E+03  0.15003722145E+03  0.00000000000E+00 0. -1.
         21   -1    0    0  504  503 -0.00000000000E+00 -0.00000000000E+00 -0.86891112379E+02  0.86891112379E+02  0.00000000000E+00 0. -1.
         25    2    1    2    0    0  0.22683757866E+02 -0.45111400085E+02  0.10536702713E+03  0.17110890500E+03  0.12500582257E+03 0.  0.
          5    1    3    3  501    0 -0.37962056884E+02 -0.44952232323E+02  0.91682387626E+02  0.10893801519E+03  0.10000000000E+00 0. -1.
         -5    1    3    3    0  501  0.60645814750E+02 -0.15916776161E+00  0.13684639507E+02  0.62170889808E+02  0.10000000000E+00 0. -1.
         21    1    1    2  504  502 -0.22683757866E+02  0.45111400085E+02 -0.42220918064E+02  0.65819428824E+02  0.00000000000E+00 0. -1.
<mgrwt>
<rscale>  1 0.13481857E+03</rscale>
<asrwt>0</asrwt>
<pdfrwt beam="1">  1       21 0.23082649E-01 0.13481857E+03</pdfrwt>
<pdfrwt beam="2">  1       21 0.13367863E-01 0.13481857E+03</pdfrwt>
<totfact> 0.85446264E+05</totfact>
</mgrwt>
</event>
<event>
 6    1  0.4271609E-002  0.1262118E+03  0.7546771E-02  0.1233187E+00
         21   -1    0    0  504  502  0.00000000000E+00  0.00000000000E+00  0.14464411685E+03  0.14464411685E+03  0.00000000000E+00 0.  1.
         21   -1    0    0  502  503 -0.00000000000E+00 -0.00000000000E+00 -0.35812432054E+02  0.35812432054E+02  0.00000000000E+00 0.  1.
         25    2    1    2    0    0  0.17099126883E+02  0.30882590893E+01  0.91296943732E+02  0.15577083181E+03  0.12501001009E+03 0.  0.
          5    1    3    3  501    0 -0.51338250320E+02 -0.11058572605E+02  0.20740672893E+02  0.56463204709E+02  0.10000000000E+00 0. -1.
         -5    1    3    3    0  501  0.68437377203E+02  0.14146831695E+02  0.70556270840E+02  0.99307627100E+02  0.10000000000E+00 0. -1.
         21    1    1    2  504  503 -0.17099126883E+02 -0.30882590893E+01  0.17534741068E+02  0.24685717099E+02  0.00000000000E+00 0.  1.
<mgrwt>
<rscale>  1 0.12621181E+03</rscale>
<asrwt>0</asrwt>
<pdfrwt beam="1">  1       21 0.22252941E-01 0.12621181E+03</pdfrwt>
<pdfrwt beam="2">  1       21 0.55096050E-02 0.12621181E+03</pdfrwt>
<totfact> 0.42483417E+06</totfact>
</mgrwt>
</event>
<event>
 6    1  0.4271609E-002  0.1286579E+03  0.7546771E-02  0.1229461E+00
         21   -1    0    0  503  502  0.00000000000E+00  0.00000000000E+00  0.13399190045E+03  0.13399190045E+03  0.00000000000E+00 0. -1.
         21   -1    0    0  504  503 -0.00000000000E+00 -0.00000000000E+00 -0.47257462532E+02  0.47257462532E+02  0.00000000000E+00 0.  1.
         25    2    1    2    0    0 -0.23370642498E+01  0.30367776941E+02  0.68653094538E+02  0.14582904785E+03  0.12500080025E+03 0.  0.
          5    1    3    3  501    0  0.14174411669E+02  0.54448591660E+02 -0.14161254820E+02  0.58018223154E+02  0.10000000000E+00 0. -1.
         -5    1    3    3    0  501 -0.16511475919E+02 -0.24080814719E+02  0.82814349358E+02  0.87810824698E+02  0.10000000000E+00 0. -1.
         21    1    1    2  504  502  0.23370642498E+01 -0.30367776941E+02  0.18081343385E+02  0.35420315134E+02  0.00000000000E+00 0. -1.
<mgrwt>
<rscale>  1 0.12865793E+03</rscale>
<asrwt>0</asrwt>
<pdfrwt beam="1">  1       21 0.20614138E-01 0.12865793E+03</pdfrwt>
<pdfrwt beam="2">  1       21 0.72703789E-02 0.12865793E+03</pdfrwt>
<totfact> 0.30591201E+06</totfact>
</mgrwt>
</event>
<event>
 6    1  0.4271609E-002  0.1285403E+03  0.7546771E-02  0.1229638E+00
         21   -1    0    0  503  502  0.00000000000E+00  0.00000000000E+00  0.22718474379E+03  0.22718474379E+03  0.00000000000E+00 0.  1.
         21   -1    0    0  504  503 -0.00000000000E+00 -0.00000000000E+00 -0.45366292013E+03  0.45366292013E+03  0.00000000000E+00 0.  1.
         25    2    1    2    0    0 -0.24287056469E+02  0.17458129650E+02  0.20844798414E+03  0.24489421173E+03  0.12501186122E+03 0.  0.
          5    1    3    3  501    0  0.67584662857E+01 -0.11502332567E+02 -0.13465726623E+02  0.18955640704E+02  0.10000000000E+00 0.  1.
         -5    1    3    3    0  501 -0.31045522755E+02  0.28960462217E+02  0.22191371076E+03  0.22593857103E+03  0.10000000000E+00 0.  1.
         21    1    1    2  504  502  0.24287056469E+02 -0.17458129650E+02 -0.43492616048E+03  0.43595345218E+03  0.00000000000E+00 0.  1.
<mgrwt>
<rscale>  1 0.12854032E+03</rscale>
<asrwt>0</asrwt>
<pdfrwt beam="1">  1       21 0.34951499E-01 0.12854032E+03</pdfrwt>
<pdfrwt beam="2">  1       21 0.69794295E-01 0.12854032E+03</pdfrwt>
<totfact> 0.15392442E+04</totfact>
</mgrwt>
</event>
<event>
 6    1  0.4271609E-002  0.1261000E+03  0.7546771E-02  0.1233360E+00
         21   -1    0    0  503  502  0.00000000000E+00  0.00000000000E+00  0.22686635868E+03  0.22686635868E+03  0.00000000000E+00 0. -1.
         21   -1    0    0  504  503 -0.00000000000E+00 -0.00000000000E+00 -0.23814011603E+02  0.23814011603E+02  0.00000000000E+00 0. -1.
         25    2    1    2    0    0 -0.15642423264E+02  0.45271623984E+01  0.19571132908E+03  0.23281780747E+03  0.12504409839E+03 0.  0.
          5    1    3    3  501    0 -0.62919026037E+02  0.30211789396E+02  0.87141431444E+02  0.11164763827E+03  0.10000000000E+00 0.  1.
         -5    1    3    3    0  501  0.47276602774E+02 -0.25684626998E+02  0.10856989763E+03  0.12117016921E+03  0.10000000000E+00 0.  1.
         21    1    1    2  504  502  0.15642423264E+02 -0.45271623984E+01  0.73410180049E+01  0.17862562814E+02  0.00000000000E+00 0. -1.
<mgrwt>
<rscale>  1 0.12609999E+03</rscale>
<asrwt>0</asrwt>
<pdfrwt beam="1">  1       21 0.34902515E-01 0.12609999E+03</pdfrwt>
<pdfrwt beam="2">  1       21 0.36636943E-02 0.12609999E+03</pdfrwt>
<totfact> 0.35504256E+06</totfact>
</mgrwt>
</event>
<event>
 6    1  0.4271609E-002  0.1260046E+03  0.7546771E-02  0.1233508E+00
         21   -1    0    0  503  502  0.00000000000E+00  0.00000000000E+00  0.21697310749E+04  0.21697310749E+04  0.00000000000E+00 0.  1.
         21   -1    0    0  504  503 -0.00000000000E+00 -0.00000000000E+00 -0.55640791315E+01  0.55640791315E+01  0.00000000000E+00 0.  1.
         25    2    1    2    0    0  0.15643398150E+02 -0.26865985604E+01  0.21509576374E+04  0.21546451936E+04  0.12500087464E+03 0.  0.
          5    1    3    3  501    0  0.59495903037E+02  0.20027117249E+02  0.68907812223E+03  0.69193172816E+03  0.10000000000E+00 0.  1.
         -5    1    3    3    0  501 -0.43852504887E+02 -0.22713715809E+02  0.14618795152E+04  0.14627134654E+04  0.10000000000E+00 0.  1.
         21    1    1    2  504  502 -0.15643398150E+02  0.26865985604E+01  0.13209358359E+02  0.20649960430E+02  0.00000000000E+00 0.  1.
<mgrwt>
<rscale>  1 0.12600457E+03</rscale>
<asrwt>0</asrwt>
<pdfrwt beam="1">  1       21 0.33380410E+00 0.12600457E+03</pdfrwt>
<pdfrwt beam="2">  1       21 0.85601391E-03 0.12600457E+03</pdfrwt>
<totfact> 0.11196362E+05</totfact>
</mgrwt>
</event>
<event>
 6    1  0.4271609E-002  0.1334572E+03  0.7546771E-02  0.1222414E+00
         21   -1    0    0  504  502  0.00000000000E+00  0.00000000000E+00  0.88377422408E+03  0.88377422408E+03  0.00000000000E+00 0.  1.
         21   -1    0    0  502  503 -0.00000000000E+00 -0.00000000000E+00 -0.61077704403E+02  0.61077704403E+02  0.00000000000E+00 0.  1.
         25    2    1    2    0    0  0.15047357432E+02  0.44265954985E+02  0.86891825586E+03  0.87910737257E+03  0.12499975764E+03 0.  0.
          5    1    3    3  501    0  0.53884458915E+02 -0.73307391491E+01  0.20621328925E+03  0.21326323010E+03  0.10000000000E+00 0. -1.
         -5    1    3    3    0  501 -0.38837101484E+02  0.51596694135E+02  0.66270496661E+03  0.66584414247E+03  0.10000000000E+00 0. -1.
         21    1    1    2  504  503 -0.15047357432E+02 -0.44265954985E+02 -0.46221736181E+02  0.65744555912E+02  0.00000000000E+00 0.  1.
<mgrwt>
<rscale>  1 0.13345725E+03</rscale>
<asrwt>0</asrwt>
<pdfrwt beam="1">  1       21 0.13596526E+00 0.13345725E+03</pdfrwt>
<pdfrwt beam="2">  1       21 0.93965706E-02 0.13345725E+03</pdfrwt>
<totfact> 0.36245399E+04</totfact>
</mgrwt>
</event>
<event>
 6    1  0.4271609E-002  0.1362620E+03  0.7546771E-02  0.1218449E+00
         21   -1    0    0  503  502  0.00000000000E+00  0.00000000000E+00  0.41194557072E+02  0.41194557072E+02  0.00000000000E+00 0. -1.
         21   -1    0    0  504  503 -0.00000000000E+00 -0.00000000000E+00 -0.32078553137E+03  0.32078553137E+03  0.00000000000E+00 0. -1.
         25    2    1    2    0    0  0.48443752795E+02  0.24391677758E+02 -0.86459331922E+02  0.16137704157E+03  0.12500232934E+03 0.  0.
          5    1    3    3  501    0  0.20638879523E+02  0.53398372712E+02  0.88647325108E+01  0.57930501799E+02  0.10000000000E+00 0. -1.
         -5    1    3    3    0  501  0.27804873272E+02 -0.29006694954E+02 -0.95324064433E+02  0.10344653977E+03  0.10000000000E+00 0. -1.
         21    1    1    2  504  502 -0.48443752795E+02 -0.24391677758E+02 -0.19313164237E+03  0.20060304687E+03  0.00000000000E+00 0. -1.
<mgrwt>
<rscale>  1 0.13626200E+03</rscale>
<asrwt>0</asrwt>
<pdfrwt beam="1">  1       21 0.63376243E-02 0.13626200E+03</pdfrwt>
<pdfrwt beam="2">  1       21 0.49351619E-01 0.13626200E+03</pdfrwt>
<totfact> 0.70655996E+05</totfact>
</mgrwt>
</event>
<event>
 6    1  0.4271609E-002  0.1400580E+03  0.7546771E-02  0.1213251E+00
         21   -1    0    0  503  502  0.00000000000E+00  0.00000000000E+00  0.20513191300E+03  0.20513191300E+03  0.00000000000E+00 0.  1.
         21   -1    0    0  504  503 -0.00000000000E+00 -0.00000000000E+00 -0.50688034917E+02  0.50688034917E+02  0.00000000000E+00 0.  1.
         25    2    1    2    0    0  0.60786761045E+02  0.16962140638E+02  0.11654280162E+03  0.18220448670E+03  0.12503401869E+03 0.  0.
          5    1    3    3  501    0  0.68156244080E+02 -0.39756122163E+02  0.45800513193E+02  0.91233326505E+02  0.10000000000E+00 0.  1.
         -5    1    3    3    0  501 -0.73694830344E+01  0.56718262801E+02  0.70742288423E+02  0.90971160192E+02  0.10000000000E+00 0.  1.
         21    1    1    2  504  502 -0.60786761045E+02 -0.16962140638E+02  0.37901076471E+02  0.73615461223E+02  0.00000000000E+00 0.  1.
<mgrwt>
<rscale>  1 0.14005802E+03</rscale>
<asrwt>0</asrwt>
<pdfrwt beam="1">  1       21 0.31558755E-01 0.14005802E+03</pdfrwt>
<pdfrwt beam="2">  1       21 0.77981593E-02 0.14005802E+03</pdfrwt>
<totfact> 0.12112769E+06</totfact>
</mgrwt>
</event>
<event>
 6    1  0.4271609E-002  0.1278800E+03  0.7546771E-02  0.1230636E+00
         21   -1    0    0  503  502  0.00000000000E+00  0.00000000000E+00  0.26289885090E+03  0.26289885090E+03  0.00000000000E+00 0.  1.
         21   -1    0    0  504  503 -0.00000000000E+00 -0.00000000000E+00 -0.23799830107E+02  0.23799830107E+02  0.00000000000E+00 0.  1.
         25    2    1    2    0    0 -0.93411132320E+01 -0.25293919143E+02  0.21681626395E+03  0.25171925856E+03  0.12500501620E+03 0.  0.
          5    1    3    3  501    0  0.54011190128E+02  0.85482028999E+01  0.11225082794E+03  0.12486207913E+03  0.10000000000E+00 0. -1.
         -5    1    3    3    0  501 -0.63352303360E+02 -0.33842122043E+02  0.10456543601E+03  0.12685717943E+03  0.10000000000E+00 0. -1.
         21    1    1    2  504  502  0.93411132320E+01  0.25293919143E+02  0.22282756847E+02  0.34979422447E+02  0.00000000000E+00 0.  1.
<mgrwt>
<rscale>  1 0.12787999E+03</rscale>
<asrwt>0</asrwt>
<pdfrwt beam="1">  1       21 0.40445975E-01 0.12787999E+03</pdfrwt>
<pdfrwt beam="2">  1       21 0.36615125E-02 0.12787999E+03</pdfrwt>
<totfact> 0.26551192E+06</totfact>
</mgrwt>
</event>
<event>
 6    1  0.4271609E-002  0.1319757E+03  0.7546771E-02  0.1224553E+00
         21   -1    0    0  503  502  0.00000000000E+00  0.00000000000E+00  0.41228229740E+02  0.41228229740E+02  0.00000000000E+00 0.  1.
         21   -1    0    0  504  503 -0.00000000000E+00 -0.00000000000E+00 -0.29048665908E+03  0.29048665908E+03  0.00000000000E+00 0.  1.
         25    2    1    2    0    0  0.12154884336E+02 -0.40555231094E+02 -0.73774722950E+02  0.15119619397E+03  0.12500044537E+03 0.  0.
          5    1    3    3  501    0  0.65573956187E+02 -0.25761220253E+01 -0.28562197964E+02  0.71570868985E+02  0.10000000000E+00 0. -1.
         -5    1    3    3    0  501 -0.53419071852E+02 -0.37979109069E+02 -0.45212524987E+02  0.79625324984E+02  0.10000000000E+00 0. -1.
         21    1    1    2  504  502 -0.12154884336E+02  0.40555231094E+02 -0.17548370639E+03  0.18051869485E+03  0.00000000000E+00 0.  1.
<mgrwt>
<rscale>  1 0.13197568E+03</rscale>
<asrwt>0</asrwt>
<pdfrwt beam="1">  1       21 0.63428045E-02 0.13197568E+03</pdfrwt>
<pdfrwt beam="2">  1       21 0.44690256E-01 0.13197568E+03</pdfrwt>
<totfact> 0.86448887E+05</totfact>
</mgrwt>
</event>
<event>
 6    1  0.4271609E-002  0.1309932E+03  0.7546771E-02  0.1225989E+00
         21   -1    0    0  504  502  0.00000000000E+00  0.00000000000E+00  0.91938407754E+02  0.91938407754E+02  0.00000000000E+00 0. -1.
         21   -1    0    0  502  503 -0.00000000000E+00 -0.00000000000E+00 -0.10880707957E+03  0.10880707957E+03  0.00000000000E+00 0. -1.
         25    2    1    2    0    0 -0.98630527612E+01  0.37893191870E+02  0.35159209462E+02  0.13562963495E+03  0.12500421620E+03 0.  0.
          5    1    3    3  501    0 -0.39821091782E+02  0.26911511174E+02 -0.34398033258E+02  0.59103159614E+02  0.10000000000E+00 0.  1.
         -5    1    3    3    0  501  0.29958039021E+02  0.10981680696E+02  0.69557242719E+02  0.76526475338E+02  0.10000000000E+00 0.  1.
         21    1    1    2  504  503  0.98630527612E+01 -0.37893191870E+02 -0.52027881276E+02  0.65115852371E+02  0.00000000000E+00 0.  1.
<mgrwt>
<rscale>  1 0.13099324E+03</rscale>
<asrwt>0</asrwt>
<pdfrwt beam="1">  1       21 0.14144370E-01 0.13099324E+03</pdfrwt>
<pdfrwt beam="2">  1       21 0.16739551E-01 0.13099324E+03</pdfrwt>
<totfact> 0.13977816E+06</totfact>
</mgrwt>
</event>
<event>
 6    1  0.4271609E-002  0.1266252E+03  0.7546771E-02  0.1232551E+00
         21   -1    0    0  503  502  0.00000000000E+00  0.00000000000E+00  0.10935739610E+03  0.10935739610E+03  0.00000000000E+00 0.  1.
         21   -1    0    0  504  503 -0.00000000000E+00 -0.00000000000E+00 -0.50725225400E+02  0.50725225400E+02  0.00000000000E+00 0.  1.
         25    2    1    2    0    0  0.44998005762E+01 -0.19780579327E+02  0.59218242926E+02  0.13978821329E+03  0.12498969860E+03 0.  0.
          5    1    3    3  501    0 -0.33035890790E+02  0.42540787036E+02  0.26107707434E+02  0.59855751849E+02  0.10000000000E+00 0. -1.
         -5    1    3    3    0  501  0.37535691366E+02 -0.62321366363E+02  0.33110535492E+02  0.79932461443E+02  0.10000000000E+00 0. -1.
         21    1    1    2  504  502 -0.44998005762E+01  0.19780579327E+02 -0.58607222943E+00  0.20294408205E+02  0.00000000000E+00 0. -1.
<mgrwt>
<rscale>  1 0.12662521E+03</rscale>
<asrwt>0</asrwt>
<pdfrwt beam="1">  1       21 0.16824215E-01 0.12662521E+03</pdfrwt>
<pdfrwt beam="2">  1       21 0.78038809E-02 0.12662521E+03</pdfrwt>
<totfact> 0.39308085E+06</totfact>
</mgrwt>
</event>
<event>
 6    1  0.4271609E-002  0.1271401E+03  0.7546771E-02  0.1231762E+00
         21   -1    0    0  503  502  0.00000000000E+00  0.00000000000E+00  0.52816453723E+03  0.52816453723E+03  0.00000000000E+00 0. -1.
         21   -1    0    0  504  503 -0.00000000000E+00 -0.00000000000E+00 -0.17063628325E+02  0.17063628325E+02  0.00000000000E+00 0. -1.
         25    2    1    2    0    0  0.84287629980E+01  0.21646263007E+02  0.50562132300E+03  0.52136123007E+03  0.12500002081E+03 0.  0.
          5    1    3    3  501    0  0.31533366909E+02 -0.26617662722E+02  0.61706900771E+02  0.74233447988E+02  0.10000000000E+00 0.  1.
         -5    1    3    3    0  501 -0.23104603911E+02  0.48263925729E+02  0.44391442223E+03  0.44712778208E+03  0.10000000000E+00 0.  1.
         21    1    1    2  504  502 -0.84287629980E+01 -0.21646263007E+02  0.54795859107E+01  0.23866935488E+02  0.00000000000E+00 0. -1.
<mgrwt>
<rscale>  1 0.12714012E+03</rscale>
<asrwt>0</asrwt>
<pdfrwt beam="1">  1       21 0.81256070E-01 0.12714012E+03</pdfrwt>
<pdfrwt beam="2">  1       21 0.26251740E-02 0.12714012E+03</pdfrwt>
<totfact> 0.10508367E+06</totfact>
</mgrwt>
</event>
<event>
 6    1  0.4271609E-002  0.1504578E+03  0.7546771E-02  0.1199912E+00
         21   -1    0    0  503  502  0.00000000000E+00  0.00000000000E+00  0.88042473534E+02  0.88042473534E+02  0.00000000000E+00 0.  1.
         21   -1    0    0  504  503 -0.00000000000E+00 -0.00000000000E+00 -0.32026776774E+03  0.32026776774E+03  0.00000000000E+00 0.  1.
         25    2    1    2    0    0 -0.66782193267E+02 -0.50482994329E+02  0.11217380190E+02  0.15087533733E+03  0.12501657386E+03 0.  0.
          5    1    3    3  501    0 -0.39575286605E+02 -0.70045282949E+02 -0.39861293831E+02  0.89785732269E+02  0.10000000000E+00 0.  1.
         -5    1    3    3    0  501 -0.27206906662E+02  0.19562288620E+02  0.51078674020E+02  0.61089605056E+02  0.10000000000E+00 0.  1.
         21    1    1    2  504  502  0.66782193267E+02  0.50482994329E+02 -0.24344267439E+03  0.25743490395E+03  0.00000000000E+00 0.  1.
<mgrwt>
<rscale>  1 0.15045776E+03</rscale>
<asrwt>0</asrwt>
<pdfrwt beam="1">  1       21 0.13544996E-01 0.15045776E+03</pdfrwt>
<pdfrwt beam="2">  1       21 0.49271965E-01 0.15045776E+03</pdfrwt>
<totfact> 0.18777538E+05</totfact>
</mgrwt>
</event>
<event>
 6    1  0.4271609E-002  0.1385209E+03  0.7546771E-02  0.1215333E+00
         21   -1    0    0  504  502  0.00000000000E+00  0.00000000000E+00  0.98633793927E+03  0.98633793927E+03  0.00000000000E+00 0. -1.
         21   -1    0    0  502  503 -0.00000000000E+00 -0.00000000000E+00 -0.12004320224E+02  0.12004320224E+02  0.00000000000E+00 0. -1.
         25    2    1    2    0    0 -0.59557727082E+02  0.39038933349E+01  0.84001671006E+03  0.85136132441E+03  0.12500267310E+03 0.  0.
          5    1    3    3  501    0 -0.32335047666E+02 -0.40468320838E+01  0.43563327719E+02  0.54403177108E+02  0.10000000000E+00 0.  1.
         -5    1    3    3    0  501 -0.27222679417E+02  0.79507254187E+01  0.79645338234E+03  0.79695814731E+03  0.10000000000E+00 0.  1.
         21    1    1    2  504  503  0.59557727082E+02 -0.39038933349E+01  0.13431690899E+03  0.14698093508E+03  0.00000000000E+00 0. -1.
<mgrwt>
<rscale>  1 0.13852087E+03</rscale>
<asrwt>0</asrwt>
<pdfrwt beam="1">  1       21 0.15174423E+00 0.13852087E+03</pdfrwt>
<pdfrwt beam="2">  1       21 0.18468193E-02 0.13852087E+03</pdfrwt>
<totfact> 0.41294127E+05</totfact>
</mgrwt>
</event>
<event>
 6    1  0.4271609E-002  0.1494616E+03  0.7546771E-02  0.1201136E+00
         21   -1    0    0  503  502  0.00000000000E+00  0.00000000000E+00  0.71722164449E+02  0.71722164449E+02  0.00000000000E+00 0.  1.
         21   -1    0    0  504  503 -0.00000000000E+00 -0.00000000000E+00 -0.32821417974E+03  0.32821417974E+03  0.00000000000E+00 0.  1.
         25    2    1    2    0    0 -0.16259540486E+02  0.80318509361E+02 -0.27763117892E+03  0.31530597233E+03  0.12499339614E+03 0.  0.
          5    1    3    3  501    0  0.25186303771E+01 -0.24885421386E+02 -0.96631400553E+01  0.26814435893E+02  0.10000000000E+00 0. -1.
         -5    1    3    3    0  501 -0.18778170863E+02  0.10520393075E+03 -0.26796803886E+03  0.28849153644E+03  0.10000000000E+00 0. -1.
         21    1    1    2  504  502  0.16259540486E+02 -0.80318509361E+02  0.21139163623E+02  0.84630371862E+02  0.00000000000E+00 0.  1.
<mgrwt>
<rscale>  1 0.14946165E+03</rscale>
<asrwt>0</asrwt>
<pdfrwt beam="1">  1       21 0.11034179E-01 0.14946165E+03</pdfrwt>
<pdfrwt beam="2">  1       21 0.50494490E-01 0.14946165E+03</pdfrwt>
<totfact> 0.25720144E+05</totfact>
</mgrwt>
</event>
<event>
 6    1  0.4271609E-002  0.1260581E+03  0.7546771E-02  0.1233425E+00
         21   -1    0    0  504  502  0.00000000000E+00  0.00000000000E+00  0.43629037435E+03  0.43629037435E+03  0.00000000000E+00 0.  1.
         21   -1    0    0  502  503 -0.00000000000E+00 -0.00000000000E+00 -0.17224199275E+02  0.17224199275E+02  0.00000000000E+00 0.  1.
         25    2    1    2    0    0  0.54150693453E+01 -0.15081909384E+02  0.41893481212E+03  0.43748946137E+03  0.12503545511E+03 0.  0.
          5    1    3    3  501    0 -0.36179083804E+01  0.43784764398E+02  0.64222180253E+02  0.77811909699E+02  0.10000000000E+00 0.  1.
         -5    1    3    3    0  501  0.90329777257E+01 -0.58866673782E+02  0.35471263186E+03  0.35967755167E+03  0.10000000000E+00 0.  1.
         21    1    1    2  504  503 -0.54150693453E+01  0.15081909384E+02  0.13136295683E+00  0.16025112259E+02  0.00000000000E+00 0.  1.
<mgrwt>
<rscale>  1 0.12605813E+03</rscale>
<asrwt>0</asrwt>
<pdfrwt beam="1">  1       21 0.67121588E-01 0.12605813E+03</pdfrwt>
<pdfrwt beam="2">  1       21 0.26498771E-02 0.12605813E+03</pdfrwt>
<totfact> 0.15757795E+06</totfact>
</mgrwt>
</event>
<event>
 6    1  0.4271609E-002  0.1262449E+03  0.7546771E-02  0.1233136E+00
         21   -1    0    0  504  502  0.00000000000E+00  0.00000000000E+00  0.30688935926E+03  0.30688935926E+03  0.00000000000E+00 0. -1.
         21   -1    0    0  502  503 -0.00000000000E+00 -0.00000000000E+00 -0.50755256085E+02  0.50755256085E+02  0.00000000000E+00 0. -1.
         25    2    1    2    0    0 -0.16214730414E+02  0.69217742246E+01  0.29175614200E+03  0.31789844457E+03  0.12500778465E+03 0.  0.
          5    1    3    3  501    0 -0.15748215552E+02  0.54395077546E+02  0.24427769097E+03  0.25075571989E+03  0.10000000000E+00 0. -1.
         -5    1    3    3    0  501 -0.46651486214E+00 -0.47473303321E+02  0.47478451035E+02  0.67142724677E+02  0.10000000000E+00 0. -1.
         21    1    1    2  504  503  0.16214730414E+02 -0.69217742246E+01 -0.35622038830E+02  0.39746170774E+02  0.00000000000E+00 0. -1.
<mgrwt>
<rscale>  1 0.12624490E+03</rscale>
<asrwt>0</asrwt>
<pdfrwt beam="1">  1       21 0.47213747E-01 0.12624490E+03</pdfrwt>
<pdfrwt beam="2">  1       21 0.78085011E-02 0.12624490E+03</pdfrwt>
<totfact> 0.54159524E+05</totfact>
</mgrwt>
</event>
<event>
 6    1  0.4271609E-002  0.1325207E+03  0.7546771E-02  0.1223763E+00
         21   -1    0    0  504  502  0.00000000000E+00  0.00000000000E+00  0.50640325847E+02  0.50640325847E+02  0.00000000000E+00 0.  1.
         21   -1    0    0  502  503 -0.00000000000E+00 -0.00000000000E+00 -0.21944297954E+03  0.21944297954E+03  0.00000000000E+00 0.  1.
         25    2    1    2    0    0 -0.29173402124E+02 -0.32933828319E+02 -0.47050203235E+02  0.14062526728E+03  0.12500407886E+03 0.  0.
          5    1    3    3  501    0 -0.30539553842E+02 -0.10066450653E+02  0.39592272209E+02  0.51005448692E+02  0.10000000000E+00 0. -1.
         -5    1    3    3    0  501  0.13661517185E+01 -0.22867377666E+02 -0.86642475444E+02  0.89619818583E+02  0.10000000000E+00 0. -1.
         21    1    1    2  504  503  0.29173402124E+02  0.32933828319E+02 -0.12175245046E+03  0.12945803811E+03  0.00000000000E+00 0.  1.
<mgrwt>
<rscale>  1 0.13252073E+03</rscale>
<asrwt>0</asrwt>
<pdfrwt beam="1">  1       21 0.77908195E-02 0.13252073E+03</pdfrwt>
<pdfrwt beam="2">  1       21 0.33760458E-01 0.13252073E+03</pdfrwt>
<totfact> 0.10632250E+06</totfact>
</mgrwt>
</event>
<event>
 6    1  0.4271609E-002  0.1406342E+03  0.7546771E-02  0.1212478E+00
         21   -1    0    0  504  502  0.00000000000E+00  0.00000000000E+00  0.59940010246E+02  0.59940010246E+02  0.00000000000E+00 0.  1.
         21   -1    0    0  502  503 -0.00000000000E+00 -0.00000000000E+00 -0.10906624713E+04  0.10906624713E+04  0.00000000000E+00 0.  1.
         25    2    1    2    0    0 -0.59330894514E+02 -0.25139117177E+02 -0.25025650796E+02  0.14284348039E+03  0.12500338569E+03 0.  0.
          5    1    3    3  501    0 -0.77896403064E+02 -0.48768280826E+02  0.14659018796E+02  0.93064986204E+02  0.10000000000E+00 0.  1.
         -5    1    3    3    0  501  0.18565508551E+02  0.23629163649E+02 -0.39684669592E+02  0.49778494183E+02  0.10000000000E+00 0.  1.
         21    1    1    2  504  503  0.59330894514E+02  0.25139117177E+02 -0.10056968103E+04  0.10077590012E+04  0.00000000000E+00 0.  1.
<mgrwt>
<rscale>  1 0.14063419E+03</rscale>
<asrwt>0</asrwt>
<pdfrwt beam="1">  1       21 0.92215415E-02 0.14063419E+03</pdfrwt>
<pdfrwt beam="2">  1       21 0.16779420E+00 0.14063419E+03</pdfrwt>
<totfact> 0.21523479E+04</totfact>
</mgrwt>
</event>
<event>
 6    1  0.4271609E-002  0.1341408E+03  0.7546771E-02  0.1221438E+00
         21   -1    0    0  503  502  0.00000000000E+00  0.00000000000E+00  0.31717213155E+03  0.31717213155E+03  0.00000000000E+00 0.  1.
         21   -1    0    0  504  503 -0.00000000000E+00 -0.00000000000E+00 -0.27462670220E+02  0.27462670220E+02  0.00000000000E+00 0.  1.
         25    2    1    2    0    0 -0.47152355324E+02 -0.12006667457E+02  0.24081737500E+03  0.27565697358E+03  0.12500501712E+03 0.  0.
          5    1    3    3  501    0 -0.56177486933E+01 -0.65401192800E+02  0.13412641669E+03  0.14932776290E+03  0.10000000000E+00 0.  1.
         -5    1    3    3    0  501 -0.41534606631E+02  0.53394525343E+02  0.10669095832E+03  0.12632921068E+03  0.10000000000E+00 0.  1.
         21    1    1    2  504  502  0.47152355324E+02  0.12006667457E+02  0.48892086322E+02  0.68977828184E+02  0.00000000000E+00 0.  1.
<mgrwt>
<rscale>  1 0.13414082E+03</rscale>
<asrwt>0</asrwt>
<pdfrwt beam="1">  1       21 0.48795710E-01 0.13414082E+03</pdfrwt>
<pdfrwt beam="2">  1       21 0.42250264E-02 0.13414082E+03</pdfrwt>
<totfact> 0.14319487E+06</totfact>
</mgrwt>
</event>
<event>
 6    1  0.4271609E-002  0.1359162E+03  0.7546771E-02  0.1218932E+00
         21   -1    0    0  504  502  0.00000000000E+00  0.00000000000E+00  0.92738285682E+02  0.92738285682E+02  0.00000000000E+00 0. -1.
         21   -1    0    0  502  503 -0.00000000000E+00 -0.00000000000E+00 -0.44264996647E+03  0.44264996647E+03  0.00000000000E+00 0. -1.
         25    2    1    2    0    0 -0.40732899898E+02 -0.34477267371E+02  0.40126896548E+02  0.14171587198E+03  0.12500147777E+03 0.  0.
          5    1    3    3  501    0 -0.26240565706E+02  0.46548255732E+02  0.12348069789E+02  0.54843342603E+02  0.10000000000E+00 0. -1.
         -5    1    3    3    0  501 -0.14492334192E+02 -0.81025523103E+02  0.27778826758E+02  0.86872529378E+02  0.10000000000E+00 0. -1.
         21    1    1    2  504  503  0.40732899898E+02  0.34477267371E+02 -0.39003857734E+03  0.39367238017E+03  0.00000000000E+00 0. -1.
<mgrwt>
<rscale>  1 0.13591623E+03</rscale>
<asrwt>0</asrwt>
<pdfrwt beam="1">  1       21 0.14267429E-01 0.13591623E+03</pdfrwt>
<pdfrwt beam="2">  1       21 0.68099993E-01 0.13591623E+03</pdfrwt>
<totfact> 0.86605629E+04</totfact>
</mgrwt>
</event>
<event>
 6    1  0.4271609E-002  0.1273104E+03  0.7546771E-02  0.1231502E+00
         21   -1    0    0  503  502  0.00000000000E+00  0.00000000000E+00  0.16362748934E+04  0.16362748934E+04  0.00000000000E+00 0.  1.
         21   -1    0    0  504  503 -0.00000000000E+00 -0.00000000000E+00 -0.14748562175E+03  0.14748562175E+03  0.00000000000E+00 0. -1.
         25    2    1    2    0    0 -0.15331417789E+02  0.18644521503E+02  0.16327924755E+04  0.16377482100E+04  0.12500104233E+03 0.  0.
          5    1    3    3  501    0 -0.29488199279E+02  0.63712737535E+02  0.12631328825E+04  0.12650824304E+04  0.10000000000E+00 0. -1.
         -5    1    3    3    0  501  0.14156781490E+02 -0.45068216032E+02  0.36965959296E+03  0.37266577952E+03  0.10000000000E+00 0. -1.
         21    1    1    2  504  502  0.15331417789E+02 -0.18644521503E+02 -0.14400320385E+03  0.14601230521E+03  0.00000000000E+00 0. -1.
<mgrwt>
<rscale>  1 0.12731037E+03</rscale>
<asrwt>0</asrwt>
<pdfrwt beam="1">  1       21 0.25173459E+00 0.12731037E+03</pdfrwt>
<pdfrwt beam="2">  1       21 0.22690097E-01 0.12731037E+03</pdfrwt>
<totfact> 0.12993146E+03</totfact>
</mgrwt>
</event>
<event>
 6    1  0.4271609E-002  0.1477381E+03  0.7546771E-02  0.1203280E+00
         21   -1    0    0  504  502  0.00000000000E+00  0.00000000000E+00  0.32281584647E+02  0.32281584647E+02  0.00000000000E+00 0.  1.
         21   -1    0    0  502  503 -0.00000000000E+00 -0.00000000000E+00 -0.47282080332E+03  0.47282080332E+03  0.00000000000E+00 0.  1.
         25    2    1    2    0    0  0.36672039318E+02 -0.69523199824E+02 -0.37398403410E+03  0.40210769696E+03  0.12509287915E+03 0.  0.
          5    1    3    3  501    0  0.11749966959E+02 -0.93012313868E+02 -0.34414048736E+03  0.35668198341E+03  0.10000000000E+00 0.  1.
         -5    1    3    3    0  501  0.24922072359E+02  0.23489114044E+02 -0.29843546743E+02  0.45425713549E+02  0.10000000000E+00 0.  1.
         21    1    1    2  504  503 -0.36672039318E+02  0.69523199824E+02 -0.66555184577E+02  0.10299469101E+03  0.00000000000E+00 0.  1.
<mgrwt>
<rscale>  1 0.14773809E+03</rscale>
<asrwt>0</asrwt>
<pdfrwt beam="1">  1       21 0.49663977E-02 0.14773809E+03</pdfrwt>
<pdfrwt beam="2">  1       21 0.72741661E-01 0.14773809E+03</pdfrwt>
<totfact> 0.46685172E+05</totfact>
</mgrwt>
</event>
<event>
 6    1  0.4271609E-002  0.1294077E+03  0.7546771E-02  0.1228337E+00
         21   -1    0    0  503  502  0.00000000000E+00  0.00000000000E+00  0.26162747861E+01  0.26162747861E+01  0.00000000000E+00 0.  1.
         21   -1    0    0  504  503 -0.00000000000E+00 -0.00000000000E+00 -0.27611122520E+04  0.27611122520E+04  0.00000000000E+00 0.  1.
         25    2    1    2    0    0  0.33541896833E+02  0.93540809788E+00 -0.18001959256E+04  0.18048411910E+04  0.12498167988E+03 0.  0.
          5    1    3    3  501    0  0.76058037277E+02  0.11994502151E+02 -0.80442052853E+03  0.80809720321E+03  0.10000000000E+00 0. -1.
         -5    1    3    3    0  501 -0.42516140444E+02 -0.11059094054E+02 -0.99577539704E+03  0.99674398775E+03  0.10000000000E+00 0. -1.
         21    1    1    2  504  502 -0.33541896833E+02 -0.93540809788E+00 -0.95830005164E+03  0.95888733582E+03  0.00000000000E+00 0.  1.
<mgrwt>
<rscale>  1 0.12940771E+03</rscale>
<asrwt>0</asrwt>
<pdfrwt beam="1">  1       21 0.40250584E-03 0.12940771E+03</pdfrwt>
<pdfrwt beam="2">  1       21 0.42478436E+00 0.12940771E+03</pdfrwt>
<totfact> 0.10287246E+05</totfact>
</mgrwt>
</event>
<event>
 6    1  0.4271609E-002  0.1267966E+03  0.7546771E-02  0.1232288E+00
         21   -1    0    0  504  502  0.00000000000E+00  0.00000000000E+00  0.37802625069E+03  0.37802625069E+03  0.00000000000E+00 0.  1.
         21   -1    0    0  502  503 -0.00000000000E+00 -0.00000000000E+00 -0.17683936327E+02  0.17683936327E+02  0.00000000000E+00 0.  1.
         25    2    1    2    0    0 -0.12076918006E+02  0.17381994350E+02  0.34978490054E+03  0.37205760444E+03  0.12501759354E+03 0.  0.
          5    1    3    3  501    0 -0.59826295471E+02  0.39971721577E+01  0.28060670871E+03  0.28694127969E+03  0.10000000000E+00 0. -1.
         -5    1    3    3    0  501  0.47749377465E+02  0.13384822192E+02  0.69178191831E+02  0.85116324747E+02  0.10000000000E+00 0. -1.
         21    1    1    2  504  503  0.12076918006E+02 -0.17381994350E+02  0.10557413815E+02  0.23652582577E+02  0.00000000000E+00 0.  1.
<mgrwt>
<rscale>  1 0.12679663E+03</rscale>
<asrwt>0</asrwt>
<pdfrwt beam="1">  1       21 0.58157879E-01 0.12679663E+03</pdfrwt>
<pdfrwt beam="2">  1       21 0.27206059E-02 0.12679663E+03</pdfrwt>
<totfact> 0.20508110E+06</totfact>
</mgrwt>
</event>
<event>
 6    1  0.4271609E-002  0.1290447E+03  0.7546771E-02  0.1228880E+00
         21   -1    0    0  503  502  0.00000000000E+00  0.00000000000E+00  0.21328853787E+03  0.21328853787E+03  0.00000000000E+00 0. -1.
         21   -1    0    0  504  503 -0.00000000000E+00 -0.00000000000E+00 -0.11318452515E+03  0.11318452515E+03  0.00000000000E+00 0.  1.
         25    2    1    2    0    0 -0.31853131319E+02  0.35268855876E+01  0.19076613189E+03  0.23031340021E+03  0.12500193736E+03 0.  0.
          5    1    3    3  501    0 -0.30220726790E+02  0.62624417616E+02  0.11196988756E+03  0.13180430846E+03  0.10000000000E+00 0. -1.
         -5    1    3    3    0  501 -0.16324045296E+01 -0.59097532028E+02  0.78796244332E+02  0.98509091749E+02  0.10000000000E+00 0. -1.
         21    1    1    2  504  502  0.31853131319E+02 -0.35268855876E+01 -0.90662119171E+02  0.96159662798E+02  0.00000000000E+00 0.  1.
<mgrwt>
<rscale>  1 0.12904474E+03</rscale>
<asrwt>0</asrwt>
<pdfrwt beam="1">  1       21 0.32813621E-01 0.12904474E+03</pdfrwt>
<pdfrwt beam="2">  1       21 0.17413004E-01 0.12904474E+03</pdfrwt>
<totfact> 0.27068034E+05</totfact>
</mgrwt>
</event>
<event>
 6    1  0.4271609E-002  0.1356421E+03  0.7546771E-02  0.1219316E+00
         21   -1    0    0  504  502  0.00000000000E+00  0.00000000000E+00  0.49825139804E+02  0.49825139804E+02  0.00000000000E+00 0.  1.
         21   -1    0    0  502  503 -0.00000000000E+00 -0.00000000000E+00 -0.18042490749E+03  0.18042490749E+03  0.00000000000E+00 0.  1.
         25    2    1    2    0    0 -0.52347448622E+02  0.58229727813E+01 -0.81500487761E+02  0.15824378591E+03  0.12499841553E+03 0.  0.
          5    1    3    3  501    0 -0.33863036657E+02  0.56025228963E+02 -0.81768975551E+02  0.10474591589E+03  0.10000000000E+00 0. -1.
         -5    1    3    3    0  501 -0.18484411965E+02 -0.50202256182E+02  0.26848778949E+00  0.53497870024E+02  0.10000000000E+00 0. -1.
         21    1    1    2  504  503  0.52347448622E+02 -0.58229727813E+01 -0.49099279922E+02  0.72006261382E+02  0.00000000000E+00 0.  1.
<mgrwt>
<rscale>  1 0.13564205E+03</rscale>
<asrwt>0</asrwt>
<pdfrwt beam="1">  1       21 0.76654060E-02 0.13564205E+03</pdfrwt>
<pdfrwt beam="2">  1       21 0.27757679E-01 0.13564205E+03</pdfrwt>
<totfact> 0.15975495E+06</totfact>
</mgrwt>
</event>
<event>
 6    1  0.4271609E-002  0.1459922E+03  0.7546771E-02  0.1205486E+00
         21   -1    0    0  504  502  0.00000000000E+00  0.00000000000E+00  0.11263187392E+04  0.11263187392E+04  0.00000000000E+00 0.  1.
         21   -1    0    0  502  503 -0.00000000000E+00 -0.00000000000E+00 -0.36564372001E+03  0.36564372001E+03  0.00000000000E+00 0.  1.
         25    2    1    2    0    0  0.56106219898E+02  0.50459585429E+02  0.11176268782E+04  0.11271217991E+04  0.12497853190E+03 0.  0.
          5    1    3    3  501    0  0.92219498432E+02  0.44104804337E+02  0.64241051478E+03  0.65049285097E+03  0.10000000000E+00 0. -1.
         -5    1    3    3    0  501 -0.36113278535E+02  0.63547810926E+01  0.47521636338E+03  0.47662894808E+03  0.10000000000E+00 0. -1.
         21    1    1    2  504  503 -0.56106219898E+02 -0.50459585429E+02 -0.35695185898E+03  0.36484066015E+03  0.00000000000E+00 0.  1.
<mgrwt>
<rscale>  1 0.14599216E+03</rscale>
<asrwt>0</asrwt>
<pdfrwt beam="1">  1       21 0.17327980E+00 0.14599216E+03</pdfrwt>
<pdfrwt beam="2">  1       21 0.56252881E-01 0.14599216E+03</pdfrwt>
<totfact> 0.63901200E+02</totfact>
</mgrwt>
</event>
<event>
 6    1  0.4271609E-002  0.1309530E+03  0.7546771E-02  0.1226049E+00
         21   -1    0    0  504  502  0.00000000000E+00  0.00000000000E+00  0.64098712369E+03  0.64098712369E+03  0.00000000000E+00 0. -1.
         21   -1    0    0  502  503 -0.00000000000E+00 -0.00000000000E+00 -0.35971974744E+02  0.35971974744E+02  0.00000000000E+00 0. -1.
         25    2    1    2    0    0 -0.18858446274E+02  0.34160597987E+02  0.62109893415E+03  0.63475393765E+03  0.12500435156E+03 0.  0.
          5    1    3    3  501    0  0.14602540001E+02 -0.37973108328E+02  0.10574225609E+03  0.11329883430E+03  0.10000000000E+00 0.  1.
         -5    1    3    3    0  501 -0.33460986275E+02  0.72133706314E+02  0.51535667806E+03  0.52145510335E+03  0.10000000000E+00 0.  1.
         21    1    1    2  504  503  0.18858446274E+02 -0.34160597987E+02 -0.16083785202E+02  0.42205160787E+02  0.00000000000E+00 0. -1.
<mgrwt>
<rscale>  1 0.13095295E+03</rscale>
<asrwt>0</asrwt>
<pdfrwt beam="1">  1       21 0.98613395E-01 0.13095295E+03</pdfrwt>
<pdfrwt beam="2">  1       21 0.55341504E-02 0.13095295E+03</pdfrwt>
<totfact> 0.19593325E+05</totfact>
</mgrwt>
</event>
<event>
 6    1  0.4271609E-002  0.1260623E+03  0.7546771E-02  0.1233418E+00
         21   -1    0    0  504  502  0.00000000000E+00  0.00000000000E+00  0.60575611333E+03  0.60575611333E+03  0.00000000000E+00 0.  1.
         21   -1    0    0  502  503 -0.00000000000E+00 -0.00000000000E+00 -0.87147051142E+01  0.87147051142E+01  0.00000000000E+00 0.  1.
         25    2    1    2    0    0  0.14276637493E+02  0.79467758401E+01  0.55953258445E+03  0.57355767282E+03  0.12499886947E+03 0.  0.
          5    1    3    3  501    0  0.65757275105E+02  0.23748297950E+02  0.36881340357E+03  0.37538158924E+03  0.10000000000E+00 0.  1.
         -5    1    3    3    0  501 -0.51480637612E+02 -0.15801522110E+02  0.19071918088E+03  0.19817608358E+03  0.10000000000E+00 0.  1.
         21    1    1    2  504  503 -0.14276637493E+02 -0.79467758401E+01  0.37508823764E+02  0.40913145619E+02  0.00000000000E+00 0.  1.
<mgrwt>
<rscale>  1 0.12606225E+03</rscale>
<asrwt>0</asrwt>
<pdfrwt beam="1">  1       21 0.93193215E-01 0.12606225E+03</pdfrwt>
<pdfrwt beam="2">  1       21 0.13407243E-02 0.12606225E+03</pdfrwt>
<totfact> 0.22699691E+06</totfact>
</mgrwt>
</event>
<event>
 6    1  0.4271609E-002  0.1260468E+03  0.7546771E-02  0.1233442E+00
         21   -1    0    0  504  502  0.00000000000E+00  0.00000000000E+00  0.19826941921E+02  0.19826941921E+02  0.00000000000E+00 0.  1.
         21   -1    0    0  502  503 -0.00000000000E+00 -0.00000000000E+00 -0.30808987353E+03  0.30808987353E+03  0.00000000000E+00 0.  1.
         25    2    1    2    0    0 -0.13862114652E+02  0.82565471853E+01 -0.18787558855E+03  0.22624111806E+03  0.12500991134E+03 0.  0.
          5    1    3    3  501    0 -0.52443574610E+01 -0.90976650175E+01  0.17253932408E+02  0.20198489485E+02  0.10000000000E+00 0.  1.
         -5    1    3    3    0  501 -0.86177571911E+01  0.17354212203E+02 -0.20512952096E+03  0.20604262857E+03  0.10000000000E+00 0.  1.
         21    1    1    2  504  503  0.13862114652E+02 -0.82565471853E+01 -0.10038734306E+03  0.10167569739E+03  0.00000000000E+00 0.  1.
<mgrwt>
<rscale>  1 0.12604684E+03</rscale>
<asrwt>0</asrwt>
<pdfrwt beam="1">  1       21 0.30502989E-02 0.12604684E+03</pdfrwt>
<pdfrwt beam="2">  1       21 0.47398440E-01 0.12604684E+03</pdfrwt>
<totfact> 0.26009958E+06</totfact>
</mgrwt>
</event>
<event>
 6    1  0.4271609E-002  0.1306127E+03  0.7546771E-02  0.1226549E+00
         21   -1    0    0  503  502  0.00000000000E+00  0.00000000000E+00  0.90437719319E+03  0.90437719319E+03  0.00000000000E+00 0. -1.
         21   -1    0    0  504  503 -0.00000000000E+00 -0.00000000000E+00 -0.38265615942E+02  0.38265615942E+02  0.00000000000E+00 0. -1.
         25    2    1    2    0    0 -0.37590878904E+02  0.44506698501E+01  0.88890960008E+03  0.89845420784E+03  0.12500721517E+03 0.  0.
          5    1    3    3  501    0  0.36125186481E+02  0.35354179794E+02  0.36441113968E+03  0.36790003513E+03  0.10000000000E+00 0. -1.
         -5    1    3    3    0  501 -0.73716065385E+02 -0.30903509944E+02  0.52449846040E+03  0.53055417272E+03  0.10000000000E+00 0. -1.
         21    1    1    2  504  502  0.37590878904E+02 -0.44506698501E+01 -0.22798022830E+02  0.44188601289E+02  0.00000000000E+00 0. -1.
<mgrwt>
<rscale>  1 0.13061273E+03</rscale>
<asrwt>0</asrwt>
<pdfrwt beam="1">  1       21 0.13913494E+00 0.13061273E+03</pdfrwt>
<pdfrwt beam="2">  1       21 0.58870185E-02 0.13061273E+03</pdfrwt>
<totfact> 0.76489001E+04</totfact>
</mgrwt>
</event>
<event>
 6    1  0.4271609E-002  0.1363351E+03  0.7546771E-02  0.1218347E+00
         21   -1    0    0  504  502  0.00000000000E+00  0.00000000000E+00  0.92692696960E+02  0.92692696960E+02  0.00000000000E+00 0. -1.
         21   -1    0    0  502  503 -0.00000000000E+00 -0.00000000000E+00 -0.21019168468E+03  0.21019168468E+03  0.00000000000E+00 0. -1.
         25    2    1    2    0    0  0.54249468191E+02 -0.43405638987E+01  0.35175707002E+02  0.14079981204E+03  0.12500164564E+03 0.  0.
          5    1    3    3  501    0  0.68430104803E+00  0.47918962492E+02  0.44484577058E+02  0.65387941016E+02  0.10000000000E+00 0.  1.
         -5    1    3    3    0  501  0.53565167143E+02 -0.52259526391E+02 -0.93088700566E+01  0.75411871024E+02  0.10000000000E+00 0.  1.
         21    1    1    2  504  503 -0.54249468191E+02  0.43405638987E+01 -0.15267469472E+03  0.16208456960E+03  0.00000000000E+00 0. -1.
<mgrwt>
<rscale>  1 0.13633509E+03</rscale>
<asrwt>0</asrwt>
<pdfrwt beam="1">  1       21 0.14260415E-01 0.13633509E+03</pdfrwt>
<pdfrwt beam="2">  1       21 0.32337182E-01 0.13633509E+03</pdfrwt>
<totfact> 0.39943449E+05</totfact>
</mgrwt>
</event>
<event>
 6    1  0.4271609E-002  0.1260508E+03  0.7546771E-02  0.1233436E+00
         21   -1    0    0  503  502  0.00000000000E+00  0.00000000000E+00  0.10048654104E+02  0.10048654104E+02  0.00000000000E+00 0. -1.
         21   -1    0    0  504  503 -0.00000000000E+00 -0.00000000000E+00 -0.55276142338E+03  0.55276142338E+03  0.00000000000E+00 0. -1.
         25    2    1    2    0    0  0.30608841772E+01 -0.15922050276E+02 -0.40542693754E+03  0.42457014009E+03  0.12500368583E+03 0.  0.
          5    1    3    3  501    0 -0.53075182008E+02 -0.37722146385E+02 -0.23310773548E+03  0.24203132362E+03  0.10000000000E+00 0. -1.
         -5    1    3    3    0  501  0.56136066185E+02  0.21800096108E+02 -0.17231920206E+03  0.18253881646E+03  0.10000000000E+00 0. -1.
         21    1    1    2  504  502 -0.30608841772E+01  0.15922050276E+02 -0.13728583173E+03  0.13823993739E+03  0.00000000000E+00 0. -1.
<mgrwt>
<rscale>  1 0.12605079E+03</rscale>
<asrwt>0</asrwt>
<pdfrwt beam="1">  1       21 0.15459467E-02 0.12605079E+03</pdfrwt>
<pdfrwt beam="2">  1       21 0.85040224E-01 0.12605079E+03</pdfrwt>
<totfact> 0.22288391E+06</totfact>
</mgrwt>
</event>
<event>
 6    1  0.4271609E-002  0.1357971E+03  0.7546771E-02  0.1219099E+00
         21   -1    0    0  503  502  0.00000000000E+00  0.00000000000E+00  0.22890995128E+03  0.22890995128E+03  0.00000000000E+00 0.  1.
         21   -1    0    0  504  503 -0.00000000000E+00 -0.00000000000E+00 -0.60617215573E+02  0.60617215573E+02  0.00000000000E+00 0.  1.
         25    2    1    2    0    0  0.34260881242E+02  0.40534480613E+02  0.18885493083E+03  0.23260919104E+03  0.12499599495E+03 0.  0.
          5    1    3    3  501    0 -0.45649702270E+02  0.27029057332E+02  0.57246928939E+02  0.78049254517E+02  0.10000000000E+00 0.  1.
         -5    1    3    3    0  501  0.79910583512E+02  0.13505423282E+02  0.13160800189E+03  0.15455993652E+03  0.10000000000E+00 0.  1.
         21    1    1    2  504  502 -0.34260881242E+02 -0.40534480613E+02 -0.20562195129E+02  0.56917975812E+02  0.00000000000E+00 0.  1.
<mgrwt>
<rscale>  1 0.13579709E+03</rscale>
<asrwt>0</asrwt>
<pdfrwt beam="1">  1       21 0.35216915E-01 0.13579709E+03</pdfrwt>
<pdfrwt beam="2">  1       21 0.93257256E-02 0.13579709E+03</pdfrwt>
<totfact> 0.71665296E+05</totfact>
</mgrwt>
</event>
<event>
 6    1  0.4271609E-002  0.1529610E+03  0.7546771E-02  0.1196881E+00
         21   -1    0    0  504  502  0.00000000000E+00  0.00000000000E+00  0.52554445413E+03  0.52554445413E+03  0.00000000000E+00 0.  1.
         21   -1    0    0  502  503 -0.00000000000E+00 -0.00000000000E+00 -0.18554586577E+03  0.18554586577E+03  0.00000000000E+00 0. -1.
         25    2    1    2    0    0  0.86598655745E+02 -0.16442357494E+02  0.50302110720E+03  0.52576352759E+03  0.12500949710E+03 0.  0.
          5    1    3    3  501    0  0.74183899379E+02  0.46862305552E+02  0.26463098764E+03  0.27879902480E+03  0.10000000000E+00 0.  1.
         -5    1    3    3    0  501  0.12414756366E+02 -0.63304663046E+02  0.23839011956E+03  0.24696450280E+03  0.10000000000E+00 0.  1.
         21    1    1    2  504  503 -0.86598655745E+02  0.16442357494E+02 -0.16302251883E+03  0.18532679230E+03  0.00000000000E+00 0. -1.
<mgrwt>
<rscale>  1 0.15296095E+03</rscale>
<asrwt>0</asrwt>
<pdfrwt beam="1">  1       21 0.80852992E-01 0.15296095E+03</pdfrwt>
<pdfrwt beam="2">  1       21 0.28545518E-01 0.15296095E+03</pdfrwt>
<totfact> 0.16183025E+04</totfact>
</mgrwt>
</event>
<event>
 6    1  0.4271609E-002  0.1259330E+03  0.7546771E-02  0.1233618E+00
         21   -1    0    0  504  502  0.00000000000E+00  0.00000000000E+00  0.24423046466E+03  0.24423046466E+03  0.00000000000E+00 0. -1.
         21   -1    0    0  502  503 -0.00000000000E+00 -0.00000000000E+00 -0.20507524064E+02  0.20507524064E+02  0.00000000000E+00 0. -1.
         25    2    1    2    0    0 -0.12155220858E+02  0.92952164709E+01  0.20454245551E+03  0.24020145573E+03  0.12499989114E+03 0.  0.
          5    1    3    3  501    0 -0.14263731904E+02  0.24058848749E+02  0.21819619946E+03  0.21998153039E+03  0.10000000000E+00 0.  1.
         -5    1    3    3    0  501  0.21085110458E+01 -0.14763632278E+02 -0.13653743953E+02  0.20219925341E+02  0.10000000000E+00 0.  1.
         21    1    1    2  504  503  0.12155220858E+02 -0.92952164709E+01  0.19180485091E+02  0.24536533001E+02  0.00000000000E+00 0. -1.
<mgrwt>
<rscale>  1 0.12593301E+03</rscale>
<asrwt>0</asrwt>
<pdfrwt beam="1">  1       21 0.37573916E-01 0.12593301E+03</pdfrwt>
<pdfrwt beam="2">  1       21 0.31550039E-02 0.12593301E+03</pdfrwt>
<totfact> 0.39274013E+06</totfact>
</mgrwt>
</event>
<event>
 6    1  0.4271609E-002  0.1550997E+03  0.7546771E-02  0.1194343E+00
         21   -1    0    0  503  502  0.00000000000E+00  0.00000000000E+00  0.49781237959E+03  0.49781237959E+03  0.00000000000E+00 0.  1.
         21   -1    0    0  504  503 -0.00000000000E+00 -0.00000000000E+00 -0.67192524043E+02  0.67192524043E+02  0.00000000000E+00 0.  1.
         25    2    1    2    0    0 -0.14544248105E+02 -0.90666581876E+02  0.44573024044E+03  0.47194423550E+03  0.12499579976E+03 0.  0.
          5    1    3    3  501    0  0.28173143324E+02  0.20504996883E+02  0.12687513139E+03  0.13157313505E+03  0.10000000000E+00 0.  1.
         -5    1    3    3    0  501 -0.42717391429E+02 -0.11117157876E+03  0.31885510904E+03  0.34037110044E+03  0.10000000000E+00 0.  1.
         21    1    1    2  504  502  0.14544248105E+02  0.90666581876E+02 -0.15110384890E+02  0.93060668134E+02  0.00000000000E+00 0.  1.
<mgrwt>
<rscale>  1 0.15509969E+03</rscale>
<asrwt>0</asrwt>
<pdfrwt beam="1">  1       21 0.76586518E-01 0.15509969E+03</pdfrwt>
<pdfrwt beam="2">  1       21 0.10337312E-01 0.15509969E+03</pdfrwt>
<totfact> 0.11777486E+05</totfact>
</mgrwt>
</event>
<event>
 6    1  0.4271609E-002  0.1266228E+03  0.7546771E-02  0.1232555E+00
         21   -1    0    0  503  502  0.00000000000E+00  0.00000000000E+00  0.66939414203E+02  0.66939414203E+02  0.00000000000E+00 0.  1.
         21   -1    0    0  504  503 -0.00000000000E+00 -0.00000000000E+00 -0.59785590391E+03  0.59785590391E+03  0.00000000000E+00 0.  1.
         25    2    1    2    0    0 -0.28779873452E+00  0.20210605369E+02  0.66991014797E+01  0.12679989500E+03  0.12499913606E+03 0.  0.
          5    1    3    3  501    0 -0.59179239246E+02  0.78493648448E+01  0.23761623529E+02  0.64252779232E+02  0.10000000000E+00 0. -1.
         -5    1    3    3    0  501  0.58891440512E+02  0.12361240524E+02 -0.17062522049E+02  0.62547115773E+02  0.10000000000E+00 0. -1.
         21    1    1    2  504  502  0.28779873452E+00 -0.20210605369E+02 -0.53761559119E+03  0.53799542311E+03  0.00000000000E+00 0.  1.
<mgrwt>
<rscale>  1 0.12662281E+03</rscale>
<asrwt>0</asrwt>
<pdfrwt beam="1">  1       21 0.10298372E-01 0.12662281E+03</pdfrwt>
<pdfrwt beam="2">  1       21 0.91977829E-01 0.12662281E+03</pdfrwt>
<totfact> 0.79294351E+04</totfact>
</mgrwt>
</event>
<event>
 6    1  0.4271609E-002  0.1262739E+03  0.7546771E-02  0.1233092E+00
         21   -1    0    0  503  502  0.00000000000E+00  0.00000000000E+00  0.63797990388E+02  0.63797990388E+02  0.00000000000E+00 0. -1.
         21   -1    0    0  504  503 -0.00000000000E+00 -0.00000000000E+00 -0.84274796400E+02  0.84274796400E+02  0.00000000000E+00 0. -1.
         25    2    1    2    0    0 -0.16755548798E+02  0.63419441086E+01 -0.85761806447E+01  0.12656479863E+03  0.12499651478E+03 0.  0.
          5    1    3    3  501    0 -0.32998941038E+02  0.68016224559E+01  0.53042837424E+02  0.62839038659E+02  0.10000000000E+00 0.  1.
         -5    1    3    3    0  501  0.16243392240E+02 -0.45967834736E+00 -0.61619018068E+02  0.63725759967E+02  0.10000000000E+00 0.  1.
         21    1    1    2  504  502  0.16755548798E+02 -0.63419441086E+01 -0.11900625367E+02  0.21507988161E+02  0.00000000000E+00 0. -1.
<mgrwt>
<rscale>  1 0.12627390E+03</rscale>
<asrwt>0</asrwt>
<pdfrwt beam="1">  1       21 0.98150755E-02 0.12627390E+03</pdfrwt>
<pdfrwt beam="2">  1       21 0.12965353E-01 0.12627390E+03</pdfrwt>
<totfact> 0.42216037E+06</totfact>
</mgrwt>
</event>
<event>
 6    1  0.4271609E-002  0.1359603E+03  0.7546771E-02  0.1218870E+00
         21   -1    0    0  503  502  0.00000000000E+00  0.00000000000E+00  0.66192836786E+03  0.66192836786E+03  0.00000000000E+00 0.  1.
         21   -1    0    0  504  503 -0.00000000000E+00 -0.00000000000E+00 -0.14318271147E+02  0.14318271147E+02  0.00000000000E+00 0.  1.
         25    2    1    2    0    0  0.44805134743E+02  0.29213752822E+02  0.52795977306E+03  0.54518503744E+03  0.12499703849E+03 0.  0.
          5    1    3    3  501    0  0.49391636754E+02 -0.35014950985E+02  0.36459429288E+03  0.36958705195E+03  0.10000000000E+00 0.  1.
         -5    1    3    3    0  501 -0.45865020108E+01  0.64228703807E+02  0.16336548018E+03  0.17559798549E+03  0.10000000000E+00 0.  1.
         21    1    1    2  504  502 -0.44805134743E+02 -0.29213752822E+02  0.11965032365E+03  0.13106160156E+03  0.00000000000E+00 0.  1.
<mgrwt>
<rscale>  1 0.13596030E+03</rscale>
<asrwt>0</asrwt>
<pdfrwt beam="1">  1       21 0.10183511E+00 0.13596030E+03</pdfrwt>
<pdfrwt beam="2">  1       21 0.22028115E-02 0.13596030E+03</pdfrwt>
<totfact> 0.83241289E+05</totfact>
</mgrwt>
</event>
<event>
 6    1  0.4271609E-002  0.1268343E+03  0.7546771E-02  0.1232230E+00
         21   -1    0    0  503  502  0.00000000000E+00  0.00000000000E+00  0.52877958064E+02  0.52877958064E+02  0.00000000000E+00 0. -1.
         21   -1    0    0  504  503 -0.00000000000E+00 -0.00000000000E+00 -0.11406928851E+03  0.11406928851E+03  0.00000000000E+00 0. -1.
         25    2    1    2    0    0  0.15760974654E+02  0.14612399224E+02 -0.32199667378E+02  0.13085781515E+03  0.12500007469E+03 0.  0.
          5    1    3    3  501    0 -0.32385038191E+02 -0.41390604896E+02 -0.18686971813E+02  0.55778004516E+02  0.10000000000E+00 0.  1.
         -5    1    3    3    0  501  0.48146012845E+02  0.56003004119E+02 -0.13512695565E+02  0.75079810633E+02  0.10000000000E+00 0.  1.
         21    1    1    2  504  502 -0.15760974654E+02 -0.14612399224E+02 -0.28991663067E+02  0.36089431423E+02  0.00000000000E+00 0.  1.
<mgrwt>
<rscale>  1 0.12683434E+03</rscale>
<asrwt>0</asrwt>
<pdfrwt beam="1">  1       21 0.81350706E-02 0.12683434E+03</pdfrwt>
<pdfrwt beam="2">  1       21 0.17549121E-01 0.12683434E+03</pdfrwt>
<totfact> 0.33886839E+06</totfact>
</mgrwt>
</event>
<event>
 6    1  0.4271609E-002  0.1260354E+03  0.7546771E-02  0.1233460E+00
         21   -1    0    0  503  502  0.00000000000E+00  0.00000000000E+00  0.28400964155E+01  0.28400964155E+01  0.00000000000E+00 0. -1.
         21   -1    0    0  504  503 -0.00000000000E+00 -0.00000000000E+00 -0.20386364900E+04  0.20386364900E+04  0.00000000000E+00 0. -1.
         25    2    1    2    0    0  0.15768068431E+02  0.32596380632E+01 -0.14524637050E+04  0.14579217194E+04  0.12500267355E+03 0.  0.
          5    1    3    3  501    0  0.61936326975E+02  0.29409127737E+02 -0.10021754309E+04  0.10045180982E+04  0.10000000000E+00 0. -1.
         -5    1    3    3    0  501 -0.46168258544E+02 -0.26149489674E+02 -0.45028827412E+03  0.45340362120E+03  0.10000000000E+00 0. -1.
         21    1    1    2  504  502 -0.15768068431E+02 -0.32596380632E+01 -0.58333268854E+03  0.58355486695E+03  0.00000000000E+00 0. -1.
<mgrwt>
<rscale>  1 0.12603541E+03</rscale>
<asrwt>0</asrwt>
<pdfrwt beam="1">  1       21 0.43693690E-03 0.12603541E+03</pdfrwt>
<pdfrwt beam="2">  1       21 0.31363711E+00 0.12603541E+03</pdfrwt>
<totfact> 0.41351351E+05</totfact>
</mgrwt>
</event>
<event>
 6    1  0.4271609E-002  0.1409694E+03  0.7546771E-02  0.1212031E+00
         21   -1    0    0  503  502  0.00000000000E+00  0.00000000000E+00  0.33524249267E+03  0.33524249267E+03  0.00000000000E+00 0. -1.
         21   -1    0    0  504  503 -0.00000000000E+00 -0.00000000000E+00 -0.37870453327E+02  0.37870453327E+02  0.00000000000E+00 0. -1.
         25    2    1    2    0    0  0.60617177939E+02  0.23931744687E+02  0.26541582774E+03  0.30052940706E+03  0.12500076890E+03 0.  0.
          5    1    3    3  501    0  0.14649558094E+02 -0.12049168246E+02  0.23297455130E+03  0.23374546747E+03  0.10000000000E+00 0.  1.
         -5    1    3    3    0  501  0.45967619845E+02  0.35980912933E+02  0.32441276437E+02  0.66783939585E+02  0.10000000000E+00 0.  1.
         21    1    1    2  504  502 -0.60617177939E+02 -0.23931744687E+02  0.31956211601E+02  0.72583538939E+02  0.00000000000E+00 0. -1.
<mgrwt>
<rscale>  1 0.14096937E+03</rscale>
<asrwt>0</asrwt>
<pdfrwt beam="1">  1       21 0.51575766E-01 0.14096937E+03</pdfrwt>
<pdfrwt beam="2">  1       21 0.58262238E-02 0.14096937E+03</pdfrwt>
<totfact> 0.74397756E+05</totfact>
</mgrwt>
</event>
<event>
 6    1  0.4271609E-002  0.1266512E+03  0.7546771E-02  0.1232511E+00
         21   -1    0    0  503  502  0.00000000000E+00  0.00000000000E+00  0.16120661448E+02  0.16120661448E+02  0.00000000000E+00 0.  1.
         21   -1    0    0  504  503 -0.00000000000E+00 -0.00000000000E+00 -0.36519447294E+03  0.36519447294E+03  0.00000000000E+00 0.  1.
         25    2    1    2    0    0 -0.33401967778E+01  0.20169770277E+02 -0.25111826395E+03  0.28124882717E+03  0.12499017459E+03 0.  0.
          5    1    3    3  501    0 -0.57404896427E+01 -0.17999892636E+02 -0.24093026015E+03  0.24166991871E+03  0.10000000000E+00 0.  1.
         -5    1    3    3    0  501  0.24002928648E+01  0.38169662913E+02 -0.10188003808E+02  0.39578908453E+02  0.10000000000E+00 0.  1.
         21    1    1    2  504  502  0.33401967778E+01 -0.20169770277E+02 -0.97955547535E+02  0.10006630722E+03  0.00000000000E+00 0.  1.
<mgrwt>
<rscale>  1 0.12665118E+03</rscale>
<asrwt>0</asrwt>
<pdfrwt beam="1">  1       21 0.24801013E-02 0.12665118E+03</pdfrwt>
<pdfrwt beam="2">  1       21 0.56183775E-01 0.12665118E+03</pdfrwt>
<totfact> 0.25643832E+06</totfact>
</mgrwt>
</event>
<event>
 6    1  0.4271609E-002  0.1265644E+03  0.7546771E-02  0.1232644E+00
         21   -1    0    0  504  502  0.00000000000E+00  0.00000000000E+00  0.34529057438E+02  0.34529057438E+02  0.00000000000E+00 0. -1.
         21   -1    0    0  502  503 -0.00000000000E+00 -0.00000000000E+00 -0.46709954011E+03  0.46709954011E+03  0.00000000000E+00 0. -1.
         25    2    1    2    0    0  0.18949886746E+02 -0.58188569159E+01 -0.82680315016E+02  0.15117733599E+03  0.12500238047E+03 0.  0.
          5    1    3    3  501    0 -0.53761616574E+01 -0.32191181427E+02 -0.10430091744E+03  0.10928799868E+03  0.10000000000E+00 0.  1.
         -5    1    3    3    0  501  0.24326048403E+02  0.26372324511E+02  0.21620602428E+02  0.41889337311E+02  0.10000000000E+00 0.  1.
         21    1    1    2  504  503 -0.18949886746E+02  0.58188569159E+01 -0.34989016765E+03  0.35045126155E+03  0.00000000000E+00 0. -1.
<mgrwt>
<rscale>  1 0.12656442E+03</rscale>
<asrwt>0</asrwt>
<pdfrwt beam="1">  1       21 0.53121629E-02 0.12656442E+03</pdfrwt>
<pdfrwt beam="2">  1       21 0.71861465E-01 0.12656442E+03</pdfrwt>
<totfact> 0.42934167E+05</totfact>
</mgrwt>
</event>
<event>
 6    1  0.4271609E-002  0.1279924E+03  0.7546771E-02  0.1230465E+00
         21   -1    0    0  504  502  0.00000000000E+00  0.00000000000E+00  0.64216042336E+01  0.64216042336E+01  0.00000000000E+00 0. -1.
         21   -1    0    0  502  503 -0.00000000000E+00 -0.00000000000E+00 -0.10990079984E+04  0.10990079984E+04  0.00000000000E+00 0. -1.
         25    2    1    2    0    0  0.23027679350E+02  0.15100662961E+02 -0.68103480137E+03  0.69295776411E+03  0.12499503243E+03 0.  0.
          5    1    3    3  501    0 -0.81223192015E+01  0.68278923761E+01 -0.64306850299E+03  0.64315604772E+03  0.10000000000E+00 0. -1.
         -5    1    3    3    0  501  0.31149998552E+02  0.82727705845E+01 -0.37966298379E+02  0.49801716391E+02  0.10000000000E+00 0. -1.
         21    1    1    2  504  503 -0.23027679350E+02 -0.15100662961E+02 -0.41155159278E+03  0.41247183850E+03  0.00000000000E+00 0. -1.
<mgrwt>
<rscale>  1 0.12799243E+03</rscale>
<asrwt>0</asrwt>
<pdfrwt beam="1">  1       21 0.98794088E-03 0.12799243E+03</pdfrwt>
<pdfrwt beam="2">  1       21 0.16907785E+00 0.12799243E+03</pdfrwt>
<totfact> 0.84160564E+05</totfact>
</mgrwt>
</event>
<event>
 6    1  0.4271609E-002  0.1270089E+03  0.7546771E-02  0.1231963E+00
         21   -1    0    0  503  502  0.00000000000E+00  0.00000000000E+00  0.28007027296E+02  0.28007027296E+02  0.00000000000E+00 0.  1.
         21   -1    0    0  504  503 -0.00000000000E+00 -0.00000000000E+00 -0.10636963666E+04  0.10636963666E+04  0.00000000000E+00 0. -1.
         25    2    1    2    0    0 -0.88734372441E+01 -0.20687915260E+02 -0.11683601330E+03  0.17257437008E+03  0.12499812589E+03 0.  0.
          5    1    3    3  501    0 -0.48674289946E+02 -0.54855883961E+02 -0.56180439350E+02  0.92382932798E+02  0.10000000000E+00 0. -1.
         -5    1    3    3    0  501  0.39800852702E+02  0.34167968701E+02 -0.60655573955E+02  0.80191437279E+02  0.10000000000E+00 0. -1.
         21    1    1    2  504  502  0.88734372441E+01  0.20687915260E+02 -0.91885332595E+03  0.91912902377E+03  0.00000000000E+00 0. -1.
<mgrwt>
<rscale>  1 0.12700889E+03</rscale>
<asrwt>0</asrwt>
<pdfrwt beam="1">  1       21 0.43087737E-02 0.12700889E+03</pdfrwt>
<pdfrwt beam="2">  1       21 0.16364558E+00 0.12700889E+03</pdfrwt>
<totfact> 0.84940968E+04</totfact>
</mgrwt>
</event>
<event>
 6    1  0.4271609E-002  0.1266632E+03  0.7546771E-02  0.1232493E+00
         21   -1    0    0  504  502  0.00000000000E+00  0.00000000000E+00  0.58687768640E+03  0.58687768640E+03  0.00000000000E+00 0. -1.
         21   -1    0    0  502  503 -0.00000000000E+00 -0.00000000000E+00 -0.69427980162E+02  0.69427980162E+02  0.00000000000E+00 0. -1.
         25    2    1    2    0    0  0.57404648776E+01 -0.19618503542E+02  0.57835452865E+03  0.59206209871E+03  0.12500291716E+03 0.  0.
          5    1    3    3  501    0  0.27474148519E+02 -0.10891660677E+02  0.56361525882E+03  0.56438960576E+03  0.10000000000E+00 0.  1.
         -5    1    3    3    0  501 -0.21733683642E+02 -0.87268428655E+01  0.14739269825E+02  0.27672492949E+02  0.10000000000E+00 0.  1.
         21    1    1    2  504  503 -0.57404648776E+01  0.19618503542E+02 -0.60904822409E+02  0.64243567856E+02  0.00000000000E+00 0. -1.
<mgrwt>
<rscale>  1 0.12666321E+03</rscale>
<asrwt>0</asrwt>
<pdfrwt beam="1">  1       21 0.90288872E-01 0.12666321E+03</pdfrwt>
<pdfrwt beam="2">  1       21 0.10681228E-01 0.12666321E+03</pdfrwt>
<totfact> 0.77600802E+04</totfact>
</mgrwt>
</event>
<event>
 6    1  0.4271609E-002  0.1280629E+03  0.7546771E-02  0.1230359E+00
         21   -1    0    0  503  502  0.00000000000E+00  0.00000000000E+00  0.41100573849E+02  0.41100573849E+02  0.00000000000E+00 0. -1.
         21   -1    0    0  504  503 -0.00000000000E+00 -0.00000000000E+00 -0.14823412262E+03  0.14823412262E+03  0.00000000000E+00 0. -1.
         25    2    1    2    0    0 -0.18013197942E+02  0.21189409363E+02 -0.83935643420E+02  0.15311855115E+03  0.12500652823E+03 0.  0.
          5    1    3    3  501    0 -0.71363444474E+02  0.25404583269E+01 -0.50375990837E+02  0.87389619456E+02  0.10000000000E+00 0. -1.
         -5    1    3    3    0  501  0.53350246533E+02  0.18648951036E+02 -0.33559652583E+02  0.65728931692E+02  0.10000000000E+00 0. -1.
         21    1    1    2  504  502  0.18013197942E+02 -0.21189409363E+02 -0.23197905350E+02  0.36216145321E+02  0.00000000000E+00 0. -1.
<mgrwt>
<rscale>  1 0.12806287E+03</rscale>
<asrwt>0</asrwt>
<pdfrwt beam="1">  1       21 0.63231652E-02 0.12806287E+03</pdfrwt>
<pdfrwt beam="2">  1       21 0.22805250E-01 0.12806287E+03</pdfrwt>
<totfact> 0.32158553E+06</totfact>
</mgrwt>
</event>
<event>
 6    1  0.4271609E-002  0.1259046E+03  0.7546771E-02  0.1233662E+00
         21   -1    0    0  503  502  0.00000000000E+00  0.00000000000E+00  0.25846313634E+02  0.25846313634E+02  0.00000000000E+00 0. -1.
         21   -1    0    0  504  503 -0.00000000000E+00 -0.00000000000E+00 -0.71394139840E+03  0.71394139840E+03  0.00000000000E+00 0. -1.
         25    2    1    2    0    0  0.12528723976E+02 -0.85236803284E+01 -0.12819589890E+03  0.17968350710E+03  0.12498940827E+03 0.  0.
          5    1    3    3  501    0  0.64693585940E+02 -0.20441039512E+02 -0.94910477038E+02  0.11666663966E+03  0.10000000000E+00 0.  1.
         -5    1    3    3    0  501 -0.52164861964E+02  0.11917359183E+02 -0.33285421867E+02  0.63016867444E+02  0.10000000000E+00 0.  1.
         21    1    1    2  504  502 -0.12528723976E+02  0.85236803284E+01 -0.55989918586E+03  0.56010420493E+03  0.00000000000E+00 0. -1.
<mgrwt>
<rscale>  1 0.12590462E+03</rscale>
<asrwt>0</asrwt>
<pdfrwt beam="1">  1       21 0.39763566E-02 0.12590462E+03</pdfrwt>
<pdfrwt beam="2">  1       21 0.10983712E+00 0.12590462E+03</pdfrwt>
<totfact> 0.26451350E+05</totfact>
</mgrwt>
</event>
<event>
 6    1  0.4271609E-002  0.1273517E+03  0.7546771E-02  0.1231439E+00
         21   -1    0    0  504  502  0.00000000000E+00  0.00000000000E+00  0.58012192223E+02  0.58012192223E+02  0.00000000000E+00 0.  1.
         21   -1    0    0  502  503 -0.00000000000E+00 -0.00000000000E+00 -0.10434579884E+03  0.10434579884E+03  0.00000000000E+00 0.  1.
         25    2    1    2    0    0 -0.14661623192E+02  0.19445502120E+02 -0.24576924298E+02  0.12970153729E+03  0.12500149127E+03 0.  0.
          5    1    3    3  501    0 -0.54605211542E+02  0.38808782612E+02 -0.45139961191E+02  0.80780423568E+02  0.10000000000E+00 0.  1.
         -5    1    3    3    0  501  0.39943588351E+02 -0.19363280492E+02  0.20563036894E+02  0.48921113724E+02  0.10000000000E+00 0.  1.
         21    1    1    2  504  503  0.14661623192E+02 -0.19445502120E+02 -0.21756682317E+02  0.32656453769E+02  0.00000000000E+00 0.  1.
<mgrwt>
<rscale>  1 0.12735173E+03</rscale>
<asrwt>0</asrwt>
<pdfrwt beam="1">  1       21 0.89249527E-02 0.12735173E+03</pdfrwt>
<pdfrwt beam="2">  1       21 0.16053200E-01 0.12735173E+03</pdfrwt>
<totfact> 0.33951101E+06</totfact>
</mgrwt>
</event>
<event>
 6    1  0.4271609E-002  0.1259518E+03  0.7546771E-02  0.1233589E+00
         21   -1    0    0  504  502  0.00000000000E+00  0.00000000000E+00  0.31987962857E+01  0.31987962857E+01  0.00000000000E+00 0.  1.
         21   -1    0    0  502  503 -0.00000000000E+00 -0.00000000000E+00 -0.15791259842E+04  0.15791259842E+04  0.00000000000E+00 0.  1.
         25    2    1    2    0    0  0.15448664348E+02 -0.15718953952E+00 -0.13464737570E+04  0.13523518192E+04  0.12500071526E+03 0.  0.
          5    1    3    3  501    0 -0.31722648968E+01 -0.46870767167E+02 -0.23013458814E+03  0.23488054568E+03  0.10000000000E+00 0. -1.
         -5    1    3    3    0  501  0.18620929244E+02  0.46713577628E+02 -0.11163391688E+04  0.11174712736E+04  0.10000000000E+00 0. -1.
         21    1    1    2  504  503 -0.15448664348E+02  0.15718953952E+00 -0.22945343092E+03  0.22997296124E+03  0.00000000000E+00 0. -1.
<mgrwt>
<rscale>  1 0.12595184E+03</rscale>
<asrwt>0</asrwt>
<pdfrwt beam="1">  1       21 0.49212451E-03 0.12595184E+03</pdfrwt>
<pdfrwt beam="2">  1       21 0.24294147E+00 0.12595184E+03</pdfrwt>
<totfact> 0.86336805E+05</totfact>
</mgrwt>
</event>
<event>
 6    1  0.4271609E-002  0.1311828E+03  0.7546771E-02  0.1225711E+00
         21   -1    0    0  503  502  0.00000000000E+00  0.00000000000E+00  0.13667173060E+03  0.13667173060E+03  0.00000000000E+00 0. -1.
         21   -1    0    0  504  503 -0.00000000000E+00 -0.00000000000E+00 -0.55731051194E+02  0.55731051194E+02  0.00000000000E+00 0. -1.
         25    2    1    2    0    0  0.33086310711E+02  0.22111925679E+02  0.77720983776E+02  0.15247775638E+03  0.12500109463E+03 0.  0.
          5    1    3    3  501    0 -0.31796656668E+02  0.44813335322E+02  0.97483690400E+01  0.55805941413E+02  0.10000000000E+00 0. -1.
         -5    1    3    3    0  501  0.64882967380E+02 -0.22701409643E+02  0.67972614736E+02  0.96671814971E+02  0.10000000000E+00 0. -1.
         21    1    1    2  504  502 -0.33086310711E+02 -0.22111925679E+02  0.32196956249E+01  0.39925025406E+02  0.00000000000E+00 0. -1.
<mgrwt>
<rscale>  1 0.13118275E+03</rscale>
<asrwt>0</asrwt>
<pdfrwt beam="1">  1       21 0.21026420E-01 0.13118275E+03</pdfrwt>
<pdfrwt beam="2">  1       21 0.85740079E-02 0.13118275E+03</pdfrwt>
<totfact> 0.22208066E+06</totfact>
</mgrwt>
</event>
<event>
 6    1  0.4271609E-002  0.1279712E+03  0.7546771E-02  0.1230497E+00
         21   -1    0    0  504  502  0.00000000000E+00  0.00000000000E+00  0.77297680520E+02  0.77297680520E+02  0.00000000000E+00 0.  1.
         21   -1    0    0  502  503 -0.00000000000E+00 -0.00000000000E+00 -0.16677178867E+03  0.16677178867E+03  0.00000000000E+00 0.  1.
         25    2    1    2    0    0 -0.20796497280E+02 -0.17883882403E+02  0.21492274315E+02  0.12976345191E+03  0.12499723216E+03 0.  0.
          5    1    3    3  501    0  0.12638528706E+02  0.40968564424E+02  0.40998877873E+02  0.59321780702E+02  0.10000000000E+00 0.  1.
         -5    1    3    3    0  501 -0.33435025986E+02 -0.58852446827E+02 -0.19506603558E+02  0.70441671208E+02  0.10000000000E+00 0.  1.
         21    1    1    2  504  503  0.20796497280E+02  0.17883882403E+02 -0.11096638247E+03  0.11430601728E+03  0.00000000000E+00 0.  1.
<mgrwt>
<rscale>  1 0.12797123E+03</rscale>
<asrwt>0</asrwt>
<pdfrwt beam="1">  1       21 0.11891951E-01 0.12797123E+03</pdfrwt>
<pdfrwt beam="2">  1       21 0.25657198E-01 0.12797123E+03</pdfrwt>
<totfact> 0.86176686E+05</totfact>
</mgrwt>
</event>
<event>
 6    1  0.4271609E-002  0.1295225E+03  0.7546771E-02  0.1228166E+00
         21   -1    0    0  504  502  0.00000000000E+00  0.00000000000E+00  0.53487077314E+02  0.53487077314E+02  0.00000000000E+00 0. -1.
         21   -1    0    0  502  503 -0.00000000000E+00 -0.00000000000E+00 -0.14423485730E+03  0.14423485730E+03  0.00000000000E+00 0. -1.
         25    2    1    2    0    0 -0.20015422764E+02 -0.27385238562E+02 -0.37951077786E+02  0.13496796898E+03  0.12500199961E+03 0.  0.
          5    1    3    3  501    0  0.15195600338E+02  0.44100637147E+02  0.13834292047E+00  0.46645488584E+02  0.10000000000E+00 0. -1.
         -5    1    3    3    0  501 -0.35211023101E+02 -0.71485875710E+02 -0.38089420706E+02  0.88322480397E+02  0.10000000000E+00 0. -1.
         21    1    1    2  504  503  0.20015422764E+02  0.27385238562E+02 -0.52796702199E+02  0.62753965632E+02  0.00000000000E+00 0. -1.
<mgrwt>
<rscale>  1 0.12952246E+03</rscale>
<asrwt>0</asrwt>
<pdfrwt beam="1">  1       21 0.82287811E-02 0.12952246E+03</pdfrwt>
<pdfrwt beam="2">  1       21 0.22189978E-01 0.12952246E+03</pdfrwt>
<totfact> 0.21559249E+06</totfact>
</mgrwt>
</event>
<event>
 6    1  0.4271609E-002  0.1283505E+03  0.7546771E-02  0.1229924E+00
         21   -1    0    0  503  502  0.00000000000E+00  0.00000000000E+00  0.20460918111E+04  0.20460918111E+04  0.00000000000E+00 0.  1.
         21   -1    0    0  504  503 -0.00000000000E+00 -0.00000000000E+00 -0.29999651423E+02  0.29999651423E+02  0.00000000000E+00 0.  1.
         25    2    1    2    0    0  0.19723674881E+02 -0.21451518269E+02  0.20364838075E+04  0.20405244795E+04  0.12499864831E+03 0.  0.
          5    1    3    3  501    0 -0.12414672233E+02  0.41659423467E+02  0.37142227618E+03  0.37395741588E+03  0.10000000000E+00 0. -1.
         -5    1    3    3    0  501  0.32138347114E+02 -0.63110941736E+02  0.16650615313E+04  0.16665670636E+04  0.10000000000E+00 0. -1.
         21    1    1    2  504  502 -0.19723674881E+02  0.21451518269E+02 -0.20391647791E+02  0.35566983095E+02  0.00000000000E+00 0.  1.
<mgrwt>
<rscale>  1 0.12835051E+03</rscale>
<asrwt>0</asrwt>
<pdfrwt beam="1">  1       21 0.31478325E+00 0.12835051E+03</pdfrwt>
<pdfrwt beam="2">  1       21 0.46153326E-02 0.12835051E+03</pdfrwt>
<totfact> 0.94060809E+03</totfact>
</mgrwt>
</event>
<event>
 6    1  0.4271609E-002  0.1401749E+03  0.7546771E-02  0.1213094E+00
         21   -1    0    0  503  502  0.00000000000E+00  0.00000000000E+00  0.13982465136E+03  0.13982465136E+03  0.00000000000E+00 0. -1.
         21   -1    0    0  504  503 -0.00000000000E+00 -0.00000000000E+00 -0.84150266216E+02  0.84150266216E+02  0.00000000000E+00 0. -1.
         25    2    1    2    0    0 -0.26110727135E+02  0.57809211597E+02  0.73239920883E+02  0.15815529237E+03  0.12500134190E+03 0.  0.
          5    1    3    3  501    0 -0.50292545730E+02 -0.23321561124E+02  0.26376342204E+02  0.61391830053E+02  0.10000000000E+00 0.  1.
         -5    1    3    3    0  501  0.24181818595E+02  0.81130772721E+02  0.46863578679E+02  0.96763462317E+02  0.10000000000E+00 0.  1.
         21    1    1    2  504  502  0.26110727135E+02 -0.57809211597E+02 -0.17565535736E+02  0.65819625209E+02  0.00000000000E+00 0. -1.
<mgrwt>
<rscale>  1 0.14017493E+03</rscale>
<asrwt>0</asrwt>
<pdfrwt beam="1">  1       21 0.21511485E-01 0.14017493E+03</pdfrwt>
<pdfrwt beam="2">  1       21 0.12946195E-01 0.14017493E+03</pdfrwt>
<totfact> 0.10325855E+06</totfact>
</mgrwt>
</event>
<event>
 6    1  0.4271609E-002  0.1265446E+03  0.7546771E-02  0.1232675E+00
         21   -1    0    0  504  502  0.00000000000E+00  0.00000000000E+00  0.53413763474E+02  0.53413763474E+02  0.00000000000E+00 0. -1.
         21   -1    0    0  502  503 -0.00000000000E+00 -0.00000000000E+00 -0.38243565749E+03  0.38243565749E+03  0.00000000000E+00 0. -1.
         25    2    1    2    0    0  0.77915990772E+01 -0.18102334008E+02 -0.22299286804E+02  0.12849431480E+03  0.12500050892E+03 0.  0.
          5    1    3    3  501    0 -0.42858651480E+02  0.12577330865E+02 -0.46541291054E+02  0.64507015366E+02  0.10000000000E+00 0. -1.
         -5    1    3    3    0  501  0.50650250557E+02 -0.30679664874E+02  0.24242004250E+02  0.63987299430E+02  0.10000000000E+00 0. -1.
         21    1    1    2  504  503 -0.77915990772E+01  0.18102334008E+02 -0.30672260721E+03  0.30735510617E+03  0.00000000000E+00 0. -1.
<mgrwt>
<rscale>  1 0.12654458E+03</rscale>
<asrwt>0</asrwt>
<pdfrwt beam="1">  1       21 0.82175022E-02 0.12654458E+03</pdfrwt>
<pdfrwt beam="2">  1       21 0.58836254E-01 0.12654458E+03</pdfrwt>
<totfact> 0.31388134E+05</totfact>
</mgrwt>
</event>
<event>
 6    1  0.4271609E-002  0.1282083E+03  0.7546771E-02  0.1230139E+00
         21   -1    0    0  503  502  0.00000000000E+00  0.00000000000E+00  0.29512262891E+03  0.29512262891E+03  0.00000000000E+00 0.  1.
         21   -1    0    0  504  503 -0.00000000000E+00 -0.00000000000E+00 -0.23352318917E+02  0.23352318917E+02  0.00000000000E+00 0.  1.
         25    2    1    2    0    0  0.21415665409E+01 -0.28404382842E+02  0.25500966937E+03  0.28542476861E+03  0.12500388712E+03 0.  0.
          5    1    3    3  501    0 -0.38646482171E+02 -0.56690689859E+02  0.90362494369E+02  0.11345825351E+03  0.10000000000E+00 0.  1.
         -5    1    3    3    0  501  0.40788048711E+02  0.28286307017E+02  0.16464717500E+03  0.17196651510E+03  0.10000000000E+00 0.  1.
         21    1    1    2  504  502 -0.21415665409E+01  0.28404382842E+02  0.16760640627E+02  0.33050179214E+02  0.00000000000E+00 0.  1.
<mgrwt>
<rscale>  1 0.12820830E+03</rscale>
<asrwt>0</asrwt>
<pdfrwt beam="1">  1       21 0.45403479E-01 0.12820830E+03</pdfrwt>
<pdfrwt beam="2">  1       21 0.35926647E-02 0.12820830E+03</pdfrwt>
<totfact> 0.21698023E+06</totfact>
</mgrwt>
</event>
<event>
 6    1  0.4271609E-002  0.1653847E+03  0.7546771E-02  0.1182748E+00
         21   -1    0    0  503  502  0.00000000000E+00  0.00000000000E+00  0.45775746678E+02  0.45775746678E+02  0.00000000000E+00 0. -1.
         21   -1    0    0  504  503 -0.00000000000E+00 -0.00000000000E+00 -0.40934172707E+03  0.40934172707E+03  0.00000000000E+00 0. -1.
         25    2    1    2    0    0  0.10425252952E+03  0.29255411148E+02 -0.22595976769E+03  0.28001767715E+03  0.12501045521E+03 0.  0.
          5    1    3    3  501    0  0.53448036150E+02 -0.46630606897E+02 -0.12622405232E+03  0.14478821586E+03  0.10000000000E+00 0. -1.
         -5    1    3    3    0  501  0.50804493371E+02  0.75886018044E+02 -0.99735715371E+02  0.13522946129E+03  0.10000000000E+00 0. -1.
         21    1    1    2  504  502 -0.10425252952E+03 -0.29255411148E+02 -0.13760621270E+03  0.17509979659E+03  0.00000000000E+00 0. -1.
<mgrwt>
<rscale>  1 0.16538465E+03</rscale>
<asrwt>0</asrwt>
<pdfrwt beam="1">  1       21 0.70424225E-02 0.16538465E+03</pdfrwt>
<pdfrwt beam="2">  1       21 0.62975651E-01 0.16538465E+03</pdfrwt>
<totfact> 0.35164780E+05</totfact>
</mgrwt>
</event>
<event>
 6    1  0.4271609E-002  0.1661702E+03  0.7546771E-02  0.1181902E+00
         21   -1    0    0  504  502  0.00000000000E+00  0.00000000000E+00  0.35390205235E+03  0.35390205235E+03  0.00000000000E+00 0.  1.
         21   -1    0    0  502  503 -0.00000000000E+00 -0.00000000000E+00 -0.27572442541E+03  0.27572442541E+03  0.00000000000E+00 0. -1.
         25    2    1    2    0    0  0.25499816208E+02  0.10647751159E+03  0.32200042025E+03  0.36234898967E+03  0.12499927430E+03 0.  0.
          5    1    3    3  501    0  0.63493380390E+02  0.50627881938E+02  0.92376499853E+02  0.12299601420E+03  0.10000000000E+00 0. -1.
         -5    1    3    3    0  501 -0.37993564181E+02  0.55849629653E+02  0.22962392039E+03  0.23935297547E+03  0.10000000000E+00 0. -1.
         21    1    1    2  504  503 -0.25499816208E+02 -0.10647751159E+03 -0.24382279331E+03  0.26727748809E+03  0.00000000000E+00 0. -1.
<mgrwt>
<rscale>  1 0.16617015E+03</rscale>
<asrwt>0</asrwt>
<pdfrwt beam="1">  1       21 0.54446470E-01 0.16617015E+03</pdfrwt>
<pdfrwt beam="2">  1       21 0.42419142E-01 0.16617015E+03</pdfrwt>
<totfact> 0.17329258E+04</totfact>
</mgrwt>
</event>
<event>
 6    1  0.4271609E-002  0.1259607E+03  0.7546771E-02  0.1233575E+00
         21   -1    0    0  503  502  0.00000000000E+00  0.00000000000E+00  0.39115173302E+03  0.39115173302E+03  0.00000000000E+00 0. -1.
         21   -1    0    0  504  503 -0.00000000000E+00 -0.00000000000E+00 -0.33285029604E+03  0.33285029604E+03  0.00000000000E+00 0.  1.
         25    2    1    2    0    0  0.10595428150E+02  0.11399760298E+02  0.38081858510E+03  0.40110958806E+03  0.12499555689E+03 0.  0.
          5    1    3    3  501    0 -0.49420126856E-01  0.39357348466E+02  0.36528919843E+03  0.36740333669E+03  0.10000000000E+00 0. -1.
         -5    1    3    3    0  501  0.10644848277E+02 -0.27957588168E+02  0.15529386667E+02  0.33706251368E+02  0.10000000000E+00 0. -1.
         21    1    1    2  504  502 -0.10595428150E+02 -0.11399760298E+02 -0.32251714811E+03  0.32289244101E+03  0.00000000000E+00 0.  1.
<mgrwt>
<rscale>  1 0.12596074E+03</rscale>
<asrwt>0</asrwt>
<pdfrwt beam="1">  1       21 0.60177190E-01 0.12596074E+03</pdfrwt>
<pdfrwt beam="2">  1       21 0.51207737E-01 0.12596074E+03</pdfrwt>
<totfact> 0.98314181E+03</totfact>
</mgrwt>
</event>
<event>
 6    1  0.4271609E-002  0.1262524E+03  0.7546771E-02  0.1233125E+00
         21   -1    0    0  504  502  0.00000000000E+00  0.00000000000E+00  0.11781102026E+02  0.11781102026E+02  0.00000000000E+00 0.  1.
         21   -1    0    0  502  503 -0.00000000000E+00 -0.00000000000E+00 -0.52820590232E+03  0.52820590232E+03  0.00000000000E+00 0.  1.
         25    2    1    2    0    0  0.17266662434E+02 -0.12893889810E+01 -0.33947126723E+03  0.36218837382E+03  0.12505949263E+03 0.  0.
          5    1    3    3  501    0  0.27053943679E+02  0.58002955906E+02 -0.20820395724E+03  0.21781909139E+03  0.10000000000E+00 0.  1.
         -5    1    3    3    0  501 -0.97872812456E+01 -0.59292344887E+02 -0.13126731000E+03  0.14436928243E+03  0.10000000000E+00 0.  1.
         21    1    1    2  504  503 -0.17266662434E+02  0.12893889810E+01 -0.17695353306E+03  0.17779863053E+03  0.00000000000E+00 0.  1.
<mgrwt>
<rscale>  1 0.12625243E+03</rscale>
<asrwt>0</asrwt>
<pdfrwt beam="1">  1       21 0.18124777E-02 0.12625243E+03</pdfrwt>
<pdfrwt beam="2">  1       21 0.81262426E-01 0.12625243E+03</pdfrwt>
<totfact> 0.19133576E+06</totfact>
</mgrwt>
</event>
<event>
 6    1  0.4271609E-002  0.1746324E+03  0.7546771E-02  0.1173101E+00
         21   -1    0    0  503  502  0.00000000000E+00  0.00000000000E+00  0.44030630557E+02  0.44030630557E+02  0.00000000000E+00 0.  1.
         21   -1    0    0  504  503 -0.00000000000E+00 -0.00000000000E+00 -0.82759862819E+03  0.82759862819E+03  0.00000000000E+00 0.  1.
         25    2    1    2    0    0  0.11105703131E+03  0.50387319000E+02 -0.16197376062E+03  0.23818475320E+03  0.12499572556E+03 0.  0.
          5    1    3    3  501    0 -0.20818342580E+02  0.76347734675E+01  0.33524995592E+01  0.22426377482E+02  0.10000000000E+00 0. -1.
         -5    1    3    3    0  501  0.13187537389E+03  0.42752545532E+02 -0.16532626017E+03  0.21575837571E+03  0.10000000000E+00 0. -1.
         21    1    1    2  504  502 -0.11105703131E+03 -0.50387319000E+02 -0.62159423702E+03  0.63344450555E+03  0.00000000000E+00 0.  1.
<mgrwt>
<rscale>  1 0.17463241E+03</rscale>
<asrwt>0</asrwt>
<pdfrwt beam="1">  1       21 0.67739433E-02 0.17463241E+03</pdfrwt>
<pdfrwt beam="2">  1       21 0.12732286E+00 0.17463241E+03</pdfrwt>
<totfact> 0.73558544E+04</totfact>
</mgrwt>
</event>
<event>
 6    1  0.4271609E-002  0.1279118E+03  0.7546771E-02  0.1230587E+00
         21   -1    0    0  504  502  0.00000000000E+00  0.00000000000E+00  0.64019731311E+02  0.64019731311E+02  0.00000000000E+00 0. -1.
         21   -1    0    0  502  503 -0.00000000000E+00 -0.00000000000E+00 -0.10823675219E+03  0.10823675219E+03  0.00000000000E+00 0. -1.
         25    2    1    2    0    0 -0.24418841832E+02  0.11285457292E+02 -0.93982769307E+01  0.12825663904E+03  0.12505117539E+03 0.  0.
          5    1    3    3  501    0 -0.41812465606E+02 -0.22311656525E+02 -0.52619686352E+02  0.70816196514E+02  0.10000000000E+00 0. -1.
         -5    1    3    3    0  501  0.17393623774E+02  0.33597113817E+02  0.43221409422E+02  0.57440442523E+02  0.10000000000E+00 0. -1.
         21    1    1    2  504  503  0.24418841832E+02 -0.11285457292E+02 -0.34818743946E+02  0.43999844462E+02  0.00000000000E+00 0.  1.
<mgrwt>
<rscale>  1 0.12791184E+03</rscale>
<asrwt>0</asrwt>
<pdfrwt beam="1">  1       21 0.98491895E-02 0.12791184E+03</pdfrwt>
<pdfrwt beam="2">  1       21 0.16651808E-01 0.12791184E+03</pdfrwt>
<totfact> 0.26763539E+06</totfact>
</mgrwt>
</event>
<event>
 6    1  0.4271609E-002  0.1264683E+03  0.7546771E-02  0.1232792E+00
         21   -1    0    0  504  502  0.00000000000E+00  0.00000000000E+00  0.67510657900E+03  0.67510657900E+03  0.00000000000E+00 0.  1.
         21   -1    0    0  502  503 -0.00000000000E+00 -0.00000000000E+00 -0.79601518909E+01  0.79601518909E+01  0.00000000000E+00 0.  1.
         25    2    1    2    0    0 -0.39274153676E+01  0.18812602380E+02  0.60219984746E+03  0.61533640676E+03  0.12499959438E+03 0.  0.
          5    1    3    3  501    0  0.19741959902E+01  0.65718347866E+02  0.47696861506E+03  0.48147883489E+03  0.10000000000E+00 0.  1.
         -5    1    3    3    0  501 -0.59016113578E+01 -0.46905745486E+02  0.12523123241E+03  0.13385757187E+03  0.10000000000E+00 0.  1.
         21    1    1    2  504  503  0.39274153676E+01 -0.18812602380E+02  0.64946579644E+02  0.67730324133E+02  0.00000000000E+00 0.  1.
<mgrwt>
<rscale>  1 0.12646832E+03</rscale>
<asrwt>0</asrwt>
<pdfrwt beam="1">  1       21 0.10386250E+00 0.12646832E+03</pdfrwt>
<pdfrwt beam="2">  1       21 0.12246393E-02 0.12646832E+03</pdfrwt>
<totfact> 0.20357678E+06</totfact>
</mgrwt>
</event>
<event>
 6    1  0.4271609E-002  0.1284757E+03  0.7546771E-02  0.1229735E+00
         21   -1    0    0  503  502  0.00000000000E+00  0.00000000000E+00  0.33662898528E+03  0.33662898528E+03  0.00000000000E+00 0.  1.
         21   -1    0    0  504  503 -0.00000000000E+00 -0.00000000000E+00 -0.61344768529E+02  0.61344768529E+02  0.00000000000E+00 0. -1.
         25    2    1    2    0    0 -0.26796461106E+02 -0.12712690138E+02  0.31970940604E+03  0.34455783613E+03  0.12500534113E+03 0.  0.
          5    1    3    3  501    0  0.40317716295E+01  0.11000493150E+02  0.30129958626E+03  0.30152730674E+03  0.10000000000E+00 0. -1.
         -5    1    3    3    0  501 -0.30828232735E+02 -0.23713183288E+02  0.18409819782E+02  0.43030529391E+02  0.10000000000E+00 0. -1.
         21    1    1    2  504  502  0.26796461106E+02  0.12712690138E+02 -0.44425189286E+02  0.53415917678E+02  0.00000000000E+00 0. -1.
<mgrwt>
<rscale>  1 0.12847567E+03</rscale>
<asrwt>0</asrwt>
<pdfrwt beam="1">  1       21 0.51789074E-01 0.12847567E+03</pdfrwt>
<pdfrwt beam="2">  1       21 0.94376569E-02 0.12847567E+03</pdfrwt>
<totfact> 0.32238717E+05</totfact>
</mgrwt>
</event>
<event>
 6    1  0.4271609E-002  0.1260884E+03  0.7546771E-02  0.1233378E+00
         21   -1    0    0  503  502  0.00000000000E+00  0.00000000000E+00  0.49370890717E+03  0.49370890717E+03  0.00000000000E+00 0. -1.
         21   -1    0    0  504  503 -0.00000000000E+00 -0.00000000000E+00 -0.34854299125E+03  0.34854299125E+03  0.00000000000E+00 0. -1.
         25    2    1    2    0    0  0.49426975610E+01 -0.15531030474E+02  0.48546025126E+03  0.50156747285E+03  0.12503052068E+03 0.  0.
          5    1    3    3  501    0 -0.16018355294E+02 -0.32932496548E+02  0.36239302997E+02  0.51521200655E+02  0.10000000000E+00 0.  1.
         -5    1    3    3    0  501  0.20961052855E+02  0.17401466074E+02  0.44922094826E+03  0.45004627219E+03  0.10000000000E+00 0.  1.
         21    1    1    2  504  502 -0.49426975610E+01  0.15531030474E+02 -0.34029433533E+03  0.34068442557E+03  0.00000000000E+00 0. -1.
<mgrwt>
<rscale>  1 0.12608836E+03</rscale>
<asrwt>0</asrwt>
<pdfrwt beam="1">  1       21 0.75955217E-01 0.12608836E+03</pdfrwt>
<pdfrwt beam="2">  1       21 0.53621999E-01 0.12608836E+03</pdfrwt>
<totfact> 0.53947056E+03</totfact>
</mgrwt>
</event>
<event>
 6    1  0.4271609E-002  0.1400330E+03  0.7546771E-02  0.1213285E+00
         21   -1    0    0  504  502  0.00000000000E+00  0.00000000000E+00  0.12353787893E+03  0.12353787893E+03  0.00000000000E+00 0. -1.
         21   -1    0    0  502  503 -0.00000000000E+00 -0.00000000000E+00 -0.10872647588E+03  0.10872647588E+03  0.00000000000E+00 0. -1.
         25    2    1    2    0    0 -0.60985537654E+02 -0.16313978689E+02  0.62300962205E+02  0.15326663375E+03  0.12499547762E+03 0.  0.
          5    1    3    3  501    0 -0.52786652916E+02 -0.53074350286E+02 -0.61816858635E+01  0.75110189885E+02  0.10000000000E+00 0.  1.
         -5    1    3    3    0  501 -0.81988847373E+01  0.36760371597E+02  0.68482648069E+02  0.78156443864E+02  0.10000000000E+00 0.  1.
         21    1    1    2  504  503  0.60985537654E+02  0.16313978689E+02 -0.47489559161E+02  0.78997721061E+02  0.00000000000E+00 0. -1.
<mgrwt>
<rscale>  1 0.14003304E+03</rscale>
<asrwt>0</asrwt>
<pdfrwt beam="1">  1       21 0.19005828E-01 0.14003304E+03</pdfrwt>
<pdfrwt beam="2">  1       21 0.16727150E-01 0.14003304E+03</pdfrwt>
<totfact> 0.81834870E+05</totfact>
</mgrwt>
</event>
<event>
 6    1  0.4271609E-002  0.1274879E+03  0.7546771E-02  0.1231232E+00
         21   -1    0    0  503  502  0.00000000000E+00  0.00000000000E+00  0.38814340603E+03  0.38814340603E+03  0.00000000000E+00 0.  1.
         21   -1    0    0  504  503 -0.00000000000E+00 -0.00000000000E+00 -0.39499207304E+02  0.39499207304E+02  0.00000000000E+00 0.  1.
         25    2    1    2    0    0 -0.24945131112E+02  0.18921829176E+01  0.37210958223E+03  0.39334299023E+03  0.12500930707E+03 0.  0.
          5    1    3    3  501    0 -0.58181401039E+02 -0.41266752854E+02  0.17874939219E+03  0.19245616520E+03  0.10000000000E+00 0. -1.
         -5    1    3    3    0  501  0.33236269927E+02  0.43158935771E+02  0.19336019004E+03  0.20088682503E+03  0.10000000000E+00 0. -1.
         21    1    1    2  504  502  0.24945131112E+02 -0.18921829176E+01 -0.23465383501E+02  0.34299623106E+02  0.00000000000E+00 0.  1.
<mgrwt>
<rscale>  1 0.12748791E+03</rscale>
<asrwt>0</asrwt>
<pdfrwt beam="1">  1       21 0.59714368E-01 0.12748791E+03</pdfrwt>
<pdfrwt beam="2">  1       21 0.60768014E-02 0.12748791E+03</pdfrwt>
<totfact> 0.50972692E+05</totfact>
</mgrwt>
</event>
<event>
 6    1  0.4271609E-002  0.1373937E+03  0.7546771E-02  0.1216880E+00
         21   -1    0    0  504  502  0.00000000000E+00  0.00000000000E+00  0.60771850191E+02  0.60771850191E+02  0.00000000000E+00 0.  1.
         21   -1    0    0  502  503 -0.00000000000E+00 -0.00000000000E+00 -0.17730030681E+03  0.17730030681E+03  0.00000000000E+00 0.  1.
         25    2    1    2    0    0 -0.17273564208E+02  0.54340808227E+02 -0.40890598320E+02  0.14334948249E+03  0.12500293452E+03 0.  0.
          5    1    3    3  501    0 -0.60576754100E+02  0.65653207096E+02 -0.12133247130E+02  0.90150498752E+02  0.10000000000E+00 0.  1.
         -5    1    3    3    0  501  0.43303189892E+02 -0.11312398868E+02 -0.28757351191E+02  0.53198983735E+02  0.10000000000E+00 0.  1.
         21    1    1    2  504  503  0.17273564208E+02 -0.54340808227E+02 -0.75637858301E+02  0.94722674517E+02  0.00000000000E+00 0.  1.
<mgrwt>
<rscale>  1 0.13739372E+03</rscale>
<asrwt>0</asrwt>
<pdfrwt beam="1">  1       21 0.93495155E-02 0.13739372E+03</pdfrwt>
<pdfrwt beam="2">  1       21 0.27276970E-01 0.13739372E+03</pdfrwt>
<totfact> 0.11710782E+06</totfact>
</mgrwt>
</event>
<event>
 6    1  0.4271609E-002  0.1364211E+03  0.7546771E-02  0.1218227E+00
         21   -1    0    0  504  502  0.00000000000E+00  0.00000000000E+00  0.94744841291E+01  0.94744841291E+01  0.00000000000E+00 0.  1.
         21   -1    0    0  502  503 -0.00000000000E+00 -0.00000000000E+00 -0.97372973004E+03  0.97372973004E+03  0.00000000000E+00 0.  1.
         25    2    1    2    0    0  0.54220920652E+02 -0.67935061112E+01 -0.64017390934E+03  0.65454820452E+03  0.12499863153E+03 0.  0.
          5    1    3    3  501    0  0.33542596302E+02  0.17356891829E+02 -0.45971665590E+02  0.59495978837E+02  0.10000000000E+00 0. -1.
         -5    1    3    3    0  501  0.20678324350E+02 -0.24150397941E+02 -0.59420224375E+03  0.59505222569E+03  0.10000000000E+00 0. -1.
         21    1    1    2  504  503 -0.54220920652E+02  0.67935061112E+01 -0.32408133658E+03  0.32865600965E+03  0.00000000000E+00 0.  1.
<mgrwt>
<rscale>  1 0.13642110E+03</rscale>
<asrwt>0</asrwt>
<pdfrwt beam="1">  1       21 0.14576123E-02 0.13642110E+03</pdfrwt>
<pdfrwt beam="2">  1       21 0.14980464E+00 0.13642110E+03</pdfrwt>
<totfact> 0.62449823E+05</totfact>
</mgrwt>
</event>
<event>
 6    1  0.4271609E-002  0.1275359E+03  0.7546771E-02  0.1231159E+00
         21   -1    0    0  503  502  0.00000000000E+00  0.00000000000E+00  0.55091840103E+02  0.55091840103E+02  0.00000000000E+00 0.  1.
         21   -1    0    0  504  503 -0.00000000000E+00 -0.00000000000E+00 -0.13466778461E+03  0.13466778461E+03  0.00000000000E+00 0.  1.
         25    2    1    2    0    0 -0.25019107734E+02  0.36444851454E+01 -0.25493157476E+02  0.13005882173E+03  0.12500463195E+03 0.  0.
          5    1    3    3  501    0 -0.43400255357E+02 -0.19316167769E+02  0.37509958731E+02  0.60528534646E+02  0.10000000000E+00 0. -1.
         -5    1    3    3    0  501  0.18381147623E+02  0.22960652915E+02 -0.63003116208E+02  0.69530287085E+02  0.10000000000E+00 0. -1.
         21    1    1    2  504  502  0.25019107734E+02 -0.36444851454E+01 -0.54082787029E+02  0.59700802981E+02  0.00000000000E+00 0. -1.
<mgrwt>
<rscale>  1 0.12753586E+03</rscale>
<asrwt>0</asrwt>
<pdfrwt beam="1">  1       21 0.84756677E-02 0.12753586E+03</pdfrwt>
<pdfrwt beam="2">  1       21 0.20718121E-01 0.12753586E+03</pdfrwt>
<totfact> 0.23265067E+06</totfact>
</mgrwt>
</event>
<event>
 6    1  0.4271609E-002  0.1351561E+03  0.7546771E-02  0.1220000E+00
         21   -1    0    0  504  502  0.00000000000E+00  0.00000000000E+00  0.67626160015E+01  0.67626160015E+01  0.00000000000E+00 0.  1.
         21   -1    0    0  502  503 -0.00000000000E+00 -0.00000000000E+00 -0.20634465345E+04  0.20634465345E+04  0.00000000000E+00 0.  1.
         25    2    1    2    0    0 -0.51275562837E+02  0.31501156291E+01 -0.72227769606E+03  0.73481442494E+03  0.12501224861E+03 0.  0.
          5    1    3    3  501    0 -0.84418139328E+02 -0.26808131008E+02 -0.41860042295E+03  0.42786846370E+03  0.10000000000E+00 0.  1.
         -5    1    3    3    0  501  0.33142576491E+02  0.29958246637E+02 -0.30367727310E+03  0.30694596123E+03  0.10000000000E+00 0.  1.
         21    1    1    2  504  503  0.51275562837E+02 -0.31501156291E+01 -0.13344062225E+04  0.13353947256E+04  0.00000000000E+00 0.  1.
<mgrwt>
<rscale>  1 0.13515609E+03</rscale>
<asrwt>0</asrwt>
<pdfrwt beam="1">  1       21 0.10404020E-02 0.13515609E+03</pdfrwt>
<pdfrwt beam="2">  1       21 0.31745345E+00 0.13515609E+03</pdfrwt>
<totfact> 0.10085899E+05</totfact>
</mgrwt>
</event>
<event>
 6    1  0.4271609E-002  0.1276386E+03  0.7546771E-02  0.1231002E+00
         21   -1    0    0  504  502  0.00000000000E+00  0.00000000000E+00  0.77814428038E+03  0.77814428038E+03  0.00000000000E+00 0. -1.
         21   -1    0    0  502  503 -0.00000000000E+00 -0.00000000000E+00 -0.21289591132E+02  0.21289591132E+02  0.00000000000E+00 0.  1.
         25    2    1    2    0    0 -0.66715554092E+01 -0.24885609112E+02  0.76245752568E+03  0.77306732133E+03  0.12501120613E+03 0.  0.
          5    1    3    3  501    0 -0.58541465251E+02 -0.29738661166E+02  0.56687920397E+03  0.57066937277E+03  0.10000000000E+00 0.  1.
         -5    1    3    3    0  501  0.51869909842E+02  0.48530520539E+01  0.19557832171E+03  0.20239794856E+03  0.10000000000E+00 0.  1.
         21    1    1    2  504  503  0.66715554092E+01  0.24885609112E+02 -0.56028364266E+01  0.26366550181E+02  0.00000000000E+00 0.  1.
<mgrwt>
<rscale>  1 0.12763857E+03</rscale>
<asrwt>0</asrwt>
<pdfrwt beam="1">  1       21 0.11971448E+00 0.12763857E+03</pdfrwt>
<pdfrwt beam="2">  1       21 0.32753223E-02 0.12763857E+03</pdfrwt>
<totfact> 0.29611000E+05</totfact>
</mgrwt>
</event>
<event>
 6    1  0.4271609E-002  0.1265194E+03  0.7546771E-02  0.1232714E+00
         21   -1    0    0  504  502  0.00000000000E+00  0.00000000000E+00  0.11047570585E+04  0.11047570585E+04  0.00000000000E+00 0. -1.
         21   -1    0    0  502  503 -0.00000000000E+00 -0.00000000000E+00 -0.52990484774E+01  0.52990484774E+01  0.00000000000E+00 0. -1.
         25    2    1    2    0    0  0.52901649562E+01  0.18807782492E+02  0.10349413561E+04  0.10426460397E+04  0.12500174063E+03 0.  0.
          5    1    3    3  501    0 -0.15379387009E+02 -0.93772085115E+01  0.19286973154E+02  0.26390432313E+02  0.10000000000E+00 0.  1.
         -5    1    3    3    0  501  0.20669551965E+02  0.28184991003E+02  0.10156543829E+04  0.10162556074E+04  0.10000000000E+00 0.  1.
         21    1    1    2  504  503 -0.52901649562E+01 -0.18807782492E+02  0.64516654001E+02  0.67410067282E+02  0.00000000000E+00 0. -1.
<mgrwt>
<rscale>  1 0.12651938E+03</rscale>
<asrwt>0</asrwt>
<pdfrwt beam="1">  1       21 0.16996244E+00 0.12651938E+03</pdfrwt>
<pdfrwt beam="2">  1       21 0.81523910E-03 0.12651938E+03</pdfrwt>
<totfact> 0.11223709E+06</totfact>
</mgrwt>
</event>
<event>
 6    1  0.4271609E-002  0.1380528E+03  0.7546771E-02  0.1215973E+00
         21   -1    0    0  504  502  0.00000000000E+00  0.00000000000E+00  0.15091478271E+03  0.15091478271E+03  0.00000000000E+00 0. -1.
         21   -1    0    0  502  503 -0.00000000000E+00 -0.00000000000E+00 -0.76804540862E+02  0.76804540862E+02  0.00000000000E+00 0. -1.
         25    2    1    2    0    0 -0.52656621621E+02 -0.25673007626E+02  0.92665392177E+02  0.16626920782E+03  0.12500700557E+03 0.  0.
          5    1    3    3  501    0 -0.27015365220E+02  0.46486660110E+02  0.66114104008E+02  0.85216924815E+02  0.10000000000E+00 0. -1.
         -5    1    3    3    0  501 -0.25641256401E+02 -0.72159667736E+02  0.26551288169E+02  0.81052283009E+02  0.10000000000E+00 0. -1.
         21    1    1    2  504  503  0.52656621621E+02  0.25673007626E+02 -0.18555150333E+02  0.61450115744E+02  0.00000000000E+00 0. -1.
<mgrwt>
<rscale>  1 0.13805280E+03</rscale>
<asrwt>0</asrwt>
<pdfrwt beam="1">  1       21 0.23217659E-01 0.13805280E+03</pdfrwt>
<pdfrwt beam="2">  1       21 0.11816083E-01 0.13805280E+03</pdfrwt>
<totfact> 0.10528881E+06</totfact>
</mgrwt>
</event>
<event>
 6    1  0.4271609E-002  0.1279057E+03  0.7546771E-02  0.1230597E+00
         21   -1    0    0  504  502  0.00000000000E+00  0.00000000000E+00  0.25085946850E+02  0.25085946850E+02  0.00000000000E+00 0.  1.
         21   -1    0    0  502  503 -0.00000000000E+00 -0.00000000000E+00 -0.24184309197E+03  0.24184309197E+03  0.00000000000E+00 0.  1.
         25    2    1    2    0    0  0.25189374039E+02  0.10072916977E+02 -0.16820903307E+03  0.21131530487E+03  0.12499564409E+03 0.  0.
          5    1    3    3  501    0  0.12502980737E+02 -0.56013457460E+02 -0.54267872080E+02  0.78986352517E+02  0.10000000000E+00 0.  1.
         -5    1    3    3    0  501  0.12686393303E+02  0.66086374437E+02 -0.11394116099E+03  0.13232895235E+03  0.10000000000E+00 0.  1.
         21    1    1    2  504  503 -0.25189374039E+02 -0.10072916977E+02 -0.48548112046E+02  0.55613733952E+02  0.00000000000E+00 0.  1.
<mgrwt>
<rscale>  1 0.12790574E+03</rscale>
<asrwt>0</asrwt>
<pdfrwt beam="1">  1       21 0.38593763E-02 0.12790574E+03</pdfrwt>
<pdfrwt beam="2">  1       21 0.37206631E-01 0.12790574E+03</pdfrwt>
<totfact> 0.28733307E+06</totfact>
</mgrwt>
</event>
<event>
 6    1  0.4271609E-002  0.1286023E+03  0.7546771E-02  0.1229545E+00
         21   -1    0    0  503  502  0.00000000000E+00  0.00000000000E+00  0.31458215923E+03  0.31458215923E+03  0.00000000000E+00 0. -1.
         21   -1    0    0  504  503 -0.00000000000E+00 -0.00000000000E+00 -0.20050448932E+02  0.20050448932E+02  0.00000000000E+00 0. -1.
         25    2    1    2    0    0  0.30062052589E+02  0.28238321383E+01  0.24153638264E+03  0.27363911845E+03  0.12500736767E+03 0.  0.
          5    1    3    3  501    0  0.49364535238E+02 -0.88047208201E+01  0.24566404912E+03  0.25072936701E+03  0.10000000000E+00 0.  1.
         -5    1    3    3    0  501 -0.19302482649E+02  0.11628552958E+02 -0.41276664873E+01  0.22909751438E+02  0.10000000000E+00 0.  1.
         21    1    1    2  504  502 -0.30062052589E+02 -0.28238321383E+01  0.52995327656E+02  0.60993489712E+02  0.00000000000E+00 0. -1.
<mgrwt>
<rscale>  1 0.12860227E+03</rscale>
<asrwt>0</asrwt>
<pdfrwt beam="1">  1       21 0.48397252E-01 0.12860227E+03</pdfrwt>
<pdfrwt beam="2">  1       21 0.30846847E-02 0.12860227E+03</pdfrwt>
<totfact> 0.24482164E+06</totfact>
</mgrwt>
</event>
<event>
 6    1  0.4271609E-002  0.1264115E+03  0.7546771E-02  0.1232880E+00
         21   -1    0    0  503  502  0.00000000000E+00  0.00000000000E+00  0.48999091092E+02  0.48999091092E+02  0.00000000000E+00 0.  1.
         21   -1    0    0  504  503 -0.00000000000E+00 -0.00000000000E+00 -0.44413492038E+03  0.44413492038E+03  0.00000000000E+00 0.  1.
         25    2    1    2    0    0  0.13934001264E+02 -0.12703364879E+02 -0.33188157002E+02  0.13069553484E+03  0.12499734874E+03 0.  0.
          5    1    3    3  501    0  0.47606175749E+02 -0.42102943801E+02  0.14653244792E+02  0.65220651861E+02  0.10000000000E+00 0.  1.
         -5    1    3    3    0  501 -0.33672174486E+02  0.29399578922E+02 -0.47841401794E+02  0.65474882979E+02  0.10000000000E+00 0.  1.
         21    1    1    2  504  502 -0.13934001264E+02  0.12703364879E+02 -0.36194767228E+03  0.36243847663E+03  0.00000000000E+00 0.  1.
<mgrwt>
<rscale>  1 0.12641151E+03</rscale>
<asrwt>0</asrwt>
<pdfrwt beam="1">  1       21 0.75383215E-02 0.12641151E+03</pdfrwt>
<pdfrwt beam="2">  1       21 0.68328451E-01 0.12641151E+03</pdfrwt>
<totfact> 0.26430672E+05</totfact>
</mgrwt>
</event>
<event>
 6    1  0.4271609E-002  0.1530422E+03  0.7546771E-02  0.1196784E+00
         21   -1    0    0  503  502  0.00000000000E+00  0.00000000000E+00  0.71167804139E+03  0.71167804139E+03  0.00000000000E+00 0. -1.
         21   -1    0    0  504  503 -0.00000000000E+00 -0.00000000000E+00 -0.26635574380E+03  0.26635574380E+03  0.00000000000E+00 0. -1.
         25    2    1    2    0    0 -0.79814684267E+02 -0.37766619774E+02  0.69580828673E+03  0.71244023830E+03  0.12500087946E+03 0.  0.
          5    1    3    3  501    0  0.27526446361E+02 -0.18726215713E+01  0.28477338934E+03  0.28610680739E+03  0.10000000000E+00 0.  1.
         -5    1    3    3    0  501 -0.10734113063E+03 -0.35893998202E+02  0.41103489739E+03  0.42633343090E+03  0.10000000000E+00 0.  1.
         21    1    1    2  504  502  0.79814684267E+02  0.37766619774E+02 -0.25048598914E+03  0.26559354689E+03  0.00000000000E+00 0. -1.
<mgrwt>
<rscale>  1 0.15304222E+03</rscale>
<asrwt>0</asrwt>
<pdfrwt beam="1">  1       21 0.10948893E+00 0.15304222E+03</pdfrwt>
<pdfrwt beam="2">  1       21 0.40977807E-01 0.15304222E+03</pdfrwt>
<totfact> 0.39261185E+03</totfact>
</mgrwt>
</event>
<event>
 6    1  0.4271609E-002  0.1261817E+03  0.7546771E-02  0.1233234E+00
         21   -1    0    0  504  502  0.00000000000E+00  0.00000000000E+00  0.69510291123E+02  0.69510291123E+02  0.00000000000E+00 0. -1.
         21   -1    0    0  502  503 -0.00000000000E+00 -0.00000000000E+00 -0.11010967311E+03  0.11010967311E+03  0.00000000000E+00 0. -1.
         25    2    1    2    0    0  0.60022752461E+01 -0.16135731257E+02  0.96040720984E+01  0.12654665707E+03  0.12500171632E+03 0.  0.
          5    1    3    3  501    0  0.54736943769E+02 -0.43790063165E+02  0.35753517090E+01  0.70189000456E+02  0.10000000000E+00 0. -1.
         -5    1    3    3    0  501 -0.48734668523E+02  0.27654331908E+02  0.60287203895E+01  0.56357656612E+02  0.10000000000E+00 0. -1.
         21    1    1    2  504  503 -0.60022752461E+01  0.16135731257E+02 -0.50203454084E+02  0.53073307164E+02  0.00000000000E+00 0. -1.
<mgrwt>
<rscale>  1 0.12618169E+03</rscale>
<asrwt>0</asrwt>
<pdfrwt beam="1">  1       21 0.10693891E-01 0.12618169E+03</pdfrwt>
<pdfrwt beam="2">  1       21 0.16939950E-01 0.12618169E+03</pdfrwt>
<totfact> 0.22448761E+06</totfact>
</mgrwt>
</event>
<event>
 6    1  0.4271609E-002  0.1264340E+03  0.7546771E-02  0.1232845E+00
         21   -1    0    0  503  502  0.00000000000E+00  0.00000000000E+00  0.38401996090E+02  0.38401996090E+02  0.00000000000E+00 0.  1.
         21   -1    0    0  504  503 -0.00000000000E+00 -0.00000000000E+00 -0.58278169788E+03  0.58278169788E+03  0.00000000000E+00 0. -1.
         25    2    1    2    0    0 -0.54531059515E+01  0.18173180297E+02 -0.66365924657E+02  0.14279350597E+03  0.12500219416E+03 0.  0.
          5    1    3    3  501    0  0.18772782248E+02  0.45722032916E+02 -0.87471515830E+02  0.10046988469E+03  0.10000000000E+00 0. -1.
         -5    1    3    3    0  501 -0.24225888200E+02 -0.27548852619E+02  0.21105591173E+02  0.42323621282E+02  0.10000000000E+00 0. -1.
         21    1    1    2  504  502  0.54531059515E+01 -0.18173180297E+02 -0.47801377713E+03  0.47839018800E+03  0.00000000000E+00 0. -1.
<mgrwt>
<rscale>  1 0.12643397E+03</rscale>
<asrwt>0</asrwt>
<pdfrwt beam="1">  1       21 0.59080000E-02 0.12643397E+03</pdfrwt>
<pdfrwt beam="2">  1       21 0.89658713E-01 0.12643397E+03</pdfrwt>
<totfact> 0.21882108E+05</totfact>
</mgrwt>
</event>
<event>
 6    1  0.4271609E-002  0.1263636E+03  0.7546771E-02  0.1232953E+00
         21   -1    0    0  503  502  0.00000000000E+00  0.00000000000E+00  0.47590421013E+03  0.47590421013E+03  0.00000000000E+00 0.  1.
         21   -1    0    0  504  503 -0.00000000000E+00 -0.00000000000E+00 -0.20827614793E+02  0.20827614793E+02  0.00000000000E+00 0.  1.
         25    2    1    2    0    0 -0.22006562632E+01  0.18412600217E+02  0.46041035992E+03  0.47743633893E+03  0.12499556582E+03 0.  0.
          5    1    3    3  501    0 -0.38374554235E+02  0.26629945585E+02  0.63672909807E+02  0.78968410506E+02  0.10000000000E+00 0.  1.
         -5    1    3    3    0  501  0.36173897972E+02 -0.82173453688E+01  0.39673745012E+03  0.39846792843E+03  0.10000000000E+00 0.  1.
         21    1    1    2  504  502  0.22006562632E+01 -0.18412600217E+02 -0.53337645902E+01  0.19295485986E+02  0.00000000000E+00 0.  1.
<mgrwt>
<rscale>  1 0.12636360E+03</rscale>
<asrwt>0</asrwt>
<pdfrwt beam="1">  1       21 0.73216024E-01 0.12636360E+03</pdfrwt>
<pdfrwt beam="2">  1       21 0.32042488E-02 0.12636360E+03</pdfrwt>
<totfact> 0.95538259E+05</totfact>
</mgrwt>
</event>
<event>
 6    1  0.4271609E-002  0.1262349E+03  0.7546771E-02  0.1233152E+00
         21   -1    0    0  504  502  0.00000000000E+00  0.00000000000E+00  0.68067088329E+02  0.68067088329E+02  0.00000000000E+00 0.  1.
         21   -1    0    0  502  503 -0.00000000000E+00 -0.00000000000E+00 -0.85320467605E+03  0.85320467605E+03  0.00000000000E+00 0. -1.
         25    2    1    2    0    0  0.10745963561E+02 -0.13934280595E+02  0.93580881964E+01  0.12658124665E+03  0.12500239310E+03 0.  0.
          5    1    3    3  501    0  0.21360670922E+02  0.46487840398E+02 -0.24265691056E+02  0.56623593400E+02  0.10000000000E+00 0.  1.
         -5    1    3    3    0  501 -0.10614707362E+02 -0.60422120992E+02  0.33623779253E+02  0.69957653254E+02  0.10000000000E+00 0.  1.
         21    1    1    2  504  503 -0.10745963561E+02  0.13934280595E+02 -0.79449567591E+03  0.79469051772E+03  0.00000000000E+00 0. -1.
<mgrwt>
<rscale>  1 0.12623485E+03</rscale>
<asrwt>0</asrwt>
<pdfrwt beam="1">  1       21 0.10471860E-01 0.12623485E+03</pdfrwt>
<pdfrwt beam="2">  1       21 0.13126225E+00 0.12623485E+03</pdfrwt>
<totfact> 0.32919710E+04</totfact>
</mgrwt>
</event>
<event>
 6    1  0.4271609E-002  0.1268608E+03  0.7546771E-02  0.1232190E+00
         21   -1    0    0  504  502  0.00000000000E+00  0.00000000000E+00  0.13883862666E+03  0.13883862666E+03  0.00000000000E+00 0. -1.
         21   -1    0    0  502  503 -0.00000000000E+00 -0.00000000000E+00 -0.78715099964E+02  0.78715099964E+02  0.00000000000E+00 0. -1.
         25    2    1    2    0    0 -0.17929486866E+02 -0.12330145765E+02  0.10694403183E+03  0.16592370924E+03  0.12498060790E+03 0.  0.
          5    1    3    3  501    0  0.28883123442E+02 -0.28167006418E+02 -0.77088388923E+01  0.41073729650E+02  0.10000000000E+00 0. -1.
         -5    1    3    3    0  501 -0.46812610308E+02  0.15836860652E+02  0.11465287072E+03  0.12484997959E+03  0.10000000000E+00 0. -1.
         21    1    1    2  504  503  0.17929486866E+02  0.12330145765E+02 -0.46820505134E+02  0.51630017382E+02  0.00000000000E+00 0. -1.
<mgrwt>
<rscale>  1 0.12686076E+03</rscale>
<asrwt>0</asrwt>
<pdfrwt beam="1">  1       21 0.21359789E-01 0.12686076E+03</pdfrwt>
<pdfrwt beam="2">  1       21 0.12110015E-01 0.12686076E+03</pdfrwt>
<totfact> 0.11770203E+06</totfact>
</mgrwt>
</event>
<event>
 6    1  0.4271609E-002  0.1893590E+03  0.7546771E-02  0.1159041E+00
         21   -1    0    0  503  502  0.00000000000E+00  0.00000000000E+00  0.12283844741E+04  0.12283844741E+04  0.00000000000E+00 0.  1.
         21   -1    0    0  504  503 -0.00000000000E+00 -0.00000000000E+00 -0.21560267230E+03  0.21560267230E+03  0.00000000000E+00 0.  1.
         25    2    1    2    0    0  0.25563820522E+01  0.14219762964E+03  0.11966471857E+04  0.12115367639E+04  0.12502056718E+03 0.  0.
          5    1    3    3  501    0 -0.15014800492E+02  0.15856214609E+03  0.90546519845E+03  0.91936643076E+03  0.10000000000E+00 0. -1.
         -5    1    3    3    0  501  0.17571182545E+02 -0.16364516450E+02  0.29118198724E+03  0.29217033311E+03  0.10000000000E+00 0. -1.
         21    1    1    2  504  502 -0.25563820522E+01 -0.14219762964E+03 -0.18386538387E+03  0.23245038255E+03  0.00000000000E+00 0.  1.
<mgrwt>
<rscale>  1 0.18935903E+03</rscale>
<asrwt>0</asrwt>
<pdfrwt beam="1">  1       21 0.18898222E+00 0.18935903E+03</pdfrwt>
<pdfrwt beam="2">  1       21 0.33169643E-01 0.18935903E+03</pdfrwt>
<totfact> 0.13912194E+03</totfact>
</mgrwt>
</event>
<event>
 6    1  0.4271609E-002  0.1261186E+03  0.7546771E-02  0.1233331E+00
         21   -1    0    0  503  502  0.00000000000E+00  0.00000000000E+00  0.49486871177E+02  0.49486871177E+02  0.00000000000E+00 0. -1.
         21   -1    0    0  504  503 -0.00000000000E+00 -0.00000000000E+00 -0.12217469871E+03  0.12217469871E+03  0.00000000000E+00 0. -1.
         25    2    1    2    0    0 -0.13713460827E+02 -0.95858414503E+01 -0.35713427536E+02  0.13107766151E+03  0.12500382825E+03 0.  0.
          5    1    3    3  501    0  0.31340407952E+02  0.23452195377E+02 -0.58790687503E+02  0.70629891517E+02  0.10000000000E+00 0.  1.
         -5    1    3    3    0  501 -0.45053868779E+02 -0.33038036827E+02  0.23077259967E+02  0.60447769991E+02  0.10000000000E+00 0.  1.
         21    1    1    2  504  502  0.13713460827E+02  0.95858414503E+01 -0.36974399996E+02  0.40583908378E+02  0.00000000000E+00 0. -1.
<mgrwt>
<rscale>  1 0.12611861E+03</rscale>
<asrwt>0</asrwt>
<pdfrwt beam="1">  1       21 0.76133648E-02 0.12611861E+03</pdfrwt>
<pdfrwt beam="2">  1       21 0.18796107E-01 0.12611861E+03</pdfrwt>
<totfact> 0.33488554E+06</totfact>
</mgrwt>
</event>
<event>
 6    1  0.4271609E-002  0.1269152E+03  0.7546771E-02  0.1232106E+00
         21   -1    0    0  503  502  0.00000000000E+00  0.00000000000E+00  0.12034436075E+02  0.12034436075E+02  0.00000000000E+00 0. -1.
         21   -1    0    0  504  503 -0.00000000000E+00 -0.00000000000E+00 -0.46188566280E+03  0.46188566280E+03  0.00000000000E+00 0. -1.
         25    2    1    2    0    0  0.21872283967E+02 -0.36044462439E+01 -0.38620593402E+03  0.40652490526E+03  0.12496434006E+03 0.  0.
          5    1    3    3  501    0 -0.45344476973E+02 -0.52562254570E+01 -0.72344527078E+02  0.85542329266E+02  0.10000000000E+00 0. -1.
         -5    1    3    3    0  501  0.67216760940E+02  0.16517792131E+01 -0.31386140694E+03  0.32098257599E+03  0.10000000000E+00 0. -1.
         21    1    1    2  504  502 -0.21872283967E+02  0.36044462439E+01 -0.63645292709E+02  0.67395193617E+02  0.00000000000E+00 0. -1.
<mgrwt>
<rscale>  1 0.12691523E+03</rscale>
<asrwt>0</asrwt>
<pdfrwt beam="1">  1       21 0.18514518E-02 0.12691523E+03</pdfrwt>
<pdfrwt beam="2">  1       21 0.71059329E-01 0.12691523E+03</pdfrwt>
<totfact> 0.24880996E+06</totfact>
</mgrwt>
</event>
<event>
 6    1  0.4271609E-002  0.1330439E+03  0.7546771E-02  0.1223008E+00
         21   -1    0    0  503  502  0.00000000000E+00  0.00000000000E+00  0.34202451929E+02  0.34202451929E+02  0.00000000000E+00 0. -1.
         21   -1    0    0  504  503 -0.00000000000E+00 -0.00000000000E+00 -0.35644023671E+03  0.35644023671E+03  0.00000000000E+00 0. -1.
         25    2    1    2    0    0  0.16159475916E+02 -0.42604775399E+02 -0.10727986836E+03  0.17090830039E+03  0.12499752572E+03 0.  0.
          5    1    3    3  501    0  0.68256709282E+02 -0.58331053590E+01 -0.46359303201E+02  0.82717582614E+02  0.10000000000E+00 0. -1.
         -5    1    3    3    0  501 -0.52097233366E+02 -0.36771670040E+02 -0.60920565162E+02  0.88190717775E+02  0.10000000000E+00 0. -1.
         21    1    1    2  504  502 -0.16159475916E+02  0.42604775399E+02 -0.21495791642E+03  0.21973438825E+03  0.00000000000E+00 0. -1.
<mgrwt>
<rscale>  1 0.13304389E+03</rscale>
<asrwt>0</asrwt>
<pdfrwt beam="1">  1       21 0.52619156E-02 0.13304389E+03</pdfrwt>
<pdfrwt beam="2">  1       21 0.54836960E-01 0.13304389E+03</pdfrwt>
<totfact> 0.77791420E+05</totfact>
</mgrwt>
</event>
<event>
 6    1  0.4271609E-002  0.1263803E+03  0.7546771E-02  0.1232928E+00
         21   -1    0    0  503  502  0.00000000000E+00  0.00000000000E+00  0.10882163530E+03  0.10882163530E+03  0.00000000000E+00 0. -1.
         21   -1    0    0  504  503 -0.00000000000E+00 -0.00000000000E+00 -0.48340255686E+02  0.48340255686E+02  0.00000000000E+00 0. -1.
         25    2    1    2    0    0  0.18173279394E+02  0.39118965498E+01  0.50864046074E+02  0.13623190955E+03  0.12500564378E+03 0.  0.
          5    1    3    3  501    0  0.66404900825E+02 -0.11070313762E+02  0.53001530398E+02  0.85681590350E+02  0.10000000000E+00 0. -1.
         -5    1    3    3    0  501 -0.48231621431E+02  0.14982210312E+02 -0.21374843244E+01  0.50550319197E+02  0.10000000000E+00 0. -1.
         21    1    1    2  504  502 -0.18173279394E+02 -0.39118965498E+01  0.96173335387E+01  0.20929981437E+02  0.00000000000E+00 0. -1.
<mgrwt>
<rscale>  1 0.12638031E+03</rscale>
<asrwt>0</asrwt>
<pdfrwt beam="1">  1       21 0.16741790E-01 0.12638031E+03</pdfrwt>
<pdfrwt beam="2">  1       21 0.74369624E-02 0.12638031E+03</pdfrwt>
<totfact> 0.43078169E+06</totfact>
</mgrwt>
</event>
<event>
 6    1  0.4271609E-002  0.1306549E+03  0.7546771E-02  0.1226487E+00
         21   -1    0    0  503  502  0.00000000000E+00  0.00000000000E+00  0.64866318463E+02  0.64866318463E+02  0.00000000000E+00 0. -1.
         21   -1    0    0  504  503 -0.00000000000E+00 -0.00000000000E+00 -0.22260374984E+03  0.22260374984E+03  0.00000000000E+00 0. -1.
         25    2    1    2    0    0  0.61408004888E+01 -0.37521042376E+02 -0.57306124827E+01  0.13078053119E+03  0.12500067746E+03 0.  0.
          5    1    3    3  501    0  0.29284552309E+02 -0.39110616017E+02  0.50308330864E+02  0.70129618875E+02  0.10000000000E+00 0. -1.
         -5    1    3    3    0  501 -0.23143751820E+02  0.15895736414E+01 -0.56038943347E+02  0.60650912311E+02  0.10000000000E+00 0. -1.
         21    1    1    2  504  502 -0.61408004888E+01  0.37521042376E+02 -0.15200681890E+03  0.15668953712E+03  0.00000000000E+00 0. -1.
<mgrwt>
<rscale>  1 0.13065492E+03</rscale>
<asrwt>0</asrwt>
<pdfrwt beam="1">  1       21 0.99794334E-02 0.13065492E+03</pdfrwt>
<pdfrwt beam="2">  1       21 0.34246731E-01 0.13065492E+03</pdfrwt>
<totfact> 0.67265954E+05</totfact>
</mgrwt>
</event>
<event>
 6    1  0.4271609E-002  0.1275169E+03  0.7546771E-02  0.1231187E+00
         21   -1    0    0  504  502  0.00000000000E+00  0.00000000000E+00  0.81226859514E+02  0.81226859514E+02  0.00000000000E+00 0.  1.
         21   -1    0    0  502  503 -0.00000000000E+00 -0.00000000000E+00 -0.11897051937E+03  0.11897051937E+03  0.00000000000E+00 0.  1.
         25    2    1    2    0    0  0.12573924387E+02 -0.21819871107E+02  0.27336870143E+02  0.13041424529E+03  0.12500544210E+03 0.  0.
          5    1    3    3  501    0  0.18728228295E+02 -0.72134839428E+02  0.40646488176E+01  0.74637208981E+02  0.10000000000E+00 0.  1.
         -5    1    3    3    0  501 -0.61543039074E+01  0.50314968321E+02  0.23272221325E+02  0.55777036307E+02  0.10000000000E+00 0.  1.
         21    1    1    2  504  503 -0.12573924387E+02  0.21819871107E+02 -0.65080530001E+02  0.69783133598E+02  0.00000000000E+00 0.  1.
<mgrwt>
<rscale>  1 0.12751694E+03</rscale>
<asrwt>0</asrwt>
<pdfrwt beam="1">  1       21 0.12496440E-01 0.12751694E+03</pdfrwt>
<pdfrwt beam="2">  1       21 0.18303157E-01 0.12751694E+03</pdfrwt>
<totfact> 0.14806572E+06</totfact>
</mgrwt>
</event>
<event>
 6    1  0.4271609E-002  0.1324695E+03  0.7546771E-02  0.1223837E+00
         21   -1    0    0  504  502  0.00000000000E+00  0.00000000000E+00  0.80404252466E+03  0.80404252466E+03  0.00000000000E+00 0.  1.
         21   -1    0    0  502  503 -0.00000000000E+00 -0.00000000000E+00 -0.25207683315E+02  0.25207683315E+02  0.00000000000E+00 0.  1.
         25    2    1    2    0    0  0.56099185922E+01 -0.43463367683E+02  0.77389277420E+03  0.78514851249E+03  0.12501050032E+03 0.  0.
          5    1    3    3  501    0 -0.55910924499E+02 -0.12528194162E+02  0.47405111946E+03  0.47750126805E+03  0.10000000000E+00 0.  1.
         -5    1    3    3    0  501  0.61520843091E+02 -0.30935173522E+02  0.29984165474E+03  0.30764724445E+03  0.10000000000E+00 0.  1.
         21    1    1    2  504  503 -0.56099185922E+01  0.43463367683E+02  0.49420671450E+01  0.44101695485E+02  0.00000000000E+00 0.  1.
<mgrwt>
<rscale>  1 0.13246947E+03</rscale>
<asrwt>0</asrwt>
<pdfrwt beam="1">  1       21 0.12369883E+00 0.13246947E+03</pdfrwt>
<pdfrwt beam="2">  1       21 0.38781057E-02 0.13246947E+03</pdfrwt>
<totfact> 0.20636731E+05</totfact>
</mgrwt>
</event>
<event>
 6    1  0.4271609E-002  0.1262400E+03  0.7546771E-02  0.1233144E+00
         21   -1    0    0  504  502  0.00000000000E+00  0.00000000000E+00  0.29718003249E+02  0.29718003249E+02  0.00000000000E+00 0.  1.
         21   -1    0    0  502  503 -0.00000000000E+00 -0.00000000000E+00 -0.21806058207E+03  0.21806058207E+03  0.00000000000E+00 0.  1.
         25    2    1    2    0    0 -0.10449697278E+02 -0.14170636149E+02 -0.10987229612E+03  0.16735726744E+03  0.12500612148E+03 0.  0.
          5    1    3    3  501    0 -0.12968830469E+02  0.39582762266E+01  0.26497026597E+02  0.29765095882E+02  0.10000000000E+00 0.  1.
         -5    1    3    3    0  501  0.25191331909E+01 -0.18128912376E+02 -0.13636932271E+03  0.13759217156E+03  0.10000000000E+00 0.  1.
         21    1    1    2  504  503  0.10449697278E+02  0.14170636149E+02 -0.78470282707E+02  0.80421317884E+02  0.00000000000E+00 0.  1.
<mgrwt>
<rscale>  1 0.12623998E+03</rscale>
<asrwt>0</asrwt>
<pdfrwt beam="1">  1       21 0.45720004E-02 0.12623998E+03</pdfrwt>
<pdfrwt beam="2">  1       21 0.33547783E-01 0.12623998E+03</pdfrwt>
<totfact> 0.26550910E+06</totfact>
</mgrwt>
</event>
<event>
 6    1  0.4271609E-002  0.1326454E+03  0.7546771E-02  0.1223582E+00
         21   -1    0    0  504  502  0.00000000000E+00  0.00000000000E+00  0.33174672463E+03  0.33174672463E+03  0.00000000000E+00 0. -1.
         21   -1    0    0  502  503 -0.00000000000E+00 -0.00000000000E+00 -0.84175051496E+02  0.84175051496E+02  0.00000000000E+00 0.  1.
         25    2    1    2    0    0 -0.40261557297E+02  0.18676826382E+02  0.31123068027E+03  0.33831838683E+03  0.12499991075E+03 0.  0.
          5    1    3    3  501    0  0.33148882955E+02  0.24500882745E+00  0.23080805315E+02  0.40393589151E+02  0.10000000000E+00 0. -1.
         -5    1    3    3    0  501 -0.73410440252E+02  0.18431817555E+02  0.28814987495E+03  0.29792479768E+03  0.10000000000E+00 0. -1.
         21    1    1    2  504  503  0.40261557297E+02 -0.18676826382E+02 -0.63659007139E+02  0.77603389292E+02  0.00000000000E+00 0.  1.
<mgrwt>
<rscale>  1 0.13264537E+03</rscale>
<asrwt>0</asrwt>
<pdfrwt beam="1">  1       21 0.51037957E-01 0.13264537E+03</pdfrwt>
<pdfrwt beam="2">  1       21 0.12950008E-01 0.13264537E+03</pdfrwt>
<totfact> 0.19011041E+05</totfact>
</mgrwt>
</event>
<event>
 6    1  0.4271609E-002  0.1259497E+03  0.7546771E-02  0.1233592E+00
         21   -1    0    0  503  502  0.00000000000E+00  0.00000000000E+00  0.50882864080E+03  0.50882864080E+03  0.00000000000E+00 0.  1.
         21   -1    0    0  504  503 -0.00000000000E+00 -0.00000000000E+00 -0.11227772630E+02  0.11227772630E+02  0.00000000000E+00 0.  1.
         25    2    1    2    0    0 -0.13669163544E+02 -0.70423775271E+01  0.48187159082E+03  0.49805979371E+03  0.12500754758E+03 0.  0.
          5    1    3    3  501    0 -0.67019407923E+02  0.68413155597E+01  0.32136075984E+03  0.32834608663E+03  0.10000000000E+00 0. -1.
         -5    1    3    3    0  501  0.53350244379E+02 -0.13883693087E+02  0.16051083098E+03  0.16971370708E+03  0.10000000000E+00 0. -1.
         21    1    1    2  504  502  0.13669163544E+02  0.70423775271E+01  0.15729277341E+02  0.21996619715E+02  0.00000000000E+00 0.  1.
<mgrwt>
<rscale>  1 0.12594970E+03</rscale>
<asrwt>0</asrwt>
<pdfrwt beam="1">  1       21 0.78281311E-01 0.12594970E+03</pdfrwt>
<pdfrwt beam="2">  1       21 0.17273500E-02 0.12594970E+03</pdfrwt>
<totfact> 0.22466441E+06</totfact>
</mgrwt>
</event>
<event>
 6    1  0.4271609E-002  0.1285239E+03  0.7546771E-02  0.1229663E+00
         21   -1    0    0  503  502  0.00000000000E+00  0.00000000000E+00  0.77880645296E+01  0.77880645296E+01  0.00000000000E+00 0.  1.
         21   -1    0    0  504  503 -0.00000000000E+00 -0.00000000000E+00 -0.85198560632E+03  0.85198560632E+03  0.00000000000E+00 0.  1.
         25    2    1    2    0    0 -0.51608360490E+01  0.29448083919E+02 -0.75039631233E+03  0.76132320349E+03  0.12499828294E+03 0.  0.
          5    1    3    3  501    0  0.11566086363E+02 -0.21002471893E+02 -0.62063783424E+03  0.62110080460E+03  0.10000000000E+00 0.  1.
         -5    1    3    3    0  501 -0.16726922412E+02  0.50450555812E+02 -0.12975847808E+03  0.14022239889E+03  0.10000000000E+00 0.  1.
         21    1    1    2  504  502  0.51608360490E+01 -0.29448083919E+02 -0.93801229465E+02  0.98450467365E+02  0.00000000000E+00 0.  1.
<mgrwt>
<rscale>  1 0.12852391E+03</rscale>
<asrwt>0</asrwt>
<pdfrwt beam="1">  1       21 0.11981636E-02 0.12852391E+03</pdfrwt>
<pdfrwt beam="2">  1       21 0.13107472E+00 0.12852391E+03</pdfrwt>
<totfact> 0.11993705E+06</totfact>
</mgrwt>
</event>
<event>
 6    1  0.4271609E-002  0.1634582E+03  0.7546771E-02  0.1184847E+00
         21   -1    0    0  504  502  0.00000000000E+00  0.00000000000E+00  0.25333299533E+04  0.25333299533E+04  0.00000000000E+00 0. -1.
         21   -1    0    0  502  503 -0.00000000000E+00 -0.00000000000E+00 -0.80642395915E+01  0.80642395915E+01  0.00000000000E+00 0. -1.
         25    2    1    2    0    0  0.10491113746E+03 -0.93573116793E+01  0.19276254047E+04  0.19345434328E+04  0.12499874635E+03 0.  0.
          5    1    3    3  501    0  0.17859171860E+02 -0.51716031328E+02  0.38313387176E+03  0.38702076379E+03  0.10000000000E+00 0. -1.
         -5    1    3    3    0  501  0.87051965596E+02  0.42358719648E+02  0.15444915329E+04  0.15475226690E+04  0.10000000000E+00 0. -1.
         21    1    1    2  504  503 -0.10491113746E+03  0.93573116793E+01  0.59764030904E+03  0.60685076010E+03  0.00000000000E+00 0. -1.
<mgrwt>
<rscale>  1 0.16345823E+03</rscale>
<asrwt>0</asrwt>
<pdfrwt beam="1">  1       21 0.38974243E+00 0.16345823E+03</pdfrwt>
<pdfrwt beam="2">  1       21 0.12406543E-02 0.16345823E+03</pdfrwt>
<totfact> 0.27811078E+04</totfact>
</mgrwt>
</event>
<event>
 6    1  0.4271609E-002  0.1278613E+03  0.7546771E-02  0.1230664E+00
         21   -1    0    0  504  502  0.00000000000E+00  0.00000000000E+00  0.22731328206E+03  0.22731328206E+03  0.00000000000E+00 0.  1.
         21   -1    0    0  502  503 -0.00000000000E+00 -0.00000000000E+00 -0.38080786869E+02  0.38080786869E+02  0.00000000000E+00 0.  1.
         25    2    1    2    0    0 -0.10959387894E+02  0.24485927954E+02  0.19925943488E+03  0.23675478873E+03  0.12501535405E+03 0.  0.
          5    1    3    3  501    0  0.10264046160E+02 -0.24867119692E+02 -0.33809441244E+01  0.27113927575E+02  0.10000000000E+00 0. -1.
         -5    1    3    3    0  501 -0.21223434055E+02  0.49353047646E+02  0.20264037900E+03  0.20964086116E+03  0.10000000000E+00 0. -1.
         21    1    1    2  504  503  0.10959387894E+02 -0.24485927954E+02 -0.10026939684E+02  0.28639280198E+02  0.00000000000E+00 0.  1.
<mgrwt>
<rscale>  1 0.12786128E+03</rscale>
<asrwt>0</asrwt>
<pdfrwt beam="1">  1       21 0.34971273E-01 0.12786128E+03</pdfrwt>
<pdfrwt beam="2">  1       21 0.58585827E-02 0.12786128E+03</pdfrwt>
<totfact> 0.16134962E+06</totfact>
</mgrwt>
</event>
<event>
 6    1  0.4271609E-002  0.1267513E+03  0.7546771E-02  0.1232357E+00
         21   -1    0    0  503  502  0.00000000000E+00  0.00000000000E+00  0.72417149102E+03  0.72417149102E+03  0.00000000000E+00 0.  1.
         21   -1    0    0  504  503 -0.00000000000E+00 -0.00000000000E+00 -0.75698495820E+01  0.75698495820E+01  0.00000000000E+00 0.  1.
         25    2    1    2    0    0 -0.14324974808E+02 -0.15345331369E+02  0.63084971030E+03  0.64345726621E+03  0.12500084940E+03 0.  0.
          5    1    3    3  501    0  0.27462668134E+02  0.37904599271E+02  0.13235792447E+03  0.14039083644E+03  0.10000000000E+00 0.  1.
         -5    1    3    3    0  501 -0.41787642941E+02 -0.53249930639E+02  0.49849178583E+03  0.50306642977E+03  0.10000000000E+00 0.  1.
         21    1    1    2  504  502  0.14324974808E+02  0.15345331369E+02  0.85751931136E+02  0.88284074394E+02  0.00000000000E+00 0.  1.
<mgrwt>
<rscale>  1 0.12675132E+03</rscale>
<asrwt>0</asrwt>
<pdfrwt beam="1">  1       21 0.11141094E+00 0.12675132E+03</pdfrwt>
<pdfrwt beam="2">  1       21 0.11645928E-02 0.12675132E+03</pdfrwt>
<totfact> 0.18658011E+06</totfact>
</mgrwt>
</event>
<event>
 6    1  0.4271609E-002  0.1259480E+03  0.7546771E-02  0.1233595E+00
         21   -1    0    0  504  502  0.00000000000E+00  0.00000000000E+00  0.35752522309E+03  0.35752522309E+03  0.00000000000E+00 0.  1.
         21   -1    0    0  502  503 -0.00000000000E+00 -0.00000000000E+00 -0.38711738767E+02  0.38711738767E+02  0.00000000000E+00 0.  1.
         25    2    1    2    0    0 -0.12031128381E+02 -0.95878041915E+01  0.34421855923E+03  0.36653693038E+03  0.12500492299E+03 0.  0.
          5    1    3    3  501    0 -0.11515933387E+02 -0.58063273965E+02  0.89893695430E+02  0.10763292704E+03  0.10000000000E+00 0.  1.
         -5    1    3    3    0  501 -0.51519499400E+00  0.48475469774E+02  0.25432486380E+03  0.25890400334E+03  0.10000000000E+00 0.  1.
         21    1    1    2  504  503  0.12031128381E+02  0.95878041915E+01 -0.25405074904E+02  0.29700031485E+02  0.00000000000E+00 0.  1.
<mgrwt>
<rscale>  1 0.12594802E+03</rscale>
<asrwt>0</asrwt>
<pdfrwt beam="1">  1       21 0.55003878E-01 0.12594802E+03</pdfrwt>
<pdfrwt beam="2">  1       21 0.59556524E-02 0.12594802E+03</pdfrwt>
<totfact> 0.62715188E+05</totfact>
</mgrwt>
</event>
<event>
 6    1  0.4271609E-002  0.1416515E+03  0.7546771E-02  0.1211124E+00
         21   -1    0    0  503  502  0.00000000000E+00  0.00000000000E+00  0.30465646498E+02  0.30465646498E+02  0.00000000000E+00 0. -1.
         21   -1    0    0  504  503 -0.00000000000E+00 -0.00000000000E+00 -0.40072572493E+03  0.40072572493E+03  0.00000000000E+00 0. -1.
         25    2    1    2    0    0 -0.52801476051E+02 -0.40637050236E+02 -0.17660363530E+03  0.22639346204E+03  0.12500315966E+03 0.  0.
          5    1    3    3  501    0  0.37209322138E+02 -0.69511471242E+01 -0.20423151097E+02  0.43011245053E+02  0.10000000000E+00 0. -1.
         -5    1    3    3    0  501 -0.90010798189E+02 -0.33685903112E+02 -0.15618048420E+03  0.18338221698E+03  0.10000000000E+00 0. -1.
         21    1    1    2  504  502  0.52801476051E+02  0.40637050236E+02 -0.19365644313E+03  0.20479790939E+03  0.00000000000E+00 0. -1.
<mgrwt>
<rscale>  1 0.14165153E+03</rscale>
<asrwt>0</asrwt>
<pdfrwt beam="1">  1       21 0.46870231E-02 0.14165153E+03</pdfrwt>
<pdfrwt beam="2">  1       21 0.61650104E-01 0.14165153E+03</pdfrwt>
<totfact> 0.73731612E+05</totfact>
</mgrwt>
</event>
<event>
 6    1  0.4271609E-002  0.1505846E+03  0.7546771E-02  0.1199757E+00
         21   -1    0    0  503  502  0.00000000000E+00  0.00000000000E+00  0.13134153658E+03  0.13134153658E+03  0.00000000000E+00 0. -1.
         21   -1    0    0  504  503 -0.00000000000E+00 -0.00000000000E+00 -0.11296349938E+03  0.11296349938E+03  0.00000000000E+00 0. -1.
         25    2    1    2    0    0 -0.35831800589E+02 -0.75931343991E+02  0.43365547271E+02  0.15670445039E+03  0.12500490850E+03 0.  0.
          5    1    3    3  501    0 -0.33099937904E+02  0.23988525302E+02 -0.11783160832E+02  0.42543014875E+02  0.10000000000E+00 0. -1.
         -5    1    3    3    0  501 -0.27318626851E+01 -0.99919869294E+02  0.55148708103E+02  0.11416143551E+03  0.10000000000E+00 0. -1.
         21    1    1    2  504  502  0.35831800589E+02  0.75931343991E+02 -0.24987510067E+02  0.87600585576E+02  0.00000000000E+00 0. -1.
<mgrwt>
<rscale>  1 0.15058457E+03</rscale>
<asrwt>0</asrwt>
<pdfrwt beam="1">  1       21 0.20206390E-01 0.15058457E+03</pdfrwt>
<pdfrwt beam="2">  1       21 0.17379000E-01 0.15058457E+03</pdfrwt>
<totfact> 0.68122655E+05</totfact>
</mgrwt>
</event>
<event>
 6    1  0.4271609E-002  0.1260865E+03  0.7546771E-02  0.1233381E+00
         21   -1    0    0  504  502  0.00000000000E+00  0.00000000000E+00  0.55587907205E+02  0.55587907205E+02  0.00000000000E+00 0.  1.
         21   -1    0    0  502  503 -0.00000000000E+00 -0.00000000000E+00 -0.10608715235E+03  0.10608715235E+03  0.00000000000E+00 0.  1.
         25    2    1    2    0    0 -0.73170770627E+01 -0.14780482885E+02 -0.20922195267E+02  0.12781056235E+03  0.12500319717E+03 0.  0.
          5    1    3    3  501    0 -0.12731542501E+02 -0.69018560851E+02 -0.23387816969E+01  0.70222032270E+02  0.10000000000E+00 0.  1.
         -5    1    3    3    0  501  0.54144654384E+01  0.54238077966E+02 -0.18583413570E+02  0.57588530085E+02  0.10000000000E+00 0.  1.
         21    1    1    2  504  503  0.73170770627E+01  0.14780482885E+02 -0.29577049874E+02  0.33864497196E+02  0.00000000000E+00 0. -1.
<mgrwt>
<rscale>  1 0.12608648E+03</rscale>
<asrwt>0</asrwt>
<pdfrwt beam="1">  1       21 0.85519858E-02 0.12608648E+03</pdfrwt>
<pdfrwt beam="2">  1       21 0.16321100E-01 0.12608648E+03</pdfrwt>
<totfact> 0.35461449E+06</totfact>
</mgrwt>
</event>
<event>
 6    1  0.4271609E-002  0.1268214E+03  0.7546771E-02  0.1232250E+00
         21   -1    0    0  504  502  0.00000000000E+00  0.00000000000E+00  0.75520357257E+01  0.75520357257E+01  0.00000000000E+00 0. -1.
         21   -1    0    0  502  503 -0.00000000000E+00 -0.00000000000E+00 -0.84296798084E+03  0.84296798084E+03  0.00000000000E+00 0. -1.
         25    2    1    2    0    0 -0.20920849882E+02 -0.45922637514E+01 -0.55581996150E+03  0.57010481566E+03  0.12499960156E+03 0.  0.
          5    1    3    3  501    0 -0.62445483891E+02  0.23491666481E+02 -0.42125327797E+03  0.42650396370E+03  0.10000000000E+00 0. -1.
         -5    1    3    3    0  501  0.41524634008E+02 -0.28083930232E+02 -0.13456668353E+03  0.14360085196E+03  0.10000000000E+00 0. -1.
         21    1    1    2  504  503  0.20920849882E+02  0.45922637514E+01 -0.27959598361E+03  0.28041520091E+03  0.00000000000E+00 0. -1.
<mgrwt>
<rscale>  1 0.12682141E+03</rscale>
<asrwt>0</asrwt>
<pdfrwt beam="1">  1       21 0.11618508E-02 0.12682141E+03</pdfrwt>
<pdfrwt beam="2">  1       21 0.12968747E+00 0.12682141E+03</pdfrwt>
<totfact> 0.12931405E+06</totfact>
</mgrwt>
</event>
<event>
 6    1  0.4271609E-002  0.1286659E+03  0.7546771E-02  0.1229449E+00
         21   -1    0    0  504  502  0.00000000000E+00  0.00000000000E+00  0.74160385768E+02  0.74160385768E+02  0.00000000000E+00 0. -1.
         21   -1    0    0  502  503 -0.00000000000E+00 -0.00000000000E+00 -0.32491347278E+03  0.32491347278E+03  0.00000000000E+00 0. -1.
         25    2    1    2    0    0 -0.25430617092E+02 -0.16808347833E+02  0.16828260334E+02  0.12976174540E+03  0.12500273349E+03 0.  0.
          5    1    3    3  501    0  0.25411227685E+02 -0.57392455095E+02  0.83961929829E+00  0.62772122434E+02  0.10000000000E+00 0. -1.
         -5    1    3    3    0  501 -0.50841844777E+02  0.40584107262E+02  0.15988641035E+02  0.66989622964E+02  0.10000000000E+00 0. -1.
         21    1    1    2  504  503  0.25430617092E+02  0.16808347833E+02 -0.26758134734E+03  0.26931211315E+03  0.00000000000E+00 0. -1.
<mgrwt>
<rscale>  1 0.12866592E+03</rscale>
<asrwt>0</asrwt>
<pdfrwt beam="1">  1       21 0.11409290E-01 0.12866592E+03</pdfrwt>
<pdfrwt beam="2">  1       21 0.49986687E-01 0.12866592E+03</pdfrwt>
<totfact> 0.24870708E+05</totfact>
</mgrwt>
</event>
<event>
 6    1  0.4271609E-002  0.1260318E+03  0.7546771E-02  0.1233465E+00
         21   -1    0    0  504  502  0.00000000000E+00  0.00000000000E+00  0.13585429106E+03  0.13585429106E+03  0.00000000000E+00 0. -1.
         21   -1    0    0  502  503 -0.00000000000E+00 -0.00000000000E+00 -0.94769071553E+02  0.94769071553E+02  0.00000000000E+00 0. -1.
         25    2    1    2    0    0 -0.16138836529E+02 -0.17229649174E-01  0.10541152382E+03  0.16430341261E+03  0.12499423867E+03 0.  0.
          5    1    3    3  501    0  0.17595853380E+02  0.16877731479E+02 -0.21125771404E+02  0.32261123562E+02  0.10000000000E+00 0.  1.
         -5    1    3    3    0  501 -0.33734689909E+02 -0.16894961128E+02  0.12653729522E+03  0.13204228905E+03  0.10000000000E+00 0.  1.
         21    1    1    2  504  503  0.16138836529E+02  0.17229649174E-01 -0.64326304313E+02  0.66319950000E+02  0.00000000000E+00 0. -1.
<mgrwt>
<rscale>  1 0.12603183E+03</rscale>
<asrwt>0</asrwt>
<pdfrwt beam="1">  1       21 0.20900660E-01 0.12603183E+03</pdfrwt>
<pdfrwt beam="2">  1       21 0.14579857E-01 0.12603183E+03</pdfrwt>
<totfact> 0.87988312E+05</totfact>
</mgrwt>
</event>
<event>
 6    1  0.4271609E-002  0.1425672E+03  0.7546771E-02  0.1209916E+00
         21   -1    0    0  504  502  0.00000000000E+00  0.00000000000E+00  0.19327417347E+04  0.19327417347E+04  0.00000000000E+00 0. -1.
         21   -1    0    0  502  503 -0.00000000000E+00 -0.00000000000E+00 -0.87817260992E+01  0.87817260992E+01  0.00000000000E+00 0. -1.
         25    2    1    2    0    0  0.52039269297E+02  0.44635339911E+02  0.17288518813E+04  0.17347202198E+04  0.12500005862E+03 0.  0.
          5    1    3    3  501    0  0.79265772729E+02  0.31154686436E+02  0.16027063133E+04  0.16049676675E+04  0.10000000000E+00 0. -1.
         -5    1    3    3    0  501 -0.27226503431E+02  0.13480653475E+02  0.12614556799E+03  0.12975255231E+03  0.10000000000E+00 0. -1.
         21    1    1    2  504  503 -0.52039269297E+02 -0.44635339911E+02  0.19510812733E+03  0.20680324095E+03  0.00000000000E+00 0. -1.
<mgrwt>
<rscale>  1 0.14256723E+03</rscale>
<asrwt>0</asrwt>
<pdfrwt beam="1">  1       21 0.29734454E+00 0.14256723E+03</pdfrwt>
<pdfrwt beam="2">  1       21 0.13510363E-02 0.14256723E+03</pdfrwt>
<totfact> 0.85895892E+04</totfact>
</mgrwt>
</event>
<event>
 6    1  0.4271609E-002  0.1309723E+03  0.7546771E-02  0.1226020E+00
         21   -1    0    0  503  502  0.00000000000E+00  0.00000000000E+00  0.29632210948E+03  0.29632210948E+03  0.00000000000E+00 0.  1.
         21   -1    0    0  504  503 -0.00000000000E+00 -0.00000000000E+00 -0.18723346750E+03  0.18723346750E+03  0.00000000000E+00 0.  1.
         25    2    1    2    0    0  0.22685101773E+02  0.31848362956E+02  0.27952708030E+03  0.30868936149E+03  0.12499920483E+03 0.  0.
          5    1    3    3  501    0 -0.74744651106E+01 -0.31763445706E+02  0.19930103811E+03  0.20195469270E+03  0.10000000000E+00 0.  1.
         -5    1    3    3    0  501  0.30159566883E+02  0.63611808662E+02  0.80226042194E+02  0.10673466879E+03  0.10000000000E+00 0.  1.
         21    1    1    2  504  502 -0.22685101773E+02 -0.31848362956E+02 -0.17043843831E+03  0.17486621549E+03  0.00000000000E+00 0.  1.
<mgrwt>
<rscale>  1 0.13097226E+03</rscale>
<asrwt>0</asrwt>
<pdfrwt beam="1">  1       21 0.45588017E-01 0.13097226E+03</pdfrwt>
<pdfrwt beam="2">  1       21 0.28805149E-01 0.13097226E+03</pdfrwt>
<totfact> 0.54819901E+04</totfact>
</mgrwt>
</event>
<event>
 6    1  0.4271609E-002  0.1265221E+03  0.7546771E-02  0.1232710E+00
         21   -1    0    0  503  502  0.00000000000E+00  0.00000000000E+00  0.79829756246E+02  0.79829756246E+02  0.00000000000E+00 0. -1.
         21   -1    0    0  504  503 -0.00000000000E+00 -0.00000000000E+00 -0.10235579047E+03  0.10235579047E+03  0.00000000000E+00 0. -1.
         25    2    1    2    0    0 -0.15715336328E+02  0.11626846641E+02  0.26621870284E+02  0.12929252377E+03  0.12500270944E+03 0.  0.
          5    1    3    3  501    0 -0.61173746575E+02  0.30590958314E+02 -0.83218775204E+01  0.68900636036E+02  0.10000000000E+00 0. -1.
         -5    1    3    3    0  501  0.45458410247E+02 -0.18964111673E+02  0.34943747804E+02  0.60391887736E+02  0.10000000000E+00 0. -1.
         21    1    1    2  504  502  0.15715336328E+02 -0.11626846641E+02 -0.49147904507E+02  0.52893022944E+02  0.00000000000E+00 0. -1.
<mgrwt>
<rscale>  1 0.12652206E+03</rscale>
<asrwt>0</asrwt>
<pdfrwt beam="1">  1       21 0.12281501E-01 0.12652206E+03</pdfrwt>
<pdfrwt beam="2">  1       21 0.15747045E-01 0.12652206E+03</pdfrwt>
<totfact> 0.20075778E+06</totfact>
</mgrwt>
</event>
<event>
 6    1  0.4271609E-002  0.1270822E+03  0.7546771E-02  0.1231851E+00
         21   -1    0    0  504  502  0.00000000000E+00  0.00000000000E+00  0.53574726810E+02  0.53574726810E+02  0.00000000000E+00 0.  1.
         21   -1    0    0  502  503 -0.00000000000E+00 -0.00000000000E+00 -0.10793587204E+03  0.10793587204E+03  0.00000000000E+00 0.  1.
         25    2    1    2    0    0  0.68974451269E+01 -0.21868376691E+02 -0.35853194416E+02  0.13204290651E+03  0.12499630779E+03 0.  0.
          5    1    3    3  501    0 -0.50175120022E+02 -0.36735227336E+02  0.15507267200E+01  0.62204777550E+02  0.10000000000E+00 0.  1.
         -5    1    3    3    0  501  0.57072565149E+02  0.14866850645E+02 -0.37403921136E+02  0.69838128964E+02  0.10000000000E+00 0.  1.
         21    1    1    2  504  503 -0.68974451269E+01  0.21868376691E+02 -0.18507950817E+02  0.29467692339E+02  0.00000000000E+00 0.  1.
<mgrwt>
<rscale>  1 0.12708217E+03</rscale>
<asrwt>0</asrwt>
<pdfrwt beam="1">  1       21 0.82422657E-02 0.12708217E+03</pdfrwt>
<pdfrwt beam="2">  1       21 0.16605519E-01 0.12708217E+03</pdfrwt>
<totfact> 0.36641407E+06</totfact>
</mgrwt>
</event>
<event>
 6    1  0.4271609E-002  0.1280429E+03  0.7546771E-02  0.1230389E+00
         21   -1    0    0  503  502  0.00000000000E+00  0.00000000000E+00  0.41931819318E+03  0.41931819318E+03  0.00000000000E+00 0. -1.
         21   -1    0    0  504  503 -0.00000000000E+00 -0.00000000000E+00 -0.50931125176E+02  0.50931125176E+02  0.00000000000E+00 0. -1.
         25    2    1    2    0    0  0.17419532796E+02 -0.21663727817E+02  0.40472571400E+03  0.42449722093E+03  0.12498891863E+03 0.  0.
          5    1    3    3  501    0  0.44427031767E+02  0.40364915495E+02  0.20630270614E+03  0.21485786957E+03  0.10000000000E+00 0. -1.
         -5    1    3    3    0  501 -0.27007498971E+02 -0.62028643312E+02  0.19842300786E+03  0.20963935137E+03  0.10000000000E+00 0. -1.
         21    1    1    2  504  502 -0.17419532796E+02  0.21663727817E+02 -0.36338645998E+02  0.45752097424E+02  0.00000000000E+00 0. -1.
<mgrwt>
<rscale>  1 0.12804291E+03</rscale>
<asrwt>0</asrwt>
<pdfrwt beam="1">  1       21 0.64510489E-01 0.12804291E+03</pdfrwt>
<pdfrwt beam="2">  1       21 0.78355580E-02 0.12804291E+03</pdfrwt>
<totfact> 0.27989898E+05</totfact>
</mgrwt>
</event>
<event>
 6    1  0.4271609E-002  0.1314430E+03  0.7546771E-02  0.1225330E+00
         21   -1    0    0  503  502  0.00000000000E+00  0.00000000000E+00  0.72769083083E+01  0.72769083083E+01  0.00000000000E+00 0. -1.
         21   -1    0    0  504  503 -0.00000000000E+00 -0.00000000000E+00 -0.17774964406E+04  0.17774964406E+04  0.00000000000E+00 0. -1.
         25    2    1    2    0    0  0.40116609774E+02 -0.64814692906E+01 -0.61735725288E+03  0.63119509534E+03  0.12500367542E+03 0.  0.
          5    1    3    3  501    0  0.59034791015E+02  0.42732383540E+02 -0.26197282431E+03  0.27192082272E+03  0.10000000000E+00 0.  1.
         -5    1    3    3    0  501 -0.18918181240E+02 -0.49213852831E+02 -0.35538442857E+03  0.35927427262E+03  0.10000000000E+00 0.  1.
         21    1    1    2  504  502 -0.40116609774E+02  0.64814692906E+01 -0.11528622794E+04  0.11535782536E+04  0.00000000000E+00 0. -1.
<mgrwt>
<rscale>  1 0.13144303E+03</rscale>
<asrwt>0</asrwt>
<pdfrwt beam="1">  1       21 0.11195245E-02 0.13144303E+03</pdfrwt>
<pdfrwt beam="2">  1       21 0.27346096E+00 0.13144303E+03</pdfrwt>
<totfact> 0.15956171E+05</totfact>
</mgrwt>
</event>
<event>
 6    1  0.4271609E-002  0.1514873E+03  0.7546771E-02  0.1198657E+00
         21   -1    0    0  504  502  0.00000000000E+00  0.00000000000E+00  0.61261550151E+03  0.61261550151E+03  0.00000000000E+00 0. -1.
         21   -1    0    0  502  503 -0.00000000000E+00 -0.00000000000E+00 -0.23144331669E+02  0.23144331669E+02  0.00000000000E+00 0. -1.
         25    2    1    2    0    0 -0.74535486269E+02 -0.42046993683E+02  0.40503416348E+03  0.43243620517E+03  0.12499963826E+03 0.  0.
          5    1    3    3  501    0 -0.99187376927E+02 -0.12528793056E+01  0.21943076373E+03  0.24081024795E+03  0.10000000000E+00 0.  1.
         -5    1    3    3    0  501  0.24651890658E+02 -0.40794114377E+02  0.18560339975E+03  0.19162595722E+03  0.10000000000E+00 0.  1.
         21    1    1    2  504  503  0.74535486269E+02  0.42046993683E+02  0.18443700636E+03  0.20332362800E+03  0.00000000000E+00 0. -1.
<mgrwt>
<rscale>  1 0.15148729E+03</rscale>
<asrwt>0</asrwt>
<pdfrwt beam="1">  1       21 0.94248526E-01 0.15148729E+03</pdfrwt>
<pdfrwt beam="2">  1       21 0.35606669E-02 0.15148729E+03</pdfrwt>
<totfact> 0.45314165E+05</totfact>
</mgrwt>
</event>
<event>
 6    1  0.4271609E-002  0.1493239E+03  0.7546771E-02  0.1201306E+00
         21   -1    0    0  503  502  0.00000000000E+00  0.00000000000E+00  0.10521409768E+02  0.10521409768E+02  0.00000000000E+00 0.  1.
         21   -1    0    0  504  503 -0.00000000000E+00 -0.00000000000E+00 -0.12756238397E+04  0.12756238397E+04  0.00000000000E+00 0.  1.
         25    2    1    2    0    0 -0.39702565421E+02  0.71391238335E+02 -0.86404017820E+03  0.87684837387E+03  0.12499855438E+03 0.  0.
          5    1    3    3  501    0 -0.83241639513E+02  0.28880175527E+02 -0.48062741513E+03  0.48863683576E+03  0.10000000000E+00 0. -1.
         -5    1    3    3    0  501  0.43539074092E+02  0.42511062808E+02 -0.38341276307E+03  0.38821153811E+03  0.10000000000E+00 0. -1.
         21    1    1    2  504  502  0.39702565421E+02 -0.71391238335E+02 -0.40106225173E+03  0.40929687560E+03  0.00000000000E+00 0.  1.
<mgrwt>
<rscale>  1 0.14932395E+03</rscale>
<asrwt>0</asrwt>
<pdfrwt beam="1">  1       21 0.16186787E-02 0.14932395E+03</pdfrwt>
<pdfrwt beam="2">  1       21 0.19624979E+00 0.14932395E+03</pdfrwt>
<totfact> 0.25133455E+05</totfact>
</mgrwt>
</event>
<event>
 6    1  0.4271609E-002  0.1570068E+03  0.7546771E-02  0.1192118E+00
         21   -1    0    0  504  502  0.00000000000E+00  0.00000000000E+00  0.35736354050E+02  0.35736354050E+02  0.00000000000E+00 0. -1.
         21   -1    0    0  502  503 -0.00000000000E+00 -0.00000000000E+00 -0.55852094439E+03  0.55852094439E+03  0.00000000000E+00 0. -1.
         25    2    1    2    0    0 -0.93568768845E+02  0.16489040396E+02 -0.18146028728E+03  0.23995617959E+03  0.12499651719E+03 0.  0.
          5    1    3    3  501    0 -0.83640108419E+02  0.57688684003E+02 -0.77809953543E+02  0.12797675910E+03  0.10000000000E+00 0.  1.
         -5    1    3    3    0  501 -0.99286604259E+01 -0.41199643607E+02 -0.10365033374E+03  0.11197942050E+03  0.10000000000E+00 0.  1.
         21    1    1    2  504  503  0.93568768845E+02 -0.16489040396E+02 -0.34132430306E+03  0.35430111885E+03  0.00000000000E+00 0. -1.
<mgrwt>
<rscale>  1 0.15700679E+03</rscale>
<asrwt>0</asrwt>
<pdfrwt beam="1">  1       21 0.54979010E-02 0.15700679E+03</pdfrwt>
<pdfrwt beam="2">  1       21 0.85926293E-01 0.15700679E+03</pdfrwt>
<totfact> 0.27025130E+05</totfact>
</mgrwt>
</event>
<event>
 6    1  0.4271609E-002  0.1997146E+03  0.7546771E-02  0.1149980E+00
         21   -1    0    0  504  502  0.00000000000E+00  0.00000000000E+00  0.21110582797E+03  0.21110582797E+03  0.00000000000E+00 0. -1.
         21   -1    0    0  502  503 -0.00000000000E+00 -0.00000000000E+00 -0.44499559235E+03  0.44499559235E+03  0.00000000000E+00 0.  1.
         25    2    1    2    0    0 -0.14934423140E+03 -0.44184393981E+02  0.14476833974E+03  0.24666532038E+03  0.12501979028E+03 0.  0.
          5    1    3    3  501    0  0.19695944159E+02  0.98649045115E+01  0.19699916633E+02  0.29552381845E+02  0.10000000000E+00 0.  1.
         -5    1    3    3    0  501 -0.16904017556E+03 -0.54049298492E+02  0.12506842310E+03  0.21711293853E+03  0.10000000000E+00 0.  1.
         21    1    1    2  504  503  0.14934423140E+03  0.44184393981E+02 -0.37865810411E+03  0.40943609994E+03  0.00000000000E+00 0.  1.
<mgrwt>
<rscale>  1 0.19971457E+03</rscale>
<asrwt>0</asrwt>
<pdfrwt beam="1">  1       21 0.32477820E-01 0.19971457E+03</pdfrwt>
<pdfrwt beam="2">  1       21 0.68460860E-01 0.19971457E+03</pdfrwt>
<totfact> 0.17673268E+04</totfact>
</mgrwt>
</event>
<event>
 6    1  0.4271609E-002  0.1278572E+03  0.7546771E-02  0.1230670E+00
         21   -1    0    0  503  502  0.00000000000E+00  0.00000000000E+00  0.92338486817E+02  0.92338486817E+02  0.00000000000E+00 0. -1.
         21   -1    0    0  504  503 -0.00000000000E+00 -0.00000000000E+00 -0.81754940543E+02  0.81754940543E+02  0.00000000000E+00 0. -1.
         25    2    1    2    0    0  0.18153540352E+02 -0.19846874890E+02  0.40255834082E+02  0.13404478027E+03  0.12499608581E+03 0.  0.
          5    1    3    3  501    0  0.21973660678E+02 -0.20955250214E+02  0.84413356311E+02  0.89708355235E+02  0.10000000000E+00 0. -1.
         -5    1    3    3    0  501 -0.38201203266E+01  0.11083753249E+01 -0.44157522229E+02  0.44336425032E+02  0.10000000000E+00 0. -1.
         21    1    1    2  504  502 -0.18153540352E+02  0.19846874890E+02 -0.29672287808E+02  0.40048647093E+02  0.00000000000E+00 0. -1.
<mgrwt>
<rscale>  1 0.12785723E+03</rscale>
<asrwt>0</asrwt>
<pdfrwt beam="1">  1       21 0.14205921E-01 0.12785723E+03</pdfrwt>
<pdfrwt beam="2">  1       21 0.12577683E-01 0.12785723E+03</pdfrwt>
<totfact> 0.23175473E+06</totfact>
</mgrwt>
</event>
<event>
 6    1  0.4271609E-002  0.1286303E+03  0.7546771E-02  0.1229502E+00
         21   -1    0    0  504  502  0.00000000000E+00  0.00000000000E+00  0.30966596922E+03  0.30966596922E+03  0.00000000000E+00 0.  1.
         21   -1    0    0  502  503 -0.00000000000E+00 -0.00000000000E+00 -0.26558842047E+02  0.26558842047E+02  0.00000000000E+00 0.  1.
         25    2    1    2    0    0 -0.21749008979E+02 -0.21122844508E+02  0.27684226965E+03  0.30526609050E+03  0.12500619901E+03 0.  0.
          5    1    3    3  501    0  0.13798569123E+02 -0.31802812587E+02  0.26358067614E+03  0.26585071419E+03  0.10000000000E+00 0.  1.
         -5    1    3    3    0  501 -0.35547578102E+02  0.10679968078E+02  0.13261593504E+02  0.39415376306E+02  0.10000000000E+00 0.  1.
         21    1    1    2  504  503  0.21749008979E+02  0.21122844508E+02  0.62648575196E+01  0.30958720766E+02  0.00000000000E+00 0.  1.
<mgrwt>
<rscale>  1 0.12863026E+03</rscale>
<asrwt>0</asrwt>
<pdfrwt beam="1">  1       21 0.47640916E-01 0.12863026E+03</pdfrwt>
<pdfrwt beam="2">  1       21 0.40859759E-02 0.12863026E+03</pdfrwt>
<totfact> 0.15892213E+06</totfact>
</mgrwt>
</event>
<event>
 6    1  0.4271609E-002  0.1311455E+03  0.7546771E-02  0.1225766E+00
         21   -1    0    0  503  502  0.00000000000E+00  0.00000000000E+00  0.17201987765E+03  0.17201987765E+03  0.00000000000E+00 0.  1.
         21   -1    0    0  504  503 -0.00000000000E+00 -0.00000000000E+00 -0.16415580260E+03  0.16415580260E+03  0.00000000000E+00 0. -1.
         25    2    1    2    0    0 -0.30918741044E+02  0.24754031688E+02  0.14377972052E+03  0.19460663944E+03  0.12502161993E+03 0.  0.
          5    1    3    3  501    0  0.25259272437E+01 -0.38701458379E+02  0.59617032213E+01  0.39239458386E+02  0.10000000000E+00 0. -1.
         -5    1    3    3    0  501 -0.33444668287E+02  0.63455490067E+02  0.13781801730E+03  0.15536718106E+03  0.10000000000E+00 0. -1.
         21    1    1    2  504  502  0.30918741044E+02 -0.24754031688E+02 -0.13591564547E+03  0.14156904081E+03  0.00000000000E+00 0. -1.
<mgrwt>
<rscale>  1 0.13114548E+03</rscale>
<asrwt>0</asrwt>
<pdfrwt beam="1">  1       21 0.26464597E-01 0.13114548E+03</pdfrwt>
<pdfrwt beam="2">  1       21 0.25254739E-01 0.13114548E+03</pdfrwt>
<totfact> 0.20514995E+05</totfact>
</mgrwt>
</event>
<event>
 6    1  0.4271609E-002  0.1335931E+03  0.7546771E-02  0.1222219E+00
         21   -1    0    0  503  502  0.00000000000E+00  0.00000000000E+00  0.75037185236E+02  0.75037185236E+02  0.00000000000E+00 0.  1.
         21   -1    0    0  504  503 -0.00000000000E+00 -0.00000000000E+00 -0.15096442018E+03  0.15096442018E+03  0.00000000000E+00 0.  1.
         25    2    1    2    0    0  0.40453116877E+02  0.24198890525E+02  0.35007822738E+01  0.13363899996E+03  0.12500034346E+03 0.  0.
          5    1    3    3  501    0 -0.45163628983E+02  0.11257453418E+02 -0.40474812089E+01  0.46721255811E+02  0.10000000000E+00 0.  1.
         -5    1    3    3    0  501  0.85616745861E+02  0.12941437107E+02  0.75482634827E+01  0.86917744148E+02  0.10000000000E+00 0.  1.
         21    1    1    2  504  502 -0.40453116877E+02 -0.24198890525E+02 -0.79428017220E+02  0.92362605459E+02  0.00000000000E+00 0.  1.
<mgrwt>
<rscale>  1 0.13359314E+03</rscale>
<asrwt>0</asrwt>
<pdfrwt beam="1">  1       21 0.11544182E-01 0.13359314E+03</pdfrwt>
<pdfrwt beam="2">  1       21 0.23225295E-01 0.13359314E+03</pdfrwt>
<totfact> 0.10962537E+06</totfact>
</mgrwt>
</event>
<event>
 6    1  0.4271609E-002  0.1259878E+03  0.7546771E-02  0.1233534E+00
         21   -1    0    0  503  502  0.00000000000E+00  0.00000000000E+00  0.23452159650E+02  0.23452159650E+02  0.00000000000E+00 0.  1.
         21   -1    0    0  504  503 -0.00000000000E+00 -0.00000000000E+00 -0.22601685900E+03  0.22601685900E+03  0.00000000000E+00 0.  1.
         25    2    1    2    0    0 -0.14530057105E+02  0.60550822534E+01 -0.15723493661E+03  0.20148387542E+03  0.12500056073E+03 0.  0.
          5    1    3    3  501    0  0.20707313553E+02 -0.51954992633E+02 -0.52699386119E+02  0.76846271162E+02  0.10000000000E+00 0. -1.
         -5    1    3    3    0  501 -0.35237370658E+02  0.58010074887E+02 -0.10453555049E+03  0.12463760426E+03  0.10000000000E+00 0. -1.
         21    1    1    2  504  502  0.14530057105E+02 -0.60550822534E+01 -0.45329762742E+02  0.47985143230E+02  0.00000000000E+00 0.  1.
<mgrwt>
<rscale>  1 0.12598780E+03</rscale>
<asrwt>0</asrwt>
<pdfrwt beam="1">  1       21 0.36080245E-02 0.12598780E+03</pdfrwt>
<pdfrwt beam="2">  1       21 0.34771825E-01 0.12598780E+03</pdfrwt>
<totfact> 0.36681977E+06</totfact>
</mgrwt>
</event>
<event>
 6    1  0.4271609E-002  0.1298719E+03  0.7546771E-02  0.1227646E+00
         21   -1    0    0  504  502  0.00000000000E+00  0.00000000000E+00  0.52351024275E+03  0.52351024275E+03  0.00000000000E+00 0. -1.
         21   -1    0    0  502  503 -0.00000000000E+00 -0.00000000000E+00 -0.13577364022E+02  0.13577364022E+02  0.00000000000E+00 0. -1.
         25    2    1    2    0    0 -0.30259244603E+02 -0.18080100897E+02  0.44010369611E+03  0.45886595582E+03  0.12499676056E+03 0.  0.
          5    1    3    3  501    0  0.11388130186E+02  0.28304062230E+02  0.25966736578E+02  0.40063585166E+02  0.10000000000E+00 0. -1.
         -5    1    3    3    0  501 -0.41647374789E+02 -0.46384163127E+02  0.41413695953E+03  0.41880237066E+03  0.10000000000E+00 0. -1.
         21    1    1    2  504  503  0.30259244603E+02  0.18080100897E+02  0.69829182619E+02  0.78221650952E+02  0.00000000000E+00 0. -1.
<mgrwt>
<rscale>  1 0.12987187E+03</rscale>
<asrwt>0</asrwt>
<pdfrwt beam="1">  1       21 0.80540022E-01 0.12987187E+03</pdfrwt>
<pdfrwt beam="2">  1       21 0.20888256E-02 0.12987187E+03</pdfrwt>
<totfact> 0.15535862E+06</totfact>
</mgrwt>
</event>
<event>
 6    1  0.4271609E-002  0.1775447E+03  0.7546771E-02  0.1170201E+00
         21   -1    0    0  504  502  0.00000000000E+00  0.00000000000E+00  0.51587629444E+03  0.51587629444E+03  0.00000000000E+00 0. -1.
         21   -1    0    0  502  503 -0.00000000000E+00 -0.00000000000E+00 -0.84185869297E+02  0.84185869297E+02  0.00000000000E+00 0. -1.
         25    2    1    2    0    0  0.75174618575E+02 -0.10121701341E+03  0.43923079394E+03  0.47375711933E+03  0.12500404268E+03 0.  0.
          5    1    3    3  501    0  0.80963715517E+01  0.29214349327E+02  0.90342713022E+02  0.95293469006E+02  0.10000000000E+00 0. -1.
         -5    1    3    3    0  501  0.67078247023E+02 -0.13043136274E+03  0.34888808092E+03  0.37846365033E+03  0.10000000000E+00 0. -1.
         21    1    1    2  504  503 -0.75174618575E+02  0.10121701341E+03 -0.75403687989E+01  0.12630504441E+03  0.00000000000E+00 0. -1.
<mgrwt>
<rscale>  1 0.17754469E+03</rscale>
<asrwt>0</asrwt>
<pdfrwt beam="1">  1       21 0.79365582E-01 0.17754469E+03</pdfrwt>
<pdfrwt beam="2">  1       21 0.12951673E-01 0.17754469E+03</pdfrwt>
<totfact> 0.72133574E+04</totfact>
</mgrwt>
</event>
<event>
 6    1  0.4271609E-002  0.1397440E+03  0.7546771E-02  0.1213674E+00
         21   -1    0    0  504  502  0.00000000000E+00  0.00000000000E+00  0.59227049990E+01  0.59227049990E+01  0.00000000000E+00 0. -1.
         21   -1    0    0  502  503 -0.00000000000E+00 -0.00000000000E+00 -0.17839313300E+04  0.17839313300E+04  0.00000000000E+00 0. -1.
         25    2    1    2    0    0 -0.28529889058E+01 -0.62423172040E+02 -0.13666872300E+04  0.13738130732E+04  0.12499433328E+03 0.  0.
          5    1    3    3  501    0 -0.35662382961E+02 -0.71014335496E+02 -0.12436697651E+04  0.12462059765E+04  0.10000000000E+00 0.  1.
         -5    1    3    3    0  501  0.32809394055E+02  0.85911634559E+01 -0.12301746494E+03  0.12760709662E+03  0.10000000000E+00 0.  1.
         21    1    1    2  504  503  0.28529889058E+01  0.62423172040E+02 -0.41132139501E+03  0.41604096186E+03  0.00000000000E+00 0.  1.
<mgrwt>
<rscale>  1 0.13974396E+03</rscale>
<asrwt>0</asrwt>
<pdfrwt beam="1">  1       21 0.91118491E-03 0.13974396E+03</pdfrwt>
<pdfrwt beam="2">  1       21 0.27445112E+00 0.13974396E+03</pdfrwt>
<totfact> 0.21651336E+05</totfact>
</mgrwt>
</event>
<event>
 6    1  0.4271609E-002  0.2327891E+03  0.7546771E-02  0.1124692E+00
         21   -1    0    0  503  502  0.00000000000E+00  0.00000000000E+00  0.21861604540E+03  0.21861604540E+03  0.00000000000E+00 0.  1.
         21   -1    0    0  504  503 -0.00000000000E+00 -0.00000000000E+00 -0.11058981503E+04  0.11058981503E+04  0.00000000000E+00 0. -1.
         25    2    1    2    0    0 -0.19553910358E+03  0.18200569005E+02  0.14464438022E+03  0.27406711355E+03  0.12499593697E+03 0.  0.
          5    1    3    3  501    0 -0.32675834320E+02  0.16080601621E+02  0.98142714334E+02  0.10468189086E+03  0.10000000000E+00 0.  1.
         -5    1    3    3    0  501 -0.16286326926E+03  0.21199673839E+01  0.46501665882E+02  0.16938522269E+03  0.10000000000E+00 0.  1.
         21    1    1    2  504  502  0.19553910358E+03 -0.18200569005E+02 -0.10319264851E+04  0.10504470822E+04  0.00000000000E+00 0. -1.
<mgrwt>
<rscale>  1 0.23278914E+03</rscale>
<asrwt>0</asrwt>
<pdfrwt beam="1">  1       21 0.33633238E-01 0.23278914E+03</pdfrwt>
<pdfrwt beam="2">  1       21 0.17013818E+00 0.23278914E+03</pdfrwt>
<totfact> 0.17460900E+03</totfact>
</mgrwt>
</event>
<event>
 6    1  0.4271609E-002  0.1268243E+03  0.7546771E-02  0.1232245E+00
         21   -1    0    0  503  502  0.00000000000E+00  0.00000000000E+00  0.65376131378E+03  0.65376131378E+03  0.00000000000E+00 0. -1.
         21   -1    0    0  504  503 -0.00000000000E+00 -0.00000000000E+00 -0.29162864861E+02  0.29162864861E+02  0.00000000000E+00 0. -1.
         25    2    1    2    0    0 -0.80088336925E+01  0.19773328413E+02  0.64260910705E+03  0.65500447699E+03  0.12501709674E+03 0.  0.
          5    1    3    3  501    0 -0.64737261138E+01  0.53674923501E+02  0.58953025484E+03  0.59200408606E+03  0.10000000000E+00 0.  1.
         -5    1    3    3    0  501 -0.15351075787E+01 -0.33901595088E+02  0.53078852209E+02  0.63000390924E+02  0.10000000000E+00 0.  1.
         21    1    1    2  504  502  0.80088336925E+01 -0.19773328413E+02 -0.18010658136E+02  0.27919701648E+02  0.00000000000E+00 0. -1.
<mgrwt>
<rscale>  1 0.12682429E+03</rscale>
<asrwt>0</asrwt>
<pdfrwt beam="1">  1       21 0.10057865E+00 0.12682429E+03</pdfrwt>
<pdfrwt beam="2">  1       21 0.44865951E-02 0.12682429E+03</pdfrwt>
<totfact> 0.26645894E+05</totfact>
</mgrwt>
</event>
<event>
 6    1  0.4271609E-002  0.1275381E+03  0.7546771E-02  0.1231155E+00
         21   -1    0    0  504  502  0.00000000000E+00  0.00000000000E+00  0.13167107320E+03  0.13167107320E+03  0.00000000000E+00 0. -1.
         21   -1    0    0  502  503 -0.00000000000E+00 -0.00000000000E+00 -0.54208844201E+02  0.54208844201E+02  0.00000000000E+00 0. -1.
         25    2    1    2    0    0  0.23475697986E+02 -0.94686526863E+01  0.91471052177E+02  0.15694877663E+03  0.12500080527E+03 0.  0.
          5    1    3    3  501    0 -0.15511143468E+02  0.44003289283E+02  0.75693861753E+02  0.88918253168E+02  0.10000000000E+00 0.  1.
         -5    1    3    3    0  501  0.38986841453E+02 -0.53471941970E+02  0.15777190424E+02  0.68030523460E+02  0.10000000000E+00 0.  1.
         21    1    1    2  504  503 -0.23475697986E+02  0.94686526863E+01 -0.14008823178E+02  0.28931140773E+02  0.00000000000E+00 0. -1.
<mgrwt>
<rscale>  1 0.12753809E+03</rscale>
<asrwt>0</asrwt>
<pdfrwt beam="1">  1       21 0.20257088E-01 0.12753809E+03</pdfrwt>
<pdfrwt beam="2">  1       21 0.83398222E-02 0.12753809E+03</pdfrwt>
<totfact> 0.24942587E+06</totfact>
</mgrwt>
</event>
<event>
 6    1  0.4271609E-002  0.1288650E+03  0.7546771E-02  0.1229150E+00
         21   -1    0    0  503  502  0.00000000000E+00  0.00000000000E+00  0.60283974364E+03  0.60283974364E+03  0.00000000000E+00 0. -1.
         21   -1    0    0  504  503 -0.00000000000E+00 -0.00000000000E+00 -0.14831875085E+02  0.14831875085E+02  0.00000000000E+00 0. -1.
         25    2    1    2    0    0 -0.11190598763E+02  0.29255540050E+02  0.56308719834E+03  0.57764467869E+03  0.12500026305E+03 0.  0.
          5    1    3    3  501    0  0.42842378400E+02  0.54385054496E+02  0.29532755393E+03  0.30333410235E+03  0.10000000000E+00 0.  1.
         -5    1    3    3    0  501 -0.54032977163E+02 -0.25129514445E+02  0.26775964441E+03  0.27431057634E+03  0.10000000000E+00 0.  1.
         21    1    1    2  504  502  0.11190598763E+02 -0.29255540050E+02  0.24920670209E+02  0.40026940028E+02  0.00000000000E+00 0. -1.
<mgrwt>
<rscale>  1 0.12886498E+03</rscale>
<asrwt>0</asrwt>
<pdfrwt beam="1">  1       21 0.92744557E-01 0.12886498E+03</pdfrwt>
<pdfrwt beam="2">  1       21 0.22818274E-02 0.12886498E+03</pdfrwt>
<totfact> 0.97760907E+05</totfact>
</mgrwt>
</event>
<event>
 6    1  0.4271609E-002  0.1341699E+03  0.7546771E-02  0.1221396E+00
         21   -1    0    0  503  502  0.00000000000E+00  0.00000000000E+00  0.71942044223E+02  0.71942044223E+02  0.00000000000E+00 0.  1.
         21   -1    0    0  504  503 -0.00000000000E+00 -0.00000000000E+00 -0.29908153544E+03  0.29908153544E+03  0.00000000000E+00 0.  1.
         25    2    1    2    0    0 -0.48535037136E+02 -0.44804955823E+01  0.45654046874E+01  0.13424756006E+03  0.12500335913E+03 0.  0.
          5    1    3    3  501    0 -0.74376207217E+02  0.36432263234E+02 -0.10695721513E+02  0.83507714991E+02  0.10000000000E+00 0.  1.
         -5    1    3    3    0  501  0.25841170082E+02 -0.40912758817E+02  0.15261126201E+02  0.50739845074E+02  0.10000000000E+00 0.  1.
         21    1    1    2  504  502  0.48535037136E+02  0.44804955823E+01 -0.23170489590E+03  0.23677601959E+03  0.00000000000E+00 0.  1.
<mgrwt>
<rscale>  1 0.13416991E+03</rscale>
<asrwt>0</asrwt>
<pdfrwt beam="1">  1       21 0.11068007E-01 0.13416991E+03</pdfrwt>
<pdfrwt beam="2">  1       21 0.46012544E-01 0.13416991E+03</pdfrwt>
<totfact> 0.31066484E+05</totfact>
</mgrwt>
</event>
<event>
 6    1  0.4271609E-002  0.1289675E+03  0.7546771E-02  0.1228996E+00
         21   -1    0    0  503  502  0.00000000000E+00  0.00000000000E+00  0.44879599897E+02  0.44879599897E+02  0.00000000000E+00 0. -1.
         21   -1    0    0  504  503 -0.00000000000E+00 -0.00000000000E+00 -0.37154438921E+03  0.37154438921E+03  0.00000000000E+00 0. -1.
         25    2    1    2    0    0 -0.73478169412E+00 -0.31748519520E+02 -0.50600176075E+02  0.13853879865E+03  0.12499645001E+03 0.  0.
          5    1    3    3  501    0 -0.41016678145E+02 -0.52018737925E+02 -0.63367095509E+02  0.91671782870E+02  0.10000000000E+00 0.  1.
         -5    1    3    3    0  501  0.40281896451E+02  0.20270218405E+02  0.12766919434E+02  0.46867015776E+02  0.10000000000E+00 0.  1.
         21    1    1    2  504  502  0.73478169412E+00  0.31748519520E+02 -0.27606461323E+03  0.27788519046E+03  0.00000000000E+00 0. -1.
<mgrwt>
<rscale>  1 0.12896752E+03</rscale>
<asrwt>0</asrwt>
<pdfrwt beam="1">  1       21 0.69045539E-02 0.12896752E+03</pdfrwt>
<pdfrwt beam="2">  1       21 0.57160675E-01 0.12896752E+03</pdfrwt>
<totfact> 0.44974050E+05</totfact>
</mgrwt>
</event>
<event>
 6    1  0.4271609E-002  0.1261878E+03  0.7546771E-02  0.1233225E+00
         21   -1    0    0  503  502  0.00000000000E+00  0.00000000000E+00  0.12167364962E+04  0.12167364962E+04  0.00000000000E+00 0. -1.
         21   -1    0    0  504  503 -0.00000000000E+00 -0.00000000000E+00 -0.44391967661E+01  0.44391967661E+01  0.00000000000E+00 0. -1.
         25    2    1    2    0    0 -0.10744891558E+02  0.13696089188E+02  0.95667715282E+03  0.96496348617E+03  0.12498127608E+03 0.  0.
          5    1    3    3  501    0  0.16321267297E+02 -0.51178041848E+02  0.50503170920E+03  0.50788051059E+03  0.10000000000E+00 0. -1.
         -5    1    3    3    0  501 -0.27066158854E+02  0.64874131036E+02  0.45164544361E+03  0.45708297558E+03  0.10000000000E+00 0. -1.
         21    1    1    2  504  502  0.10744891558E+02 -0.13696089188E+02  0.25562014664E+03  0.25621220682E+03  0.00000000000E+00 0. -1.
<mgrwt>
<rscale>  1 0.12618778E+03</rscale>
<asrwt>0</asrwt>
<pdfrwt beam="1">  1       21 0.18718996E+00 0.12618778E+03</pdfrwt>
<pdfrwt beam="2">  1       21 0.68295432E-03 0.12618778E+03</pdfrwt>
<totfact> 0.11343889E+06</totfact>
</mgrwt>
</event>
<event>
 6    1  0.4271609E-002  0.1267595E+03  0.7546771E-02  0.1232345E+00
         21   -1    0    0  503  502  0.00000000000E+00  0.00000000000E+00  0.12990482421E+03  0.12990482421E+03  0.00000000000E+00 0.  1.
         21   -1    0    0  504  503 -0.00000000000E+00 -0.00000000000E+00 -0.11469527254E+03  0.11469527254E+03  0.00000000000E+00 0.  1.
         25    2    1    2    0    0  0.20860046502E+02 -0.26268284885E+01  0.97339597318E+02  0.15982164332E+03  0.12500367474E+03 0.  0.
          5    1    3    3  501    0 -0.52181936126E+02  0.57303408820E+01  0.32113378554E+02  0.61539177331E+02  0.10000000000E+00 0. -1.
         -5    1    3    3    0  501  0.73041982628E+02 -0.83571693705E+01  0.65226218764E+02  0.98282465986E+02  0.10000000000E+00 0. -1.
         21    1    1    2  504  502 -0.20860046502E+02  0.26268284885E+01 -0.82130045653E+02  0.84778453436E+02  0.00000000000E+00 0.  1.
<mgrwt>
<rscale>  1 0.12675946E+03</rscale>
<asrwt>0</asrwt>
<pdfrwt beam="1">  1       21 0.19985358E-01 0.12675946E+03</pdfrwt>
<pdfrwt beam="2">  1       21 0.17645426E-01 0.12675946E+03</pdfrwt>
<totfact> 0.67654049E+05</totfact>
</mgrwt>
</event>
<event>
 6    1  0.4271609E-002  0.1261976E+03  0.7546771E-02  0.1233209E+00
         21   -1    0    0  503  502  0.00000000000E+00  0.00000000000E+00  0.22893927002E+02  0.22893927002E+02  0.00000000000E+00 0.  1.
         21   -1    0    0  504  503 -0.00000000000E+00 -0.00000000000E+00 -0.22615869865E+03  0.22615869865E+03  0.00000000000E+00 0.  1.
         25    2    1    2    0    0 -0.10598737355E+02  0.13708952185E+02 -0.17234993161E+03  0.21361259266E+03  0.12500228884E+03 0.  0.
          5    1    3    3  501    0  0.53779536224E+02 -0.46793712357E+01 -0.10804549096E+03  0.12078068202E+03  0.10000000000E+00 0.  1.
         -5    1    3    3    0  501 -0.64378273579E+02  0.18388323420E+02 -0.64304440644E+02  0.92831910643E+02  0.10000000000E+00 0.  1.
         21    1    1    2  504  502  0.10598737355E+02 -0.13708952185E+02 -0.30914840046E+02  0.35440032994E+02  0.00000000000E+00 0. -1.
<mgrwt>
<rscale>  1 0.12619763E+03</rscale>
<asrwt>0</asrwt>
<pdfrwt beam="1">  1       21 0.35221425E-02 0.12619763E+03</pdfrwt>
<pdfrwt beam="2">  1       21 0.34793647E-01 0.12619763E+03</pdfrwt>
<totfact> 0.38126553E+06</totfact>
</mgrwt>
</event>
<event>
 6    1  0.4271609E-002  0.1267777E+03  0.7546771E-02  0.1232317E+00
         21   -1    0    0  504  502  0.00000000000E+00  0.00000000000E+00  0.36829118814E+02  0.36829118814E+02  0.00000000000E+00 0.  1.
         21   -1    0    0  502  503 -0.00000000000E+00 -0.00000000000E+00 -0.15174795735E+03  0.15174795735E+03  0.00000000000E+00 0.  1.
         25    2    1    2    0    0  0.23756625357E+01 -0.21035370742E+02 -0.87975174230E+02  0.15431205550E+03  0.12499779437E+03 0.  0.
          5    1    3    3  501    0  0.34208571261E+02 -0.87779071605E+01 -0.10877132247E+03  0.11436121980E+03  0.10000000000E+00 0.  1.
         -5    1    3    3    0  501 -0.31832908725E+02 -0.12257463582E+02  0.20796148244E+02  0.39950835700E+02  0.10000000000E+00 0.  1.
         21    1    1    2  504  503 -0.23756625357E+01  0.21035370742E+02 -0.26943664306E+02  0.34265020662E+02  0.00000000000E+00 0.  1.
<mgrwt>
<rscale>  1 0.12677768E+03</rscale>
<asrwt>0</asrwt>
<pdfrwt beam="1">  1       21 0.56660182E-02 0.12677768E+03</pdfrwt>
<pdfrwt beam="2">  1       21 0.23345840E-01 0.12677768E+03</pdfrwt>
<totfact> 0.37052697E+06</totfact>
</mgrwt>
</event>
<event>
 6    1  0.4271609E-002  0.1321587E+03  0.7546771E-02  0.1224287E+00
         21   -1    0    0  503  502  0.00000000000E+00  0.00000000000E+00  0.60356546291E+02  0.60356546291E+02  0.00000000000E+00 0.  1.
         21   -1    0    0  504  503 -0.00000000000E+00 -0.00000000000E+00 -0.12783239489E+03  0.12783239489E+03  0.00000000000E+00 0.  1.
         25    2    1    2    0    0 -0.37728792105E+02 -0.20450518972E+02 -0.44111236341E+02  0.13932596352E+03  0.12499694980E+03 0.  0.
          5    1    3    3  501    0 -0.77888895887E+02  0.25689047824E+01 -0.39315682826E+01  0.78030421013E+02  0.10000000000E+00 0. -1.
         -5    1    3    3    0  501  0.40160103782E+02 -0.23019423755E+02 -0.40179668058E+02  0.61295542505E+02  0.10000000000E+00 0. -1.
         21    1    1    2  504  502  0.37728792105E+02  0.20450518972E+02 -0.23364612257E+02  0.48862977661E+02  0.00000000000E+00 0.  1.
<mgrwt>
<rscale>  1 0.13215870E+03</rscale>
<asrwt>0</asrwt>
<pdfrwt beam="1">  1       21 0.92856226E-02 0.13215870E+03</pdfrwt>
<pdfrwt beam="2">  1       21 0.19666522E-01 0.13215870E+03</pdfrwt>
<totfact> 0.21891045E+06</totfact>
</mgrwt>
</event>
<event>
 6    1  0.4271609E-002  0.1324648E+03  0.7546771E-02  0.1223844E+00
         21   -1    0    0  504  502  0.00000000000E+00  0.00000000000E+00  0.49671704393E+02  0.49671704393E+02  0.00000000000E+00 0.  1.
         21   -1    0    0  502  503 -0.00000000000E+00 -0.00000000000E+00 -0.25471770788E+03  0.25471770788E+03  0.00000000000E+00 0.  1.
         25    2    1    2    0    0 -0.39644798589E+02 -0.18808485642E+02 -0.47303633762E+02  0.14065754490E+03  0.12498576712E+03 0.  0.
          5    1    3    3  501    0 -0.70031726360E+02 -0.49966913438E+02 -0.17184485929E+02  0.87729423184E+02  0.10000000000E+00 0. -1.
         -5    1    3    3    0  501  0.30386927772E+02  0.31158427796E+02 -0.30119147832E+02  0.52928121715E+02  0.10000000000E+00 0. -1.
         21    1    1    2  504  503  0.39644798589E+02  0.18808485642E+02 -0.15774236972E+03  0.16373186737E+03  0.00000000000E+00 0.  1.
<mgrwt>
<rscale>  1 0.13246475E+03</rscale>
<asrwt>0</asrwt>
<pdfrwt beam="1">  1       21 0.76418007E-02 0.13246475E+03</pdfrwt>
<pdfrwt beam="2">  1       21 0.39187340E-01 0.13246475E+03</pdfrwt>
<totfact> 0.81881113E+05</totfact>
</mgrwt>
</event>
<event>
 6    1  0.4271609E-002  0.1264325E+03  0.7546771E-02  0.1232847E+00
         21   -1    0    0  504  502  0.00000000000E+00  0.00000000000E+00  0.29583332782E+04  0.29583332782E+04  0.00000000000E+00 0. -1.
         21   -1    0    0  502  503 -0.00000000000E+00 -0.00000000000E+00 -0.20286034946E+01  0.20286034946E+01  0.00000000000E+00 0. -1.
         25    2    1    2    0    0  0.13143510300E+02  0.14170339144E+02  0.28020713035E+04  0.28049222369E+04  0.12494644809E+03 0.  0.
          5    1    3    3  501    0  0.51162581864E+02 -0.25865668025E+02  0.20609481599E+04  0.20617453699E+04  0.10000000000E+00 0.  1.
         -5    1    3    3    0  501 -0.38019071564E+02  0.40036007168E+02  0.74112314366E+03  0.74317686707E+03  0.10000000000E+00 0.  1.
         21    1    1    2  504  503 -0.13143510300E+02 -0.14170339144E+02  0.15423337117E+03  0.15543964474E+03  0.00000000000E+00 0.  1.
<mgrwt>
<rscale>  1 0.12643245E+03</rscale>
<asrwt>0</asrwt>
<pdfrwt beam="1">  1       21 0.45512474E+00 0.12643245E+03</pdfrwt>
<pdfrwt beam="2">  1       21 0.31209521E-03 0.12643245E+03</pdfrwt>
<totfact> 0.97247637E+04</totfact>
</mgrwt>
</event>
<event>
 6    1  0.4271609E-002  0.1270626E+03  0.7546771E-02  0.1231881E+00
         21   -1    0    0  504  502  0.00000000000E+00  0.00000000000E+00  0.63933086752E+01  0.63933086752E+01  0.00000000000E+00 0. -1.
         21   -1    0    0  502  503 -0.00000000000E+00 -0.00000000000E+00 -0.87849268973E+03  0.87849268973E+03  0.00000000000E+00 0. -1.
         25    2    1    2    0    0 -0.21750119692E+02 -0.67390539123E+01 -0.74783994107E+03  0.75855749418E+03  0.12500564773E+03 0.  0.
          5    1    3    3  501    0  0.14931412834E+02 -0.51143953255E+02 -0.54797642621E+03  0.55056046419E+03  0.10000000000E+00 0. -1.
         -5    1    3    3    0  501 -0.36681532526E+02  0.44404899342E+02 -0.19986351486E+03  0.20799702999E+03  0.10000000000E+00 0. -1.
         21    1    1    2  504  503  0.21750119692E+02  0.67390539123E+01 -0.12425943999E+03  0.12632850423E+03  0.00000000000E+00 0. -1.
<mgrwt>
<rscale>  1 0.12706256E+03</rscale>
<asrwt>0</asrwt>
<pdfrwt beam="1">  1       21 0.98358626E-03 0.12706256E+03</pdfrwt>
<pdfrwt beam="2">  1       21 0.13515268E+00 0.12706256E+03</pdfrwt>
<totfact> 0.15174787E+06</totfact>
</mgrwt>
</event>
<event>
 6    1  0.4271609E-002  0.1274817E+03  0.7546771E-02  0.1231241E+00
         21   -1    0    0  504  502  0.00000000000E+00  0.00000000000E+00  0.41446629493E+02  0.41446629493E+02  0.00000000000E+00 0.  1.
         21   -1    0    0  502  503 -0.00000000000E+00 -0.00000000000E+00 -0.44494055237E+03  0.44494055237E+03  0.00000000000E+00 0. -1.
         25    2    1    2    0    0 -0.24862972980E+02  0.28923693673E+01 -0.58116580762E+02  0.14010400053E+03  0.12500024312E+03 0.  0.
          5    1    3    3  501    0  0.12053123849E+02  0.29509322163E+02  0.28177036986E+02  0.42544486157E+02  0.10000000000E+00 0. -1.
         -5    1    3    3    0  501 -0.36916096829E+02 -0.26616952796E+02 -0.86293617748E+02  0.97559514376E+02  0.10000000000E+00 0. -1.
         21    1    1    2  504  503  0.24862972980E+02 -0.28923693673E+01 -0.34537734212E+03  0.34628318133E+03  0.00000000000E+00 0. -1.
<mgrwt>
<rscale>  1 0.12748174E+03</rscale>
<asrwt>0</asrwt>
<pdfrwt beam="1">  1       21 0.63764047E-02 0.12748174E+03</pdfrwt>
<pdfrwt beam="2">  1       21 0.68452391E-01 0.12748174E+03</pdfrwt>
<totfact> 0.35039396E+05</totfact>
</mgrwt>
</event>
<event>
 6    1  0.4271609E-002  0.1299837E+03  0.7546771E-02  0.1227480E+00
         21   -1    0    0  503  502  0.00000000000E+00  0.00000000000E+00  0.16554366671E+03  0.16554366671E+03  0.00000000000E+00 0. -1.
         21   -1    0    0  504  503 -0.00000000000E+00 -0.00000000000E+00 -0.42859985091E+02  0.42859985091E+02  0.00000000000E+00 0. -1.
         25    2    1    2    0    0  0.22902802079E+02  0.27395296004E+02  0.11071281011E+03  0.17074276558E+03  0.12498289919E+03 0.  0.
          5    1    3    3  501    0 -0.23340378328E+02  0.56379381798E+02  0.18803968283E+02  0.63851446151E+02  0.10000000000E+00 0. -1.
         -5    1    3    3    0  501  0.46243180407E+02 -0.28984085794E+02  0.91908841831E+02  0.10689131943E+03  0.10000000000E+00 0. -1.
         21    1    1    2  504  502 -0.22902802079E+02 -0.27395296004E+02  0.11970871509E+02  0.37660886220E+02  0.00000000000E+00 0. -1.
<mgrwt>
<rscale>  1 0.12998371E+03</rscale>
<asrwt>0</asrwt>
<pdfrwt beam="1">  1       21 0.25468256E-01 0.12998371E+03</pdfrwt>
<pdfrwt beam="2">  1       21 0.65938439E-02 0.12998371E+03</pdfrwt>
<totfact> 0.24334823E+06</totfact>
</mgrwt>
</event>
<event>
 6    1  0.4271609E-002  0.1264955E+03  0.7546771E-02  0.1232750E+00
         21   -1    0    0  504  502  0.00000000000E+00  0.00000000000E+00  0.44497438801E+03  0.44497438801E+03  0.00000000000E+00 0. -1.
         21   -1    0    0  502  503 -0.00000000000E+00 -0.00000000000E+00 -0.13283392483E+02  0.13283392483E+02  0.00000000000E+00 0. -1.
         25    2    1    2    0    0  0.10629080427E+02  0.16212949820E+02  0.41044910872E+03  0.42949921920E+03  0.12500108540E+03 0.  0.
          5    1    3    3  501    0 -0.15908925129E+02  0.22176028213E+02  0.39909097285E+03  0.40002310526E+03  0.10000000000E+00 0.  1.
         -5    1    3    3    0  501  0.26538005555E+02 -0.59630783929E+01  0.11358135866E+02  0.29476113942E+02  0.10000000000E+00 0.  1.
         21    1    1    2  504  503 -0.10629080427E+02 -0.16212949820E+02  0.21241886804E+02  0.28758561291E+02  0.00000000000E+00 0.  1.
<mgrwt>
<rscale>  1 0.12649549E+03</rscale>
<asrwt>0</asrwt>
<pdfrwt beam="1">  1       21 0.68457587E-01 0.12649549E+03</pdfrwt>
<pdfrwt beam="2">  1       21 0.20435992E-02 0.12649549E+03</pdfrwt>
<totfact> 0.23015598E+06</totfact>
</mgrwt>
</event>
<event>
 6    1  0.4271609E-002  0.1541951E+03  0.7546771E-02  0.1195411E+00
         21   -1    0    0  504  502  0.00000000000E+00  0.00000000000E+00  0.18690581077E+03  0.18690581077E+03  0.00000000000E+00 0.  1.
         21   -1    0    0  502  503 -0.00000000000E+00 -0.00000000000E+00 -0.88052538109E+02  0.88052538109E+02  0.00000000000E+00 0.  1.
         25    2    1    2    0    0 -0.87990305817E+02 -0.20223248622E+02  0.20761241494E+02  0.15558649694E+03  0.12499942072E+03 0.  0.
          5    1    3    3  501    0 -0.12023024262E+03 -0.20120784721E+02  0.14762389697E+02  0.12279289624E+03  0.10000000000E+00 0. -1.
         -5    1    3    3    0  501  0.32239936804E+02 -0.10246390177E+00  0.59988517970E+01  0.32793600700E+02  0.10000000000E+00 0. -1.
         21    1    1    2  504  503  0.87990305817E+02  0.20223248622E+02  0.78092031166E+02  0.11937185193E+03  0.00000000000E+00 0.  1.
<mgrwt>
<rscale>  1 0.15419510E+03</rscale>
<asrwt>0</asrwt>
<pdfrwt beam="1">  1       21 0.28754740E-01 0.15419510E+03</pdfrwt>
<pdfrwt beam="2">  1       21 0.13546544E-01 0.15419510E+03</pdfrwt>
<totfact> 0.54906880E+05</totfact>
</mgrwt>
</event>
<event>
 6    1  0.4271609E-002  0.1274848E+03  0.7546771E-02  0.1231236E+00
         21   -1    0    0  504  502  0.00000000000E+00  0.00000000000E+00  0.34249204475E+03  0.34249204475E+03  0.00000000000E+00 0. -1.
         21   -1    0    0  502  503 -0.00000000000E+00 -0.00000000000E+00 -0.18673042221E+02  0.18673042221E+02  0.00000000000E+00 0. -1.
         25    2    1    2    0    0 -0.22095761604E+02  0.11778584660E+02  0.30254920681E+03  0.32831144261E+03  0.12500169228E+03 0.  0.
          5    1    3    3  501    0 -0.59959373906E+02  0.46017293697E+02  0.16158083996E+03  0.17838468455E+03  0.10000000000E+00 0.  1.
         -5    1    3    3    0  501  0.37863612303E+02 -0.34238709037E+02  0.14096836684E+03  0.14992675806E+03  0.10000000000E+00 0.  1.
         21    1    1    2  504  503  0.22095761604E+02 -0.11778584660E+02  0.21269795718E+02  0.32853644354E+02  0.00000000000E+00 0. -1.
<mgrwt>
<rscale>  1 0.12748483E+03</rscale>
<asrwt>0</asrwt>
<pdfrwt beam="1">  1       21 0.52691079E-01 0.12748483E+03</pdfrwt>
<pdfrwt beam="2">  1       21 0.28727760E-02 0.12748483E+03</pdfrwt>
<totfact> 0.23075690E+06</totfact>
</mgrwt>
</event>
<event>
 6    1  0.4271609E-002  0.1288560E+03  0.7546771E-02  0.1229163E+00
         21   -1    0    0  504  502  0.00000000000E+00  0.00000000000E+00  0.24842447670E+01  0.24842447670E+01  0.00000000000E+00 0. -1.
         21   -1    0    0  502  503 -0.00000000000E+00 -0.00000000000E+00 -0.27842830391E+04  0.27842830391E+04  0.00000000000E+00 0. -1.
         25    2    1    2    0    0 -0.29327555817E+02  0.10899533459E+02 -0.18713682533E+04  0.18757992957E+04  0.12499981221E+03 0.  0.
          5    1    3    3  501    0  0.56935308521E+01 -0.25304456175E+02 -0.15726571675E+04  0.15728710399E+04  0.10000000000E+00 0. -1.
         -5    1    3    3    0  501 -0.35021086669E+02  0.36203989634E+02 -0.29871108576E+03  0.30292825575E+03  0.10000000000E+00 0. -1.
         21    1    1    2  504  503  0.29327555817E+02 -0.10899533459E+02 -0.91043054109E+03  0.91096798819E+03  0.00000000000E+00 0. -1.
<mgrwt>
<rscale>  1 0.12885596E+03</rscale>
<asrwt>0</asrwt>
<pdfrwt beam="1">  1       21 0.38219010E-03 0.12885596E+03</pdfrwt>
<pdfrwt beam="2">  1       21 0.42835281E+00 0.12885596E+03</pdfrwt>
<totfact> 0.10583191E+05</totfact>
</mgrwt>
</event>
<event>
 6    1  0.4271609E-002  0.1271105E+03  0.7546771E-02  0.1231807E+00
         21   -1    0    0  503  502  0.00000000000E+00  0.00000000000E+00  0.62472649901E+03  0.62472649901E+03  0.00000000000E+00 0. -1.
         21   -1    0    0  504  503 -0.00000000000E+00 -0.00000000000E+00 -0.53270150413E+02  0.53270150413E+02  0.00000000000E+00 0. -1.
         25    2    1    2    0    0  0.47701540800E+00  0.23009630954E+02  0.61540046231E+03  0.62839064383E+03  0.12500960594E+03 0.  0.
          5    1    3    3  501    0 -0.28788954399E+01  0.30443021349E+02  0.29682966572E+02  0.42616359444E+02  0.10000000000E+00 0.  1.
         -5    1    3    3    0  501  0.33559108479E+01 -0.74333903947E+01  0.58571749574E+03  0.58577428438E+03  0.10000000000E+00 0.  1.
         21    1    1    2  504  502 -0.47701540800E+00 -0.23009630954E+02 -0.43944113718E+02  0.49606005592E+02  0.00000000000E+00 0. -1.
<mgrwt>
<rscale>  1 0.12711047E+03</rscale>
<asrwt>0</asrwt>
<pdfrwt beam="1">  1       21 0.96111764E-01 0.12711047E+03</pdfrwt>
<pdfrwt beam="2">  1       21 0.81954082E-02 0.12711047E+03</pdfrwt>
<totfact> 0.10656097E+05</totfact>
</mgrwt>
</event>
<event>
 6    1  0.4271609E-002  0.1260504E+03  0.7546771E-02  0.1233437E+00
         21   -1    0    0  504  502  0.00000000000E+00  0.00000000000E+00  0.99205093323E+03  0.99205093323E+03  0.00000000000E+00 0. -1.
         21   -1    0    0  502  503 -0.00000000000E+00 -0.00000000000E+00 -0.67092036839E+01  0.67092036839E+01  0.00000000000E+00 0. -1.
         25    2    1    2    0    0  0.14417108154E+02 -0.74632759052E+01  0.96260271009E+03  0.97082062188E+03  0.12500059555E+03 0.  0.
          5    1    3    3  501    0  0.42735679506E+02 -0.57552787821E+01  0.11620965667E+03  0.12395223209E+03  0.10000000000E+00 0. -1.
         -5    1    3    3    0  501 -0.28318571353E+02 -0.17079971231E+01  0.84639305343E+03  0.84686838979E+03  0.10000000000E+00 0. -1.
         21    1    1    2  504  503 -0.14417108154E+02  0.74632759052E+01  0.22739019449E+02  0.27939515033E+02  0.00000000000E+00 0. -1.
<mgrwt>
<rscale>  1 0.12605040E+03</rscale>
<asrwt>0</asrwt>
<pdfrwt beam="1">  1       21 0.15262310E+00 0.12605040E+03</pdfrwt>
<pdfrwt beam="2">  1       21 0.10321860E-02 0.12605040E+03</pdfrwt>
<totfact> 0.10307095E+06</totfact>
</mgrwt>
</event>
<event>
 6    1  0.4271609E-002  0.1287260E+03  0.7546771E-02  0.1229358E+00
         21   -1    0    0  503  502  0.00000000000E+00  0.00000000000E+00  0.26405910439E+03  0.26405910439E+03  0.00000000000E+00 0.  1.
         21   -1    0    0  504  503 -0.00000000000E+00 -0.00000000000E+00 -0.30092748214E+02  0.30092748214E+02  0.00000000000E+00 0.  1.
         25    2    1    2    0    0  0.67901593906E+01  0.29990196257E+02  0.22942265841E+03  0.26306868473E+03  0.12499943422E+03 0.  0.
          5    1    3    3  501    0 -0.98041996686E+01 -0.46507587129E+02  0.60886469951E+02  0.77241505778E+02  0.10000000000E+00 0. -1.
         -5    1    3    3    0  501  0.16594359059E+02  0.76497783387E+02  0.16853618846E+03  0.18582717895E+03  0.10000000000E+00 0. -1.
         21    1    1    2  504  502 -0.67901593906E+01 -0.29990196257E+02  0.45436977687E+01  0.31083167881E+02  0.00000000000E+00 0.  1.
<mgrwt>
<rscale>  1 0.12872598E+03</rscale>
<asrwt>0</asrwt>
<pdfrwt beam="1">  1       21 0.40624476E-01 0.12872598E+03</pdfrwt>
<pdfrwt beam="2">  1       21 0.46296537E-02 0.12872598E+03</pdfrwt>
<totfact> 0.17817991E+06</totfact>
</mgrwt>
</event>
<event>
 6    1  0.4271609E-002  0.1263445E+03  0.7546771E-02  0.1232983E+00
         21   -1    0    0  504  502  0.00000000000E+00  0.00000000000E+00  0.39852960027E+02  0.39852960027E+02  0.00000000000E+00 0. -1.
         21   -1    0    0  502  503 -0.00000000000E+00 -0.00000000000E+00 -0.15348635064E+03  0.15348635064E+03  0.00000000000E+00 0. -1.
         25    2    1    2    0    0 -0.17071680709E+02  0.67978191460E+01 -0.66555788936E+02  0.14280265855E+03  0.12500109448E+03 0.  0.
          5    1    3    3  501    0  0.49810244363E+02  0.17904458574E+02 -0.50440981431E+02  0.73115885333E+02  0.10000000000E+00 0. -1.
         -5    1    3    3    0  501 -0.66881925072E+02 -0.11106639428E+02 -0.16114807505E+02  0.69686773219E+02  0.10000000000E+00 0. -1.
         21    1    1    2  504  503  0.17071680709E+02 -0.67978191460E+01 -0.47077601673E+02  0.50536652111E+02  0.00000000000E+00 0. -1.
<mgrwt>
<rscale>  1 0.12634447E+03</rscale>
<asrwt>0</asrwt>
<pdfrwt beam="1">  1       21 0.61312246E-02 0.12634447E+03</pdfrwt>
<pdfrwt beam="2">  1       21 0.23613285E-01 0.12634447E+03</pdfrwt>
<totfact> 0.31728903E+06</totfact>
</mgrwt>
</event>
<event>
 6    1  0.4271609E-002  0.1269969E+03  0.7546771E-02  0.1231981E+00
         21   -1    0    0  504  502  0.00000000000E+00  0.00000000000E+00  0.21160874638E+03  0.21160874638E+03  0.00000000000E+00 0.  1.
         21   -1    0    0  502  503 -0.00000000000E+00 -0.00000000000E+00 -0.34413785897E+02  0.34413785897E+02  0.00000000000E+00 0.  1.
         25    2    1    2    0    0  0.21610988991E+02 -0.60324778854E+01  0.18309065505E+03  0.22282372090E+03  0.12499918798E+03 0.  0.
          5    1    3    3  501    0 -0.44559342912E+02 -0.27872304293E+02  0.10959577673E+03  0.12154688258E+03  0.10000000000E+00 0.  1.
         -5    1    3    3    0  501  0.66170331902E+02  0.21839826408E+02  0.73494878322E+02  0.10127683833E+03  0.10000000000E+00 0.  1.
         21    1    1    2  504  503 -0.21610988991E+02  0.60324778854E+01 -0.58956945709E+01  0.23198811372E+02  0.00000000000E+00 0.  1.
<mgrwt>
<rscale>  1 0.12699694E+03</rscale>
<asrwt>0</asrwt>
<pdfrwt beam="1">  1       21 0.32555191E-01 0.12699694E+03</pdfrwt>
<pdfrwt beam="2">  1       21 0.52944287E-02 0.12699694E+03</pdfrwt>
<totfact> 0.22014930E+06</totfact>
</mgrwt>
</event>
<event>
 6    1  0.4271609E-002  0.1262530E+03  0.7546771E-02  0.1233124E+00
         21   -1    0    0  504  502  0.00000000000E+00  0.00000000000E+00  0.35187120586E+02  0.35187120586E+02  0.00000000000E+00 0.  1.
         21   -1    0    0  502  503 -0.00000000000E+00 -0.00000000000E+00 -0.45238648659E+03  0.45238648659E+03  0.00000000000E+00 0.  1.
         25    2    1    2    0    0  0.72136738441E+01  0.16189018015E+02 -0.79047205767E+02  0.14895729796E+03  0.12500277789E+03 0.  0.
          5    1    3    3  501    0  0.36363676744E+02 -0.43149005698E+02 -0.54458425764E+02  0.78421194940E+02  0.10000000000E+00 0. -1.
         -5    1    3    3    0  501 -0.29150002900E+02  0.59338023713E+02 -0.24588780003E+02  0.70536103020E+02  0.10000000000E+00 0. -1.
         21    1    1    2  504  503 -0.72136738441E+01 -0.16189018015E+02 -0.33815216024E+03  0.33861630922E+03  0.00000000000E+00 0.  1.
<mgrwt>
<rscale>  1 0.12625298E+03</rscale>
<asrwt>0</asrwt>
<pdfrwt beam="1">  1       21 0.54134033E-02 0.12625298E+03</pdfrwt>
<pdfrwt beam="2">  1       21 0.69597919E-01 0.12625298E+03</pdfrwt>
<totfact> 0.44601636E+05</totfact>
</mgrwt>
</event>
<event>
 6    1  0.4271609E-002  0.1389917E+03  0.7546771E-02  0.1214692E+00
         21   -1    0    0  503  502  0.00000000000E+00  0.00000000000E+00  0.76318174596E+02  0.76318174596E+02  0.00000000000E+00 0. -1.
         21   -1    0    0  504  503 -0.00000000000E+00 -0.00000000000E+00 -0.77989438690E+03  0.77989438690E+03  0.00000000000E+00 0.  1.
         25    2    1    2    0    0 -0.53924018946E+02 -0.28081143634E+02  0.10653946216E+02  0.13939942700E+03  0.12498937247E+03 0.  0.
          5    1    3    3  501    0 -0.65869398304E+02 -0.18427060776E+01 -0.42864268814E+02  0.78609978626E+02  0.10000000000E+00 0.  1.
         -5    1    3    3    0  501  0.11945379359E+02 -0.26238437557E+02  0.53518215030E+02  0.60789448373E+02  0.10000000000E+00 0.  1.
         21    1    1    2  504  502  0.53924018946E+02  0.28081143634E+02 -0.71423015852E+03  0.71681313450E+03  0.00000000000E+00 0.  1.
<mgrwt>
<rscale>  1 0.13899170E+03</rscale>
<asrwt>0</asrwt>
<pdfrwt beam="1">  1       21 0.11741258E-01 0.13899170E+03</pdfrwt>
<pdfrwt beam="2">  1       21 0.11998375E+00 0.13899170E+03</pdfrwt>
<totfact> 0.33298773E+04</totfact>
</mgrwt>
</event>
<event>
 6    1  0.4271609E-002  0.1743474E+03  0.7546771E-02  0.1173389E+00
         21   -1    0    0  503  502  0.00000000000E+00  0.00000000000E+00  0.88393238157E+02  0.88393238157E+02  0.00000000000E+00 0.  1.
         21   -1    0    0  504  503 -0.00000000000E+00 -0.00000000000E+00 -0.39688431688E+03  0.39688431688E+03  0.00000000000E+00 0.  1.
         25    2    1    2    0    0 -0.43925213191E+02 -0.11337821850E+03 -0.24126728425E+02  0.17600885551E+03  0.12495188439E+03 0.  0.
          5    1    3    3  501    0  0.20387732854E+02 -0.10759235102E+03 -0.10457899841E+02  0.11000523314E+03  0.10000000000E+00 0.  1.
         -5    1    3    3    0  501 -0.64312946045E+02 -0.57858674726E+01 -0.13668828583E+02  0.66003622372E+02  0.10000000000E+00 0.  1.
         21    1    1    2  504  502  0.43925213191E+02  0.11337821850E+03 -0.28436435030E+03  0.30926869952E+03  0.00000000000E+00 0.  1.
<mgrwt>
<rscale>  1 0.17434741E+03</rscale>
<asrwt>0</asrwt>
<pdfrwt beam="1">  1       21 0.13598960E-01 0.17434741E+03</pdfrwt>
<pdfrwt beam="2">  1       21 0.61059125E-01 0.17434741E+03</pdfrwt>
<totfact> 0.11773679E+05</totfact>
</mgrwt>
</event>
<event>
 6    1  0.4271609E-002  0.1259469E+03  0.7546771E-02  0.1233597E+00
         21   -1    0    0  504  502  0.00000000000E+00  0.00000000000E+00  0.18530807722E+02  0.18530807722E+02  0.00000000000E+00 0. -1.
         21   -1    0    0  502  503 -0.00000000000E+00 -0.00000000000E+00 -0.38563032236E+03  0.38563032236E+03  0.00000000000E+00 0. -1.
         25    2    1    2    0    0  0.11180170743E+02  0.10362316358E+02 -0.19989972759E+03  0.23626788243E+03  0.12502094768E+03 0.  0.
          5    1    3    3  501    0  0.56108504636E+02 -0.13550975398E+02 -0.44908644049E+02  0.73134051830E+02  0.10000000000E+00 0. -1.
         -5    1    3    3    0  501 -0.44928333892E+02  0.23913291756E+02 -0.15499108354E+03  0.16313383060E+03  0.10000000000E+00 0. -1.
         21    1    1    2  504  503 -0.11180170743E+02 -0.10362316358E+02 -0.16719978705E+03  0.16789324765E+03  0.00000000000E+00 0.  1.
<mgrwt>
<rscale>  1 0.12594686E+03</rscale>
<asrwt>0</asrwt>
<pdfrwt beam="1">  1       21 0.28508934E-02 0.12594686E+03</pdfrwt>
<pdfrwt beam="2">  1       21 0.59327743E-01 0.12594686E+03</pdfrwt>
<totfact> 0.18212724E+06</totfact>
</mgrwt>
</event>
<event>
 6    1  0.4271609E-002  0.1275905E+03  0.7546771E-02  0.1231075E+00
         21   -1    0    0  504  502  0.00000000000E+00  0.00000000000E+00  0.25748193022E+01  0.25748193022E+01  0.00000000000E+00 0.  1.
         21   -1    0    0  502  503 -0.00000000000E+00 -0.00000000000E+00 -0.23609253211E+04  0.23609253211E+04  0.00000000000E+00 0.  1.
         25    2    1    2    0    0  0.15632660598E+02 -0.20241058641E+02 -0.21046164158E+04  0.21084804021E+04  0.12500107121E+03 0.  0.
          5    1    3    3  501    0  0.16978208583E+02  0.36389410517E+02 -0.26809455132E+03  0.27108512909E+03  0.10000000000E+00 0. -1.
         -5    1    3    3    0  501 -0.13455479850E+01 -0.56630469158E+02 -0.18365218645E+04  0.18373952730E+04  0.10000000000E+00 0. -1.
         21    1    1    2  504  503 -0.15632660598E+02  0.20241058641E+02 -0.25373408594E+03  0.25501973826E+03  0.00000000000E+00 0.  1.
<mgrwt>
<rscale>  1 0.12759055E+03</rscale>
<asrwt>0</asrwt>
<pdfrwt beam="1">  1       21 0.39612699E-03 0.12759055E+03</pdfrwt>
<pdfrwt beam="2">  1       21 0.36321842E+00 0.12759055E+03</pdfrwt>
<totfact> 0.24985494E+05</totfact>
</mgrwt>
</event>
<event>
 6    1  0.4271609E-002  0.1267977E+03  0.7546771E-02  0.1232286E+00
         21   -1    0    0  503  502  0.00000000000E+00  0.00000000000E+00  0.10594382799E+03  0.10594382799E+03  0.00000000000E+00 0. -1.
         21   -1    0    0  504  503 -0.00000000000E+00 -0.00000000000E+00 -0.52025347197E+02  0.52025347197E+02  0.00000000000E+00 0. -1.
         25    2    1    2    0    0  0.17635750814E+02  0.11845931566E+02  0.41793996121E+02  0.13350800330E+03  0.12500521202E+03 0.  0.
          5    1    3    3  501    0 -0.29471390067E+02  0.67338717575E+01 -0.33135076898E+02  0.44853664091E+02  0.10000000000E+00 0.  1.
         -5    1    3    3    0  501  0.47107140881E+02  0.51120598083E+01  0.74929073019E+02  0.88654339211E+02  0.10000000000E+00 0.  1.
         21    1    1    2  504  502 -0.17635750814E+02 -0.11845931566E+02  0.12124484674E+02  0.24461171886E+02  0.00000000000E+00 0.  1.
<mgrwt>
<rscale>  1 0.12679767E+03</rscale>
<asrwt>0</asrwt>
<pdfrwt beam="1">  1       21 0.16299050E-01 0.12679767E+03</pdfrwt>
<pdfrwt beam="2">  1       21 0.80038996E-02 0.12679767E+03</pdfrwt>
<totfact> 0.39865800E+06</totfact>
</mgrwt>
</event>
<event>
 6    1  0.4271609E-002  0.1259009E+03  0.7546771E-02  0.1233668E+00
         21   -1    0    0  503  502  0.00000000000E+00  0.00000000000E+00  0.42576374164E+02  0.42576374164E+02  0.00000000000E+00 0. -1.
         21   -1    0    0  504  503 -0.00000000000E+00 -0.00000000000E+00 -0.17090958517E+03  0.17090958517E+03  0.00000000000E+00 0. -1.
         25    2    1    2    0    0 -0.79856820570E+01  0.12729014013E+02 -0.52887054550E+02  0.13655793167E+03  0.12500091699E+03 0.  0.
          5    1    3    3  501    0  0.97293730063E+01  0.65567249507E+02 -0.45367480898E+02  0.80323989132E+02  0.10000000000E+00 0.  1.
         -5    1    3    3    0  501 -0.17715055063E+02 -0.52838235494E+02 -0.75195736519E+01  0.56233942543E+02  0.10000000000E+00 0.  1.
         21    1    1    2  504  502  0.79856820570E+01 -0.12729014013E+02 -0.75446156459E+02  0.76928027663E+02  0.00000000000E+00 0. -1.
<mgrwt>
<rscale>  1 0.12590087E+03</rscale>
<asrwt>0</asrwt>
<pdfrwt beam="1">  1       21 0.65502114E-02 0.12590087E+03</pdfrwt>
<pdfrwt beam="2">  1       21 0.26293782E-01 0.12590087E+03</pdfrwt>
<totfact> 0.23143504E+06</totfact>
</mgrwt>
</event>
<event>
 6    1  0.4271609E-002  0.1264363E+03  0.7546771E-02  0.1232841E+00
         21   -1    0    0  504  502  0.00000000000E+00  0.00000000000E+00  0.62456702835E+02  0.62456702835E+02  0.00000000000E+00 0. -1.
         21   -1    0    0  502  503 -0.00000000000E+00 -0.00000000000E+00 -0.14129818951E+03  0.14129818951E+03  0.00000000000E+00 0. -1.
         25    2    1    2    0    0 -0.17376737991E+02  0.76436331418E+01 -0.39533489935E+01  0.12649811713E+03  0.12500307404E+03 0.  0.
          5    1    3    3  501    0  0.40254896860E+02 -0.17699730270E+02  0.31641096353E+02  0.54174774123E+02  0.10000000000E+00 0. -1.
         -5    1    3    3    0  501 -0.57631634851E+02  0.25343363412E+02 -0.35594445346E+02  0.72323343010E+02  0.10000000000E+00 0. -1.
         21    1    1    2  504  503  0.17376737991E+02 -0.76436331418E+01 -0.74888137685E+02  0.77256775215E+02  0.00000000000E+00 0. -1.
<mgrwt>
<rscale>  1 0.12643633E+03</rscale>
<asrwt>0</asrwt>
<pdfrwt beam="1">  1       21 0.96087237E-02 0.12643633E+03</pdfrwt>
<pdfrwt beam="2">  1       21 0.21738183E-01 0.12643633E+03</pdfrwt>
<totfact> 0.17106670E+06</totfact>
</mgrwt>
</event>
<event>
 6    1  0.4271609E-002  0.1306920E+03  0.7546771E-02  0.1226432E+00
         21   -1    0    0  504  502  0.00000000000E+00  0.00000000000E+00  0.14289457799E+02  0.14289457799E+02  0.00000000000E+00 0. -1.
         21   -1    0    0  502  503 -0.00000000000E+00 -0.00000000000E+00 -0.85817048230E+03  0.85817048230E+03  0.00000000000E+00 0. -1.
         25    2    1    2    0    0  0.28707003646E+01  0.38044197422E+02 -0.29986427737E+03  0.32710700572E+03  0.12499922588E+03 0.  0.
          5    1    3    3  501    0 -0.17111134117E+02  0.25281049823E+02 -0.30177929353E+03  0.30331942634E+03  0.10000000000E+00 0. -1.
         -5    1    3    3    0  501  0.19981834482E+02  0.12763147600E+02  0.19150161588E+01  0.23787579381E+02  0.10000000000E+00 0. -1.
         21    1    1    2  504  503 -0.28707003646E+01 -0.38044197422E+02 -0.54401674713E+03  0.54535293438E+03  0.00000000000E+00 0. -1.
<mgrwt>
<rscale>  1 0.13069204E+03</rscale>
<asrwt>0</asrwt>
<pdfrwt beam="1">  1       21 0.21983782E-02 0.13069204E+03</pdfrwt>
<pdfrwt beam="2">  1       21 0.13202622E+00 0.13069204E+03</pdfrwt>
<totfact> 0.44543818E+05</totfact>
</mgrwt>
</event>
<event>
 6    1  0.4271609E-002  0.1260912E+03  0.7546771E-02  0.1233374E+00
         21   -1    0    0  503  502  0.00000000000E+00  0.00000000000E+00  0.23504733009E+02  0.23504733009E+02  0.00000000000E+00 0.  1.
         21   -1    0    0  504  503 -0.00000000000E+00 -0.00000000000E+00 -0.21999157142E+03  0.21999157142E+03  0.00000000000E+00 0.  1.
         25    2    1    2    0    0 -0.13281364229E+02  0.10009611096E+02 -0.18217446622E+03  0.22155476967E+03  0.12498957104E+03 0.  0.
          5    1    3    3  501    0  0.36364393994E+02 -0.41073261444E+02 -0.79204665616E+02  0.96347138056E+02  0.10000000000E+00 0.  1.
         -5    1    3    3    0  501 -0.49645758224E+02  0.51082872540E+02 -0.10296980060E+03  0.12520763161E+03  0.10000000000E+00 0.  1.
         21    1    1    2  504  502  0.13281364229E+02 -0.10009611096E+02 -0.14312372191E+02  0.21941534764E+02  0.00000000000E+00 0.  1.
<mgrwt>
<rscale>  1 0.12609116E+03</rscale>
<asrwt>0</asrwt>
<pdfrwt beam="1">  1       21 0.36161127E-02 0.12609116E+03</pdfrwt>
<pdfrwt beam="2">  1       21 0.33844857E-01 0.12609116E+03</pdfrwt>
<totfact> 0.38533738E+06</totfact>
</mgrwt>
</event>
<event>
 6    1  0.4271609E-002  0.1297470E+03  0.7546771E-02  0.1227832E+00
         21   -1    0    0  504  502  0.00000000000E+00  0.00000000000E+00  0.26770053499E+03  0.26770053499E+03  0.00000000000E+00 0.  1.
         21   -1    0    0  502  503 -0.00000000000E+00 -0.00000000000E+00 -0.38501049201E+02  0.38501049201E+02  0.00000000000E+00 0.  1.
         25    2    1    2    0    0 -0.13941326765E+01 -0.34748093302E+02  0.23733635269E+03  0.27048629059E+03  0.12499966198E+03 0.  0.
          5    1    3    3  501    0 -0.12963151842E+02 -0.22768120361E+02 -0.57553866298E+01  0.26824710357E+02  0.10000000000E+00 0. -1.
         -5    1    3    3    0  501  0.11569019166E+02 -0.11979972941E+02  0.24309173932E+03  0.24366158023E+03  0.10000000000E+00 0. -1.
         21    1    1    2  504  503  0.13941326765E+01  0.34748093302E+02 -0.81368669019E+01  0.35715293601E+02  0.00000000000E+00 0.  1.
<mgrwt>
<rscale>  1 0.12974702E+03</rscale>
<asrwt>0</asrwt>
<pdfrwt beam="1">  1       21 0.41184697E-01 0.12974702E+03</pdfrwt>
<pdfrwt beam="2">  1       21 0.59232385E-02 0.12974702E+03</pdfrwt>
<totfact> 0.11450434E+06</totfact>
</mgrwt>
</event>
<event>
 6    1  0.4271609E-002  0.1323616E+03  0.7546771E-02  0.1223993E+00
         21   -1    0    0  504  502  0.00000000000E+00  0.00000000000E+00  0.22210860496E+02  0.22210860496E+02  0.00000000000E+00 0.  1.
         21   -1    0    0  502  503 -0.00000000000E+00 -0.00000000000E+00 -0.59949943706E+03  0.59949943706E+03  0.00000000000E+00 0.  1.
         25    2    1    2    0    0  0.31954115971E+02  0.29567130148E+02 -0.18757982172E+03  0.22957741916E+03  0.12499728461E+03 0.  0.
          5    1    3    3  501    0  0.50494697913E+02  0.59632297367E+02 -0.17573137478E+03  0.19232069959E+03  0.10000000000E+00 0.  1.
         -5    1    3    3    0  501 -0.18540581942E+02 -0.30065167219E+02 -0.11848446932E+02  0.37256719573E+02  0.10000000000E+00 0.  1.
         21    1    1    2  504  503 -0.31954115971E+02 -0.29567130148E+02 -0.38970875484E+03  0.39213287839E+03  0.00000000000E+00 0.  1.
<mgrwt>
<rscale>  1 0.13236163E+03</rscale>
<asrwt>0</asrwt>
<pdfrwt beam="1">  1       21 0.34170554E-02 0.13236163E+03</pdfrwt>
<pdfrwt beam="2">  1       21 0.92230683E-01 0.13236163E+03</pdfrwt>
<totfact> 0.51140405E+05</totfact>
</mgrwt>
</event>
<event>
 6    1  0.4271609E-002  0.1259543E+03  0.7546771E-02  0.1233585E+00
         21   -1    0    0  504  502  0.00000000000E+00  0.00000000000E+00  0.18016648869E+02  0.18016648869E+02  0.00000000000E+00 0.  1.
         21   -1    0    0  502  503 -0.00000000000E+00 -0.00000000000E+00 -0.32266917468E+03  0.32266917468E+03  0.00000000000E+00 0.  1.
         25    2    1    2    0    0 -0.51690774996E+01  0.14622725572E+02 -0.21081900734E+03  0.24557918523E+03  0.12499575550E+03 0.  0.
          5    1    3    3  501    0  0.32837927052E+02  0.43424975593E+02 -0.18175231463E+03  0.18973131484E+03  0.10000000000E+00 0.  1.
         -5    1    3    3    0  501 -0.38007004551E+02 -0.28802250021E+02 -0.29066692716E+02  0.55847870386E+02  0.10000000000E+00 0.  1.
         21    1    1    2  504  503  0.51690774996E+01 -0.14622725572E+02 -0.93833518468E+02  0.95106638325E+02  0.00000000000E+00 0.  1.
<mgrwt>
<rscale>  1 0.12595429E+03</rscale>
<asrwt>0</asrwt>
<pdfrwt beam="1">  1       21 0.27717923E-02 0.12595429E+03</pdfrwt>
<pdfrwt beam="2">  1       21 0.49641409E-01 0.12595429E+03</pdfrwt>
<totfact> 0.27668028E+06</totfact>
</mgrwt>
</event>
<event>
 6    1  0.4271609E-002  0.1285593E+03  0.7546771E-02  0.1229609E+00
         21   -1    0    0  503  502  0.00000000000E+00  0.00000000000E+00  0.26246850089E+03  0.26246850089E+03  0.00000000000E+00 0. -1.
         21   -1    0    0  504  503 -0.00000000000E+00 -0.00000000000E+00 -0.29297686972E+03  0.29297686972E+03  0.00000000000E+00 0. -1.
         25    2    1    2    0    0  0.29390616200E+02 -0.62397393998E+01  0.24586295024E+03  0.27744564278E+03  0.12499900691E+03 0.  0.
          5    1    3    3  501    0 -0.37501160542E+02  0.32019390978E+02  0.12173219310E+03  0.13134045560E+03  0.10000000000E+00 0. -1.
         -5    1    3    3    0  501  0.66891776742E+02 -0.38259130378E+02  0.12413075714E+03  0.14610518718E+03  0.10000000000E+00 0. -1.
         21    1    1    2  504  502 -0.29390616200E+02  0.62397393998E+01 -0.27637131907E+03  0.27799972783E+03  0.00000000000E+00 0. -1.
<mgrwt>
<rscale>  1 0.12855930E+03</rscale>
<asrwt>0</asrwt>
<pdfrwt beam="1">  1       21 0.40379769E-01 0.12855930E+03</pdfrwt>
<pdfrwt beam="2">  1       21 0.45073365E-01 0.12855930E+03</pdfrwt>
<totfact> 0.28985091E+04</totfact>
</mgrwt>
</event>
<event>
 6    1  0.4271609E-002  0.1260331E+03  0.7546771E-02  0.1233464E+00
         21   -1    0    0  503  502  0.00000000000E+00  0.00000000000E+00  0.10708943061E+03  0.10708943061E+03  0.00000000000E+00 0. -1.
         21   -1    0    0  504  503 -0.00000000000E+00 -0.00000000000E+00 -0.52144563474E+02  0.52144563474E+02  0.00000000000E+00 0. -1.
         25    2    1    2    0    0 -0.16061405674E+02 -0.94617484300E+00  0.63375074914E+02  0.14106995262E+03  0.12500186964E+03 0.  0.
          5    1    3    3  501    0  0.25165222952E+02 -0.11890517395E+02 -0.28462848193E+02  0.39809754802E+02  0.10000000000E+00 0. -1.
         -5    1    3    3    0  501 -0.41226628626E+02  0.10944342552E+02  0.91837923107E+02  0.10126019782E+03  0.10000000000E+00 0. -1.
         21    1    1    2  504  502  0.16061405674E+02  0.94617484300E+00 -0.84302077792E+01  0.18164041463E+02  0.00000000000E+00 0.  1.
<mgrwt>
<rscale>  1 0.12603306E+03</rscale>
<asrwt>0</asrwt>
<pdfrwt beam="1">  1       21 0.16475297E-01 0.12603306E+03</pdfrwt>
<pdfrwt beam="2">  1       21 0.80222406E-02 0.12603306E+03</pdfrwt>
<totfact> 0.38930412E+06</totfact>
</mgrwt>
</event>
<event>
 6    1  0.4271609E-002  0.1313847E+03  0.7546771E-02  0.1225415E+00
         21   -1    0    0  503  502  0.00000000000E+00  0.00000000000E+00  0.45127997898E+01  0.45127997898E+01  0.00000000000E+00 0. -1.
         21   -1    0    0  504  503 -0.00000000000E+00 -0.00000000000E+00 -0.18491820757E+04  0.18491820757E+04  0.00000000000E+00 0. -1.
         25    2    1    2    0    0  0.74795209881E+01  0.39766022423E+02 -0.10811036588E+04  0.10890578823E+04  0.12499868032E+03 0.  0.
          5    1    3    3  501    0  0.73633694887E+01 -0.41341559706E+02 -0.57144190698E+03  0.57298272821E+03  0.10000000000E+00 0. -1.
         -5    1    3    3    0  501  0.11615149944E+00  0.81107582129E+02 -0.50966175183E+03  0.51607515407E+03  0.10000000000E+00 0. -1.
         21    1    1    2  504  502 -0.74795209881E+01 -0.39766022423E+02 -0.76356561708E+03  0.76463699319E+03  0.00000000000E+00 0. -1.
<mgrwt>
<rscale>  1 0.13138474E+03</rscale>
<asrwt>0</asrwt>
<pdfrwt beam="1">  1       21 0.69427721E-03 0.13138474E+03</pdfrwt>
<pdfrwt beam="2">  1       21 0.28448942E+00 0.13138474E+03</pdfrwt>
<totfact> 0.29287150E+05</totfact>
</mgrwt>
</event>
<event>
 6    1  0.4271609E-002  0.1312599E+03  0.7546771E-02  0.1225598E+00
         21   -1    0    0  504  502  0.00000000000E+00  0.00000000000E+00  0.71694397296E+02  0.71694397296E+02  0.00000000000E+00 0.  1.
         21   -1    0    0  502  503 -0.00000000000E+00 -0.00000000000E+00 -0.10257168784E+03  0.10257168784E+03  0.00000000000E+00 0.  1.
         25    2    1    2    0    0 -0.27057497014E+02  0.29527185704E+02 -0.20082875753E+02  0.13278738902E+03  0.12500082378E+03 0.  0.
          5    1    3    3  501    0  0.18570249697E+02  0.36098003507E+02 -0.59571364822E+02  0.72087984698E+02  0.10000000000E+00 0.  1.
         -5    1    3    3    0  501 -0.45627746712E+02 -0.65708178029E+01  0.39488489069E+02  0.60699404326E+02  0.10000000000E+00 0.  1.
         21    1    1    2  504  503  0.27057497014E+02 -0.29527185704E+02 -0.10794414786E+02  0.41478696109E+02  0.00000000000E+00 0.  1.
<mgrwt>
<rscale>  1 0.13125993E+03</rscale>
<asrwt>0</asrwt>
<pdfrwt beam="1">  1       21 0.11029907E-01 0.13125993E+03</pdfrwt>
<pdfrwt beam="2">  1       21 0.15780260E-01 0.13125993E+03</pdfrwt>
<totfact> 0.24211849E+06</totfact>
</mgrwt>
</event>
<event>
 6    1  0.4271609E-002  0.1260019E+03  0.7546771E-02  0.1233512E+00
         21   -1    0    0  503  502  0.00000000000E+00  0.00000000000E+00  0.54839228531E+02  0.54839228531E+02  0.00000000000E+00 0.  1.
         21   -1    0    0  504  503 -0.00000000000E+00 -0.00000000000E+00 -0.92196383241E+02  0.92196383241E+02  0.00000000000E+00 0.  1.
         25    2    1    2    0    0  0.13560034293E+02  0.79339458601E+01 -0.29232100631E+02  0.12934836974E+03  0.12501865069E+03 0.  0.
          5    1    3    3  501    0  0.65698156405E+02 -0.16748171949E+02 -0.21619184644E+02  0.71162828523E+02  0.10000000000E+00 0.  1.
         -5    1    3    3    0  501 -0.52138122113E+02  0.24682117809E+02 -0.76129159867E+01  0.58185541217E+02  0.10000000000E+00 0.  1.
         21    1    1    2  504  502 -0.13560034293E+02 -0.79339458601E+01 -0.81250540786E+01  0.17687242032E+02  0.00000000000E+00 0. -1.
<mgrwt>
<rscale>  1 0.12600192E+03</rscale>
<asrwt>0</asrwt>
<pdfrwt beam="1">  1       21 0.84368044E-02 0.12600192E+03</pdfrwt>
<pdfrwt beam="2">  1       21 0.14184059E-01 0.12600192E+03</pdfrwt>
<totfact> 0.46758877E+06</totfact>
</mgrwt>
</event>
<event>
 6    1  0.4271609E-002  0.1356471E+03  0.7546771E-02  0.1219309E+00
         21   -1    0    0  504  502  0.00000000000E+00  0.00000000000E+00  0.24008103556E+03  0.24008103556E+03  0.00000000000E+00 0.  1.
         21   -1    0    0  502  503 -0.00000000000E+00 -0.00000000000E+00 -0.53910812210E+02  0.53910812210E+02  0.00000000000E+00 0.  1.
         25    2    1    2    0    0 -0.36965776216E+02  0.37535161829E+02  0.19799015688E+03  0.24000047981E+03  0.12499908441E+03 0.  0.
          5    1    3    3  501    0 -0.76870268537E+02  0.52153132663E+02  0.14255648525E+03  0.17015095920E+03  0.10000000000E+00 0.  1.
         -5    1    3    3    0  501  0.39904492321E+02 -0.14617970833E+02  0.55433671632E+02  0.69849520608E+02  0.10000000000E+00 0.  1.
         21    1    1    2  504  503  0.36965776216E+02 -0.37535161829E+02 -0.11819933534E+02  0.53991367954E+02  0.00000000000E+00 0.  1.
<mgrwt>
<rscale>  1 0.13564707E+03</rscale>
<asrwt>0</asrwt>
<pdfrwt beam="1">  1       21 0.36935543E-01 0.13564707E+03</pdfrwt>
<pdfrwt beam="2">  1       21 0.82939712E-02 0.13564707E+03</pdfrwt>
<totfact> 0.79962325E+05</totfact>
</mgrwt>
</event>
<event>
 6    1  0.4271609E-002  0.1341041E+03  0.7546771E-02  0.1221490E+00
         21   -1    0    0  504  502  0.00000000000E+00  0.00000000000E+00  0.53702654457E+02  0.53702654457E+02  0.00000000000E+00 0. -1.
         21   -1    0    0  502  503 -0.00000000000E+00 -0.00000000000E+00 -0.15760863876E+03  0.15760863876E+03  0.00000000000E+00 0. -1.
         25    2    1    2    0    0 -0.46736585022E+02  0.13237750437E+02 -0.87117405879E+02  0.15991671392E+03  0.12499746624E+03 0.  0.
          5    1    3    3  501    0 -0.34401058220E+02  0.64695866585E+01  0.27452969816E+02  0.44485547202E+02  0.10000000000E+00 0.  1.
         -5    1    3    3    0  501 -0.12335526803E+02  0.67681637787E+01 -0.11457037569E+03  0.11543116671E+03  0.10000000000E+00 0.  1.
         21    1    1    2  504  503  0.46736585022E+02 -0.13237750437E+02 -0.16788578429E+02  0.51394579304E+02  0.00000000000E+00 0. -1.
<mgrwt>
<rscale>  1 0.13410411E+03</rscale>
<asrwt>0</asrwt>
<pdfrwt beam="1">  1       21 0.82619469E-02 0.13410411E+03</pdfrwt>
<pdfrwt beam="2">  1       21 0.24247483E-01 0.13410411E+03</pdfrwt>
<totfact> 0.18144333E+06</totfact>
</mgrwt>
</event>
<event>
 6    1  0.4271609E-002  0.1260735E+03  0.7546771E-02  0.1233401E+00
         21   -1    0    0  503  502  0.00000000000E+00  0.00000000000E+00  0.15016942149E+02  0.15016942149E+02  0.00000000000E+00 0. -1.
         21   -1    0    0  504  503 -0.00000000000E+00 -0.00000000000E+00 -0.52694599845E+03  0.52694599845E+03  0.00000000000E+00 0. -1.
         25    2    1    2    0    0  0.11815698638E+02  0.11296319083E+02 -0.25450036013E+03  0.28401575381E+03  0.12500918986E+03 0.  0.
          5    1    3    3  501    0 -0.12373327595E+02  0.65515129504E+02 -0.13152507985E+03  0.14745910640E+03  0.10000000000E+00 0. -1.
         -5    1    3    3    0  501  0.24189026233E+02 -0.54218810421E+02 -0.12297528028E+03  0.13655664741E+03  0.10000000000E+00 0. -1.
         21    1    1    2  504  502 -0.11815698638E+02 -0.11296319083E+02 -0.25742869617E+03  0.25794718679E+03  0.00000000000E+00 0. -1.
<mgrwt>
<rscale>  1 0.12607345E+03</rscale>
<asrwt>0</asrwt>
<pdfrwt beam="1">  1       21 0.23102991E-02 0.12607345E+03</pdfrwt>
<pdfrwt beam="2">  1       21 0.81068606E-01 0.12607345E+03</pdfrwt>
<totfact> 0.13001175E+06</totfact>
</mgrwt>
</event>
<event>
 6    1  0.4271609E-002  0.1455622E+03  0.7546771E-02  0.1206035E+00
         21   -1    0    0  504  502  0.00000000000E+00  0.00000000000E+00  0.17650939747E+04  0.17650939747E+04  0.00000000000E+00 0. -1.
         21   -1    0    0  502  503 -0.00000000000E+00 -0.00000000000E+00 -0.94900090788E+01  0.94900090788E+01  0.00000000000E+00 0. -1.
         25    2    1    2    0    0 -0.38855136697E+02  0.63661721348E+02  0.15313558323E+04  0.15382584420E+04  0.12500325101E+03 0.  0.
          5    1    3    3  501    0 -0.44367919010E+00  0.89878341241E+02  0.12360129556E+04  0.12392765428E+04  0.10000000000E+00 0. -1.
         -5    1    3    3    0  501 -0.38411457507E+02 -0.26216619893E+02  0.29534287675E+03  0.29898189924E+03  0.10000000000E+00 0. -1.
         21    1    1    2  504  503  0.38855136697E+02 -0.63661721348E+02  0.22424813332E+03  0.23632554181E+03  0.00000000000E+00 0. -1.
<mgrwt>
<rscale>  1 0.14556218E+03</rscale>
<asrwt>0</asrwt>
<pdfrwt beam="1">  1       21 0.27155266E+00 0.14556218E+03</pdfrwt>
<pdfrwt beam="2">  1       21 0.14600028E-02 0.14556218E+03</pdfrwt>
<totfact> 0.10593111E+05</totfact>
</mgrwt>
</event>
<event>
 6    1  0.4271609E-002  0.1344981E+03  0.7546771E-02  0.1220930E+00
         21   -1    0    0  504  502  0.00000000000E+00  0.00000000000E+00  0.17471983646E+03  0.17471983646E+03  0.00000000000E+00 0.  1.
         21   -1    0    0  502  503 -0.00000000000E+00 -0.00000000000E+00 -0.90997582062E+02  0.90997582062E+02  0.00000000000E+00 0. -1.
         25    2    1    2    0    0 -0.42978749898E+02 -0.24884078636E+02  0.13761907281E+03  0.19242855616E+03  0.12499339867E+03 0.  0.
          5    1    3    3  501    0  0.21928223573E+02 -0.47630364817E+02  0.10266063150E+03  0.11527668412E+03  0.10000000000E+00 0. -1.
         -5    1    3    3    0  501 -0.64906973471E+02  0.22746286181E+02  0.34958441307E+02  0.77151872037E+02  0.10000000000E+00 0. -1.
         21    1    1    2  504  503  0.42978749898E+02  0.24884078636E+02 -0.53896818408E+02  0.73288862366E+02  0.00000000000E+00 0. -1.
<mgrwt>
<rscale>  1 0.13449810E+03</rscale>
<asrwt>0</asrwt>
<pdfrwt beam="1">  1       21 0.26879975E-01 0.13449810E+03</pdfrwt>
<pdfrwt beam="2">  1       21 0.13999628E-01 0.13449810E+03</pdfrwt>
<totfact> 0.58974965E+05</totfact>
</mgrwt>
</event>
<event>
 6    1  0.4271609E-002  0.1435449E+03  0.7546771E-02  0.1208637E+00
         21   -1    0    0  503  502  0.00000000000E+00  0.00000000000E+00  0.77480308405E+03  0.77480308405E+03  0.00000000000E+00 0. -1.
         21   -1    0    0  504  503 -0.00000000000E+00 -0.00000000000E+00 -0.30166068214E+02  0.30166068214E+02  0.00000000000E+00 0. -1.
         25    2    1    2    0    0 -0.14924482288E+02  0.68973605114E+02  0.71356789041E+03  0.72786280409E+03  0.12500011593E+03 0.  0.
          5    1    3    3  501    0 -0.13133194037E+02  0.19859365994E+02  0.16275479948E+02  0.28840534857E+02  0.10000000000E+00 0.  1.
         -5    1    3    3    0  501 -0.17912882504E+01  0.49114239120E+02  0.69729241046E+03  0.69902226924E+03  0.10000000000E+00 0.  1.
         21    1    1    2  504  502  0.14924482288E+02 -0.68973605114E+02  0.31069125428E+02  0.77106348175E+02  0.00000000000E+00 0. -1.
<mgrwt>
<rscale>  1 0.14354486E+03</rscale>
<asrwt>0</asrwt>
<pdfrwt beam="1">  1       21 0.11920046E+00 0.14354486E+03</pdfrwt>
<pdfrwt beam="2">  1       21 0.46409342E-02 0.14354486E+03</pdfrwt>
<totfact> 0.16685896E+05</totfact>
</mgrwt>
</event>
<event>
 6    1  0.4271609E-002  0.1287018E+03  0.7546771E-02  0.1229395E+00
         21   -1    0    0  504  502  0.00000000000E+00  0.00000000000E+00  0.36570960416E+01  0.36570960416E+01  0.00000000000E+00 0. -1.
         21   -1    0    0  502  503 -0.00000000000E+00 -0.00000000000E+00 -0.21436774515E+04  0.21436774515E+04  0.00000000000E+00 0. -1.
         25    2    1    2    0    0 -0.30587059729E+02  0.15131140529E+01 -0.12130343949E+04  0.12198428609E+04  0.12500521715E+03 0.  0.
          5    1    3    3  501    0  0.41366163918E+02 -0.21286220514E+02 -0.66641907559E+03  0.66804090968E+03  0.10000000000E+00 0. -1.
         -5    1    3    3    0  501 -0.71953223646E+02  0.22799334567E+02 -0.54661531933E+03  0.55180195123E+03  0.10000000000E+00 0. -1.
         21    1    1    2  504  503  0.30587059729E+02 -0.15131140529E+01 -0.92698596056E+03  0.92749168665E+03  0.00000000000E+00 0. -1.
<mgrwt>
<rscale>  1 0.12870183E+03</rscale>
<asrwt>0</asrwt>
<pdfrwt beam="1">  1       21 0.56262921E-03 0.12870183E+03</pdfrwt>
<pdfrwt beam="2">  1       21 0.32979709E+00 0.12870183E+03</pdfrwt>
<totfact> 0.22617116E+05</totfact>
</mgrwt>
</event>
<event>
 6    1  0.4271609E-002  0.1281673E+03  0.7546771E-02  0.1230201E+00
         21   -1    0    0  504  502  0.00000000000E+00  0.00000000000E+00  0.17075082722E+03  0.17075082722E+03  0.00000000000E+00 0. -1.
         21   -1    0    0  502  503 -0.00000000000E+00 -0.00000000000E+00 -0.12319284969E+03  0.12319284969E+03  0.00000000000E+00 0. -1.
         25    2    1    2    0    0 -0.18338482750E+02  0.21579975893E+02  0.14438251676E+03  0.19306262464E+03  0.12499948231E+03 0.  0.
          5    1    3    3  501    0 -0.66089596130E+02  0.81035564043E+01  0.40486946130E+02  0.77927563480E+02  0.10000000000E+00 0.  1.
         -5    1    3    3    0  501  0.47751113379E+02  0.13476419488E+02  0.10389557063E+03  0.11513506116E+03  0.10000000000E+00 0.  1.
         21    1    1    2  504  503  0.18338482750E+02 -0.21579975893E+02 -0.96824539237E+02  0.10088105227E+03  0.00000000000E+00 0. -1.
<mgrwt>
<rscale>  1 0.12816734E+03</rscale>
<asrwt>0</asrwt>
<pdfrwt beam="1">  1       21 0.26269358E-01 0.12816734E+03</pdfrwt>
<pdfrwt beam="2">  1       21 0.18952746E-01 0.12816734E+03</pdfrwt>
<totfact> 0.35561890E+05</totfact>
</mgrwt>
</event>
<event>
 6    1  0.4271609E-002  0.1262912E+03  0.7546771E-02  0.1233065E+00
         21   -1    0    0  503  502  0.00000000000E+00  0.00000000000E+00  0.72852905498E+02  0.72852905498E+02  0.00000000000E+00 0.  1.
         21   -1    0    0  504  503 -0.00000000000E+00 -0.00000000000E+00 -0.91045877798E+02  0.91045877798E+02  0.00000000000E+00 0.  1.
         25    2    1    2    0    0 -0.95165842922E+01  0.15320585643E+02  0.13931882064E+02  0.12705733939E+03  0.12499673769E+03 0.  0.
          5    1    3    3  501    0  0.32086693011E+02 -0.27019328623E+02 -0.31375006252E+02  0.52383213007E+02  0.10000000000E+00 0.  1.
         -5    1    3    3    0  501 -0.41603277303E+02  0.42339914266E+02  0.45306888316E+02  0.74674126385E+02  0.10000000000E+00 0.  1.
         21    1    1    2  504  502  0.95165842922E+01 -0.15320585643E+02 -0.32124854364E+02  0.36841443905E+02  0.00000000000E+00 0.  1.
<mgrwt>
<rscale>  1 0.12629121E+03</rscale>
<asrwt>0</asrwt>
<pdfrwt beam="1">  1       21 0.11208139E-01 0.12629121E+03</pdfrwt>
<pdfrwt beam="2">  1       21 0.14007058E-01 0.12629121E+03</pdfrwt>
<totfact> 0.29134656E+06</totfact>
</mgrwt>
</event>
<event>
 6    1  0.4271609E-002  0.1265799E+03  0.7546771E-02  0.1232621E+00
         21   -1    0    0  503  502  0.00000000000E+00  0.00000000000E+00  0.44662158449E+01  0.44662158449E+01  0.00000000000E+00 0. -1.
         21   -1    0    0  504  503 -0.00000000000E+00 -0.00000000000E+00 -0.12591302808E+04  0.12591302808E+04  0.00000000000E+00 0. -1.
         25    2    1    2    0    0  0.13273325614E+02  0.14819306930E+02 -0.11585960884E+04  0.11654901811E+04  0.12500669242E+03 0.  0.
          5    1    3    3  501    0 -0.45697943956E+02  0.34903160474E+02 -0.37050488544E+03  0.37494054572E+03  0.10000000000E+00 0.  1.
         -5    1    3    3    0  501  0.58971269570E+02 -0.20083853544E+02 -0.78809120291E+03  0.79054963533E+03  0.10000000000E+00 0.  1.
         21    1    1    2  504  502 -0.13273325614E+02 -0.14819306930E+02 -0.96067976572E+02  0.98106315563E+02  0.00000000000E+00 0.  1.
<mgrwt>
<rscale>  1 0.12657988E+03</rscale>
<asrwt>0</asrwt>
<pdfrwt beam="1">  1       21 0.68711026E-03 0.12657988E+03</pdfrwt>
<pdfrwt beam="2">  1       21 0.19371231E+00 0.12657988E+03</pdfrwt>
<totfact> 0.10199178E+06</totfact>
</mgrwt>
</event>
<event>
 6    1  0.4271609E-002  0.1267983E+03  0.7546771E-02  0.1232285E+00
         21   -1    0    0  503  502  0.00000000000E+00  0.00000000000E+00  0.17117391362E+02  0.17117391362E+02  0.00000000000E+00 0. -1.
         21   -1    0    0  504  503 -0.00000000000E+00 -0.00000000000E+00 -0.34028980855E+03  0.34028980855E+03  0.00000000000E+00 0. -1.
         25    2    1    2    0    0  0.21234863542E+02  0.14321658168E+01 -0.23861883592E+03  0.27021615316E+03  0.12499940017E+03 0.  0.
          5    1    3    3  501    0  0.55908337323E+02 -0.28652021847E+02 -0.20185082176E+03  0.21140114660E+03  0.10000000000E+00 0. -1.
         -5    1    3    3    0  501 -0.34673473781E+02  0.30084187664E+02 -0.36768014163E+02  0.58815006562E+02  0.10000000000E+00 0. -1.
         21    1    1    2  504  502 -0.21234863542E+02 -0.14321658168E+01 -0.84553581263E+02  0.87191046747E+02  0.00000000000E+00 0. -1.
<mgrwt>
<rscale>  1 0.12679835E+03</rscale>
<asrwt>0</asrwt>
<pdfrwt beam="1">  1       21 0.26334448E-02 0.12679835E+03</pdfrwt>
<pdfrwt beam="2">  1       21 0.52352278E-01 0.12679835E+03</pdfrwt>
<totfact> 0.26952955E+06</totfact>
</mgrwt>
</event>
<event>
 6    1  0.4271609E-002  0.1260824E+03  0.7546771E-02  0.1233387E+00
         21   -1    0    0  503  502  0.00000000000E+00  0.00000000000E+00  0.73208775520E+03  0.73208775520E+03  0.00000000000E+00 0. -1.
         21   -1    0    0  504  503 -0.00000000000E+00 -0.00000000000E+00 -0.13325062552E+02  0.13325062552E+02  0.00000000000E+00 0. -1.
         25    2    1    2    0    0 -0.61693911966E+01  0.15360138423E+02  0.71784622245E+03  0.72883466472E+03  0.12499109637E+03 0.  0.
          5    1    3    3  501    0  0.19696687104E+02  0.39054937566E+02  0.90578790795E+02  0.10058715113E+03  0.10000000000E+00 0.  1.
         -5    1    3    3    0  501 -0.25866078300E+02 -0.23694799143E+02  0.62726743166E+03  0.62824751359E+03  0.10000000000E+00 0.  1.
         21    1    1    2  504  502  0.61693911966E+01 -0.15360138423E+02  0.91647019026E+00  0.16578153025E+02  0.00000000000E+00 0. -1.
<mgrwt>
<rscale>  1 0.12608239E+03</rscale>
<asrwt>0</asrwt>
<pdfrwt beam="1">  1       21 0.11262885E+00 0.12608239E+03</pdfrwt>
<pdfrwt beam="2">  1       21 0.20500102E-02 0.12608239E+03</pdfrwt>
<totfact> 0.73641621E+05</totfact>
</mgrwt>
</event>
<event>
 6    1  0.4271609E-002  0.1269997E+03  0.7546771E-02  0.1231977E+00
         21   -1    0    0  504  502  0.00000000000E+00  0.00000000000E+00  0.32212439517E+03  0.32212439517E+03  0.00000000000E+00 0.  1.
         21   -1    0    0  502  503 -0.00000000000E+00 -0.00000000000E+00 -0.49862395099E+02  0.49862395099E+02  0.00000000000E+00 0.  1.
         25    2    1    2    0    0 -0.17811545920E+02 -0.13631351810E+02  0.30609432270E+03  0.33139503034E+03  0.12500346725E+03 0.  0.
          5    1    3    3  501    0 -0.46262484634E+02 -0.50059659155E+02  0.24777451366E+03  0.25697938940E+03  0.10000000000E+00 0.  1.
         -5    1    3    3    0  501  0.28450938714E+02  0.36428307345E+02  0.58319809044E+02  0.74415640941E+02  0.10000000000E+00 0.  1.
         21    1    1    2  504  503  0.17811545920E+02  0.13631351810E+02 -0.33832322624E+02  0.40591759932E+02  0.00000000000E+00 0.  1.
<mgrwt>
<rscale>  1 0.12699973E+03</rscale>
<asrwt>0</asrwt>
<pdfrwt beam="1">  1       21 0.49557598E-01 0.12699973E+03</pdfrwt>
<pdfrwt beam="2">  1       21 0.76711379E-02 0.12699973E+03</pdfrwt>
<totfact> 0.50551111E+05</totfact>
</mgrwt>
</event>
<event>
 6    1  0.4271609E-002  0.1261914E+03  0.7546771E-02  0.1233219E+00
         21   -1    0    0  504  502  0.00000000000E+00  0.00000000000E+00  0.65448471259E+02  0.65448471259E+02  0.00000000000E+00 0.  1.
         21   -1    0    0  502  503 -0.00000000000E+00 -0.00000000000E+00 -0.10720339893E+03  0.10720339893E+03  0.00000000000E+00 0.  1.
         25    2    1    2    0    0  0.90666957485E+01 -0.14777357392E+02  0.13419193604E+01  0.12619852276E+03  0.12499476443E+03 0.  0.
          5    1    3    3  501    0 -0.27471353284E+02  0.43081815657E+02 -0.19460948113E+02  0.54675923339E+02  0.10000000000E+00 0.  1.
         -5    1    3    3    0  501  0.36538049032E+02 -0.57859173049E+02  0.20802867473E+02  0.71522599422E+02  0.10000000000E+00 0.  1.
         21    1    1    2  504  503 -0.90666957485E+01  0.14777357392E+02 -0.43096847027E+02  0.46453347424E+02  0.00000000000E+00 0.  1.
<mgrwt>
<rscale>  1 0.12619139E+03</rscale>
<asrwt>0</asrwt>
<pdfrwt beam="1">  1       21 0.10068996E-01 0.12619139E+03</pdfrwt>
<pdfrwt beam="2">  1       21 0.16492830E-01 0.12619139E+03</pdfrwt>
<totfact> 0.26190436E+06</totfact>
</mgrwt>
</event>
<event>
 6    1  0.4271609E-002  0.1338458E+03  0.7546771E-02  0.1221858E+00
         21   -1    0    0  504  502  0.00000000000E+00  0.00000000000E+00  0.84849042847E+03  0.84849042847E+03  0.00000000000E+00 0.  1.
         21   -1    0    0  502  503 -0.00000000000E+00 -0.00000000000E+00 -0.11104861404E+02  0.11104861404E+02  0.00000000000E+00 0.  1.
         25    2    1    2    0    0 -0.26889419251E+02  0.39570037144E+02  0.72804824037E+03  0.74024923960E+03  0.12500347080E+03 0.  0.
          5    1    3    3  501    0 -0.27365141905E+02 -0.31181564512E+02  0.49403412715E+03  0.49577300223E+03  0.10000000000E+00 0. -1.
         -5    1    3    3    0  501  0.47572265403E+00  0.70751601656E+02  0.23401411322E+03  0.24447623737E+03  0.10000000000E+00 0. -1.
         21    1    1    2  504  503  0.26889419251E+02 -0.39570037144E+02  0.10933732669E+03  0.11934605027E+03  0.00000000000E+00 0.  1.
<mgrwt>
<rscale>  1 0.13384579E+03</rscale>
<asrwt>0</asrwt>
<pdfrwt beam="1">  1       21 0.13053694E+00 0.13384579E+03</pdfrwt>
<pdfrwt beam="2">  1       21 0.17084409E-02 0.13384579E+03</pdfrwt>
<totfact> 0.68769741E+05</totfact>
</mgrwt>
</event>
<event>
 6    1  0.4271609E-002  0.1262214E+03  0.7546771E-02  0.1233173E+00
         21   -1    0    0  504  502  0.00000000000E+00  0.00000000000E+00  0.81610241594E+02  0.81610241594E+02  0.00000000000E+00 0.  1.
         21   -1    0    0  502  503 -0.00000000000E+00 -0.00000000000E+00 -0.14430803804E+03  0.14430803804E+03  0.00000000000E+00 0.  1.
         25    2    1    2    0    0  0.15198372799E+02  0.87515059652E+01  0.31507492769E+02  0.13009440000E+03  0.12499700564E+03 0.  0.
          5    1    3    3  501    0  0.30148466787E+02  0.26564279397E+02  0.72542553541E+02  0.82927818395E+02  0.10000000000E+00 0. -1.
         -5    1    3    3    0  501 -0.14950093988E+02 -0.17812773432E+02 -0.41035060772E+02  0.47166581603E+02  0.10000000000E+00 0. -1.
         21    1    1    2  504  503 -0.15198372799E+02 -0.87515059652E+01 -0.94205289217E+02  0.95823879638E+02  0.00000000000E+00 0.  1.
<mgrwt>
<rscale>  1 0.12622136E+03</rscale>
<asrwt>0</asrwt>
<pdfrwt beam="1">  1       21 0.12555422E-01 0.12622136E+03</pdfrwt>
<pdfrwt beam="2">  1       21 0.22201236E-01 0.12622136E+03</pdfrwt>
<totfact> 0.10272243E+06</totfact>
</mgrwt>
</event>
<event>
 6    1  0.4271609E-002  0.1298151E+03  0.7546771E-02  0.1227730E+00
         21   -1    0    0  503  502  0.00000000000E+00  0.00000000000E+00  0.40419487502E+03  0.40419487502E+03  0.00000000000E+00 0.  1.
         21   -1    0    0  504  503 -0.00000000000E+00 -0.00000000000E+00 -0.69442687799E+02  0.69442687799E+02  0.00000000000E+00 0.  1.
         25    2    1    2    0    0 -0.31349727022E+02 -0.15593345167E+02  0.38843072069E+03  0.40954900882E+03  0.12500403216E+03 0.  0.
          5    1    3    3  501    0 -0.94956940622E+01 -0.67494284418E+02  0.26910108078E+03  0.27759871813E+03  0.10000000000E+00 0.  1.
         -5    1    3    3    0  501 -0.21854032960E+02  0.51900939252E+02  0.11932963991E+03  0.13195029069E+03  0.10000000000E+00 0.  1.
         21    1    1    2  504  502  0.31349727022E+02  0.15593345167E+02 -0.53678533468E+02  0.64088553994E+02  0.00000000000E+00 0.  1.
<mgrwt>
<rscale>  1 0.12981512E+03</rscale>
<asrwt>0</asrwt>
<pdfrwt beam="1">  1       21 0.62183826E-01 0.12981512E+03</pdfrwt>
<pdfrwt beam="2">  1       21 0.10683491E-01 0.12981512E+03</pdfrwt>
<totfact> 0.17653553E+05</totfact>
</mgrwt>
</event>
<event>
 6    1  0.4271609E-002  0.1288161E+03  0.7546771E-02  0.1229223E+00
         21   -1    0    0  504  502  0.00000000000E+00  0.00000000000E+00  0.24757514332E+02  0.24757514332E+02  0.00000000000E+00 0. -1.
         21   -1    0    0  502  503 -0.00000000000E+00 -0.00000000000E+00 -0.36645184171E+03  0.36645184171E+03  0.00000000000E+00 0. -1.
         25    2    1    2    0    0 -0.11926534392E+02  0.28749671425E+02 -0.15318647052E+03  0.20014916153E+03  0.12499922512E+03 0.  0.
          5    1    3    3  501    0  0.67852221142E+01  0.47957918804E+01 -0.16668393644E+03  0.16689093303E+03  0.10000000000E+00 0. -1.
         -5    1    3    3    0  501 -0.18711756506E+02  0.23953879545E+02  0.13497465922E+02  0.33258228502E+02  0.10000000000E+00 0. -1.
         21    1    1    2  504  503  0.11926534392E+02 -0.28749671425E+02 -0.18850785685E+03  0.19106019451E+03  0.00000000000E+00 0. -1.
<mgrwt>
<rscale>  1 0.12881612E+03</rscale>
<asrwt>0</asrwt>
<pdfrwt beam="1">  1       21 0.38088485E-02 0.12881612E+03</pdfrwt>
<pdfrwt beam="2">  1       21 0.56377205E-01 0.12881612E+03</pdfrwt>
<totfact> 0.12593643E+06</totfact>
</mgrwt>
</event>
<event>
 6    1  0.4271609E-002  0.1323362E+03  0.7546771E-02  0.1224030E+00
         21   -1    0    0  504  502  0.00000000000E+00  0.00000000000E+00  0.47214644476E+01  0.47214644476E+01  0.00000000000E+00 0. -1.
         21   -1    0    0  502  503 -0.00000000000E+00 -0.00000000000E+00 -0.25364381168E+04  0.25364381168E+04  0.00000000000E+00 0.  1.
         25    2    1    2    0    0  0.18870234735E+01 -0.43399913478E+02 -0.98700371104E+03  0.99583593087E+03  0.12500304902E+03 0.  0.
          5    1    3    3  501    0 -0.57024007536E+02 -0.33703921305E+02 -0.66939829327E+03  0.67266765700E+03  0.10000000000E+00 0.  1.
         -5    1    3    3    0  501  0.58911031009E+02 -0.96959921728E+01 -0.31760541777E+03  0.32316827387E+03  0.10000000000E+00 0.  1.
         21    1    1    2  504  503 -0.18870234735E+01  0.43399913478E+02 -0.15447129414E+04  0.15453236504E+04  0.00000000000E+00 0.  1.
<mgrwt>
<rscale>  1 0.13233622E+03</rscale>
<asrwt>0</asrwt>
<pdfrwt beam="1">  1       21 0.72637855E-03 0.13233622E+03</pdfrwt>
<pdfrwt beam="2">  1       21 0.39022157E+00 0.13233622E+03</pdfrwt>
<totfact> 0.67100732E+04</totfact>
</mgrwt>
</event>
<event>
 6    1  0.4271609E-002  0.1276045E+03  0.7546771E-02  0.1231054E+00
         21   -1    0    0  503  502  0.00000000000E+00  0.00000000000E+00  0.12314924809E+03  0.12314924809E+03  0.00000000000E+00 0. -1.
         21   -1    0    0  504  503 -0.00000000000E+00 -0.00000000000E+00 -0.48494596433E+02  0.48494596433E+02  0.00000000000E+00 0. -1.
         25    2    1    2    0    0  0.25599378318E+02  0.16541228588E+01  0.70094365145E+02  0.14558889286E+03  0.12499936563E+03 0.  0.
          5    1    3    3  501    0  0.47170539553E+02  0.36109408312E+02 -0.56011983212E+01  0.59668522631E+02  0.10000000000E+00 0. -1.
         -5    1    3    3    0  501 -0.21571161235E+02 -0.34455285453E+02  0.75695563466E+02  0.85920370234E+02  0.10000000000E+00 0. -1.
         21    1    1    2  504  502 -0.25599378318E+02 -0.16541228588E+01  0.45602865099E+01  0.26054951655E+02  0.00000000000E+00 0.  1.
<mgrwt>
<rscale>  1 0.12760449E+03</rscale>
<asrwt>0</asrwt>
<pdfrwt beam="1">  1       21 0.18946038E-01 0.12760449E+03</pdfrwt>
<pdfrwt beam="2">  1       21 0.74607072E-02 0.12760449E+03</pdfrwt>
<totfact> 0.34187967E+06</totfact>
</mgrwt>
</event>
<event>
 6    1  0.4271609E-002  0.1261311E+03  0.7546771E-02  0.1233312E+00
         21   -1    0    0  504  502  0.00000000000E+00  0.00000000000E+00  0.18092098325E+03  0.18092098325E+03  0.00000000000E+00 0.  1.
         21   -1    0    0  502  503 -0.00000000000E+00 -0.00000000000E+00 -0.32214665137E+02  0.32214665137E+02  0.00000000000E+00 0.  1.
         25    2    1    2    0    0 -0.16803751188E+02 -0.11294148608E+01  0.15030789451E+03  0.19621800438E+03  0.12500160182E+03 0.  0.
          5    1    3    3  501    0 -0.27376039172E+02 -0.46527694591E+02  0.19574863458E+02  0.57423507069E+02  0.10000000000E+00 0. -1.
         -5    1    3    3    0  501  0.10572287983E+02  0.45398279730E+02  0.13073303105E+03  0.13879449731E+03  0.10000000000E+00 0. -1.
         21    1    1    2  504  503  0.16803751188E+02  0.11294148608E+01 -0.16015763937E+01  0.16917644011E+02  0.00000000000E+00 0.  1.
<mgrwt>
<rscale>  1 0.12613105E+03</rscale>
<asrwt>0</asrwt>
<pdfrwt beam="1">  1       21 0.27833997E-01 0.12613105E+03</pdfrwt>
<pdfrwt beam="2">  1       21 0.49561024E-02 0.12613105E+03</pdfrwt>
<totfact> 0.33270660E+06</totfact>
</mgrwt>
</event>
<event>
 6    1  0.4271609E-002  0.1262359E+03  0.7546771E-02  0.1233150E+00
         21   -1    0    0  504  502  0.00000000000E+00  0.00000000000E+00  0.62222435367E+02  0.62222435367E+02  0.00000000000E+00 0. -1.
         21   -1    0    0  502  503 -0.00000000000E+00 -0.00000000000E+00 -0.95088929767E+02  0.95088929767E+02  0.00000000000E+00 0. -1.
         25    2    1    2    0    0 -0.12500946784E+02  0.12424286830E+02 -0.75467536606E+01  0.12646131092E+03  0.12499949238E+03 0.  0.
          5    1    3    3  501    0  0.48652113920E+02  0.27044756064E+02 -0.25274898376E+02  0.61133276596E+02  0.10000000000E+00 0. -1.
         -5    1    3    3    0  501 -0.61153060704E+02 -0.14620469234E+02  0.17728144716E+02  0.65328034327E+02  0.10000000000E+00 0. -1.
         21    1    1    2  504  503  0.12500946784E+02 -0.12424286830E+02 -0.25319740739E+02  0.30850054211E+02  0.00000000000E+00 0. -1.
<mgrwt>
<rscale>  1 0.12623593E+03</rscale>
<asrwt>0</asrwt>
<pdfrwt beam="1">  1       21 0.95726824E-02 0.12623593E+03</pdfrwt>
<pdfrwt beam="2">  1       21 0.14629066E-01 0.12623593E+03</pdfrwt>
<totfact> 0.35528825E+06</totfact>
</mgrwt>
</event>
<event>
 6    1  0.4271609E-002  0.1505665E+03  0.7546771E-02  0.1199779E+00
         21   -1    0    0  504  502  0.00000000000E+00  0.00000000000E+00  0.60109217932E+03  0.60109217932E+03  0.00000000000E+00 0. -1.
         21   -1    0    0  502  503 -0.00000000000E+00 -0.00000000000E+00 -0.15353839113E+03  0.15353839113E+03  0.00000000000E+00 0.  1.
         25    2    1    2    0    0  0.73944508545E+02  0.39713005390E+02  0.57922935005E+03  0.59847882779E+03  0.12500141684E+03 0.  0.
          5    1    3    3  501    0 -0.22340298490E+02  0.45439282222E+02  0.14260764328E+03  0.15132999447E+03  0.10000000000E+00 0. -1.
         -5    1    3    3    0  501  0.96284807035E+02 -0.57262768328E+01  0.43662170678E+03  0.44714883332E+03  0.10000000000E+00 0. -1.
         21    1    1    2  504  503 -0.73944508545E+02 -0.39713005390E+02 -0.13167556187E+03  0.15615174266E+03  0.00000000000E+00 0.  1.
<mgrwt>
<rscale>  1 0.15056649E+03</rscale>
<asrwt>0</asrwt>
<pdfrwt beam="1">  1       21 0.92475719E-01 0.15056649E+03</pdfrwt>
<pdfrwt beam="2">  1       21 0.23621291E-01 0.15056649E+03</pdfrwt>
<totfact> 0.17120549E+04</totfact>
</mgrwt>
</event>
<event>
 6    1  0.4271609E-002  0.1263673E+03  0.7546771E-02  0.1232948E+00
         21   -1    0    0  503  502  0.00000000000E+00  0.00000000000E+00  0.22764490975E+03  0.22764490975E+03  0.00000000000E+00 0.  1.
         21   -1    0    0  504  503 -0.00000000000E+00 -0.00000000000E+00 -0.23397066250E+02  0.23397066250E+02  0.00000000000E+00 0.  1.
         25    2    1    2    0    0  0.18500504521E+02  0.12560460781E+01  0.18715790026E+03  0.22582467084E+03  0.12499942405E+03 0.  0.
          5    1    3    3  501    0  0.47610952305E+02  0.49917104253E+02  0.11427668908E+03  0.13348292678E+03  0.10000000000E+00 0.  1.
         -5    1    3    3    0  501 -0.29110447784E+02 -0.48661058175E+02  0.72881211181E+02  0.92341744061E+02  0.10000000000E+00 0.  1.
         21    1    1    2  504  502 -0.18500504521E+02 -0.12560460781E+01  0.17089943239E+02  0.25217305153E+02  0.00000000000E+00 0.  1.
<mgrwt>
<rscale>  1 0.12636733E+03</rscale>
<asrwt>0</asrwt>
<pdfrwt beam="1">  1       21 0.35022292E-01 0.12636733E+03</pdfrwt>
<pdfrwt beam="2">  1       21 0.35995488E-02 0.12636733E+03</pdfrwt>
<totfact> 0.36314257E+06</totfact>
</mgrwt>
</event>
<event>
 6    1  0.4271609E-002  0.2323737E+03  0.7546771E-02  0.1124980E+00
         21   -1    0    0  503  502  0.00000000000E+00  0.00000000000E+00  0.17688399450E+03  0.17688399450E+03  0.00000000000E+00 0.  1.
         21   -1    0    0  504  503 -0.00000000000E+00 -0.00000000000E+00 -0.26040527013E+03  0.26040527013E+03  0.00000000000E+00 0.  1.
         25    2    1    2    0    0  0.12433882481E+03  0.15136071478E+03 -0.30574160024E+02  0.23437645975E+03  0.12500934482E+03 0.  0.
          5    1    3    3  501    0  0.34019067356E+02 -0.19393625645E+02 -0.34369689729E+01  0.39309444350E+02  0.10000000000E+00 0. -1.
         -5    1    3    3    0  501  0.90319757452E+02  0.17075434042E+03 -0.27137191051E+02  0.19506701540E+03  0.10000000000E+00 0. -1.
         21    1    1    2  504  502 -0.12433882481E+03 -0.15136071478E+03 -0.52947115608E+02  0.20291280488E+03  0.00000000000E+00 0.  1.
<mgrwt>
<rscale>  1 0.23237372E+03</rscale>
<asrwt>0</asrwt>
<pdfrwt beam="1">  1       21 0.27212922E-01 0.23237372E+03</pdfrwt>
<pdfrwt beam="2">  1       21 0.40062349E-01 0.23237372E+03</pdfrwt>
<totfact> 0.76039566E+04</totfact>
</mgrwt>
</event>
<event>
 6    1  0.4271609E-002  0.1265251E+03  0.7546771E-02  0.1232705E+00
         21   -1    0    0  504  502  0.00000000000E+00  0.00000000000E+00  0.27677437625E+03  0.27677437625E+03  0.00000000000E+00 0.  1.
         21   -1    0    0  502  503 -0.00000000000E+00 -0.00000000000E+00 -0.21316656570E+02  0.21316656570E+02  0.00000000000E+00 0.  1.
         25    2    1    2    0    0  0.18004889943E+02 -0.77517734233E+01  0.24531019614E+03  0.27601755808E+03  0.12499733591E+03 0.  0.
          5    1    3    3  501    0 -0.66322754347E+01  0.20969165063E+02  0.23603449595E+03  0.23705692616E+03  0.10000000000E+00 0. -1.
         -5    1    3    3    0  501  0.24637165378E+02 -0.28720938486E+02  0.92757001815E+01  0.38960631915E+02  0.10000000000E+00 0. -1.
         21    1    1    2  504  503 -0.18004889943E+02  0.77517734233E+01  0.10147523542E+02  0.22073474740E+02  0.00000000000E+00 0.  1.
<mgrwt>
<rscale>  1 0.12652510E+03</rscale>
<asrwt>0</asrwt>
<pdfrwt beam="1">  1       21 0.42580671E-01 0.12652510E+03</pdfrwt>
<pdfrwt beam="2">  1       21 0.32794858E-02 0.12652510E+03</pdfrwt>
<totfact> 0.28708763E+06</totfact>
</mgrwt>
</event>
<event>
 6    1  0.4271609E-002  0.1296376E+03  0.7546771E-02  0.1227995E+00
         21   -1    0    0  504  502  0.00000000000E+00  0.00000000000E+00  0.14293251114E+04  0.14293251114E+04  0.00000000000E+00 0.  1.
         21   -1    0    0  502  503 -0.00000000000E+00 -0.00000000000E+00 -0.18496423857E+02  0.18496423857E+02  0.00000000000E+00 0. -1.
         25    2    1    2    0    0 -0.25641663891E+02 -0.22841384364E+02  0.14073475542E+04  0.14133057120E+04  0.12500669345E+03 0.  0.
          5    1    3    3  501    0 -0.24775152525E+02  0.47552827600E+02  0.82058434564E+03  0.82233433462E+03  0.10000000000E+00 0.  1.
         -5    1    3    3    0  501 -0.86651136562E+00 -0.70394211964E+02  0.58676320856E+03  0.59097137734E+03  0.10000000000E+00 0.  1.
         21    1    1    2  504  503  0.25641663891E+02  0.22841384364E+02  0.34811333245E+01  0.34515823269E+02  0.00000000000E+00 0. -1.
<mgrwt>
<rscale>  1 0.12963756E+03</rscale>
<asrwt>0</asrwt>
<pdfrwt beam="1">  1       21 0.21989608E+00 0.12963756E+03</pdfrwt>
<pdfrwt beam="2">  1       21 0.28456048E-02 0.12963756E+03</pdfrwt>
<totfact> 0.72788083E+04</totfact>
</mgrwt>
</event>
<event>
 6    1  0.4271609E-002  0.1464489E+03  0.7546771E-02  0.1204906E+00
         21   -1    0    0  503  502  0.00000000000E+00  0.00000000000E+00  0.24142611928E+03  0.24142611928E+03  0.00000000000E+00 0. -1.
         21   -1    0    0  504  503 -0.00000000000E+00 -0.00000000000E+00 -0.71668897351E+02  0.71668897351E+02  0.00000000000E+00 0. -1.
         25    2    1    2    0    0 -0.89181258289E+00  0.76305094694E+02  0.18431034150E+03  0.23540939315E+03  0.12499607031E+03 0.  0.
          5    1    3    3  501    0 -0.56551318096E+02  0.53745798082E+02  0.14174595281E+03  0.16179798369E+03  0.10000000000E+00 0.  1.
         -5    1    3    3    0  501  0.55659505513E+02  0.22559296612E+02  0.42564388698E+02  0.73611409461E+02  0.10000000000E+00 0.  1.
         21    1    1    2  504  502  0.89181258289E+00 -0.76305094694E+02 -0.14553119574E+02  0.77685623479E+02  0.00000000000E+00 0. -1.
<mgrwt>
<rscale>  1 0.14644890E+03</rscale>
<asrwt>0</asrwt>
<pdfrwt beam="1">  1       21 0.37142480E-01 0.14644890E+03</pdfrwt>
<pdfrwt beam="2">  1       21 0.11025984E-01 0.14644890E+03</pdfrwt>
<totfact> 0.48046091E+05</totfact>
</mgrwt>
</event>
<event>
 6    1  0.4271609E-002  0.1409783E+03  0.7546771E-02  0.1212019E+00
         21   -1    0    0  504  502  0.00000000000E+00  0.00000000000E+00  0.10492417845E+03  0.10492417845E+03  0.00000000000E+00 0. -1.
         21   -1    0    0  502  503 -0.00000000000E+00 -0.00000000000E+00 -0.23535186739E+03  0.23535186739E+03  0.00000000000E+00 0.  1.
         25    2    1    2    0    0  0.68240562948E+01  0.64832926602E+02  0.49095682257E+02  0.14928254615E+03  0.12500006581E+03 0.  0.
          5    1    3    3  501    0  0.20292440751E+01 -0.29925925716E+02  0.45295264431E+02  0.54326327331E+02  0.10000000000E+00 0.  1.
         -5    1    3    3    0  501  0.47948122198E+01  0.94758852318E+02  0.38004178263E+01  0.94956218819E+02  0.10000000000E+00 0.  1.
         21    1    1    2  504  503 -0.68240562948E+01 -0.64832926602E+02 -0.17952337120E+03  0.19099349969E+03  0.00000000000E+00 0.  1.
<mgrwt>
<rscale>  1 0.14097834E+03</rscale>
<asrwt>0</asrwt>
<pdfrwt beam="1">  1       21 0.16142181E-01 0.14097834E+03</pdfrwt>
<pdfrwt beam="2">  1       21 0.36207979E-01 0.14097834E+03</pdfrwt>
<totfact> 0.25550716E+05</totfact>
</mgrwt>
</event>
<event>
 6    1  0.4271609E-002  0.1260356E+03  0.7546771E-02  0.1233460E+00
         21   -1    0    0  504  502  0.00000000000E+00  0.00000000000E+00  0.20717741542E+02  0.20717741542E+02  0.00000000000E+00 0.  1.
         21   -1    0    0  502  503 -0.00000000000E+00 -0.00000000000E+00 -0.32707520594E+03  0.32707520594E+03  0.00000000000E+00 0.  1.
         25    2    1    2    0    0 -0.15405086366E+02 -0.47770920273E+01 -0.17618103814E+03  0.21662115460E+03  0.12499931650E+03 0.  0.
          5    1    3    3  501    0 -0.45541582050E+02 -0.29657128970E+02 -0.16816351142E+03  0.17672735376E+03  0.10000000000E+00 0.  1.
         -5    1    3    3    0  501  0.30136495684E+02  0.24880036943E+02 -0.80175267142E+01  0.39893800835E+02  0.10000000000E+00 0.  1.
         21    1    1    2  504  503  0.15405086366E+02  0.47770920273E+01 -0.13017642626E+03  0.13117179289E+03  0.00000000000E+00 0.  1.
<mgrwt>
<rscale>  1 0.12603558E+03</rscale>
<asrwt>0</asrwt>
<pdfrwt beam="1">  1       21 0.31873449E-02 0.12603558E+03</pdfrwt>
<pdfrwt beam="2">  1       21 0.50319261E-01 0.12603558E+03</pdfrwt>
<totfact> 0.21401334E+06</totfact>
</mgrwt>
</event>
<event>
 6    1  0.4271609E-002  0.1283624E+03  0.7546771E-02  0.1229906E+00
         21   -1    0    0  504  502  0.00000000000E+00  0.00000000000E+00  0.19558050643E+03  0.19558050643E+03  0.00000000000E+00 0. -1.
         21   -1    0    0  502  503 -0.00000000000E+00 -0.00000000000E+00 -0.58239180357E+02  0.58239180357E+02  0.00000000000E+00 0. -1.
         25    2    1    2    0    0  0.77189110479E+01  0.28133575370E+02  0.16804818921E+03  0.21146415475E+03  0.12500326076E+03 0.  0.
          5    1    3    3  501    0 -0.33573948367E+02  0.61967570736E+02  0.67318292378E+02  0.97462568818E+02  0.10000000000E+00 0.  1.
         -5    1    3    3    0  501  0.41292859415E+02 -0.33833995366E+02  0.10072989683E+03  0.11400158594E+03  0.10000000000E+00 0.  1.
         21    1    1    2  504  503 -0.77189110479E+01 -0.28133575370E+02 -0.30706863129E+02  0.42355532036E+02  0.00000000000E+00 0. -1.
<mgrwt>
<rscale>  1 0.12836236E+03</rscale>
<asrwt>0</asrwt>
<pdfrwt beam="1">  1       21 0.30089308E-01 0.12836236E+03</pdfrwt>
<pdfrwt beam="2">  1       21 0.89598740E-02 0.12836236E+03</pdfrwt>
<totfact> 0.10438379E+06</totfact>
</mgrwt>
</event>
<event>
 6    1  0.4271609E-002  0.1264879E+03  0.7546771E-02  0.1232762E+00
         21   -1    0    0  504  502  0.00000000000E+00  0.00000000000E+00  0.48945578353E+03  0.48945578353E+03  0.00000000000E+00 0.  1.
         21   -1    0    0  502  503 -0.00000000000E+00 -0.00000000000E+00 -0.11053613218E+02  0.11053613218E+02  0.00000000000E+00 0.  1.
         25    2    1    2    0    0  0.18307061865E+02  0.62569075470E+01  0.43442707754E+03  0.45246664297E+03  0.12499951958E+03 0.  0.
          5    1    3    3  501    0 -0.36158845758E+02  0.27735050868E+02  0.71087500064E+02  0.84440143525E+02  0.10000000000E+00 0. -1.
         -5    1    3    3    0  501  0.54465907623E+02 -0.21478143321E+02  0.36333957748E+03  0.36802649945E+03  0.10000000000E+00 0. -1.
         21    1    1    2  504  503 -0.18307061865E+02 -0.62569075470E+01  0.43975092765E+02  0.48042753771E+02  0.00000000000E+00 0. -1.
<mgrwt>
<rscale>  1 0.12648785E+03</rscale>
<asrwt>0</asrwt>
<pdfrwt beam="1">  1       21 0.75300873E-01 0.12648785E+03</pdfrwt>
<pdfrwt beam="2">  1       21 0.17005563E-02 0.12648785E+03</pdfrwt>
<totfact> 0.25108138E+06</totfact>
</mgrwt>
</event>
<event>
 6    1  0.4271609E-002  0.1413200E+03  0.7546771E-02  0.1211564E+00
         21   -1    0    0  504  502  0.00000000000E+00  0.00000000000E+00  0.17192472983E+04  0.17192472983E+04  0.00000000000E+00 0.  1.
         21   -1    0    0  502  503 -0.00000000000E+00 -0.00000000000E+00 -0.14901266378E+02  0.14901266378E+02  0.00000000000E+00 0.  1.
         25    2    1    2    0    0  0.43674435716E+02  0.49391662571E+02  0.16243412231E+04  0.16304771506E+04  0.12499734743E+03 0.  0.
          5    1    3    3  501    0 -0.15154271471E+02  0.40419835378E+01  0.11699195519E+04  0.11700246825E+04  0.10000000000E+00 0. -1.
         -5    1    3    3    0  501  0.58828707188E+02  0.45349679033E+02  0.45442167114E+03  0.46045246810E+03  0.10000000000E+00 0. -1.
         21    1    1    2  504  503 -0.43674435716E+02 -0.49391662571E+02  0.80004808865E+02  0.10367141413E+03  0.00000000000E+00 0.  1.
<mgrwt>
<rscale>  1 0.14131995E+03</rscale>
<asrwt>0</asrwt>
<pdfrwt beam="1">  1       21 0.26449943E+00 0.14131995E+03</pdfrwt>
<pdfrwt beam="2">  1       21 0.22925039E-02 0.14131995E+03</pdfrwt>
<totfact> 0.56354217E+04</totfact>
</mgrwt>
</event>
<event>
 6    1  0.4271609E-002  0.1266752E+03  0.7546771E-02  0.1232474E+00
         21   -1    0    0  504  502  0.00000000000E+00  0.00000000000E+00  0.26616828538E+03  0.26616828538E+03  0.00000000000E+00 0. -1.
         21   -1    0    0  502  503 -0.00000000000E+00 -0.00000000000E+00 -0.21297466343E+02  0.21297466343E+02  0.00000000000E+00 0. -1.
         25    2    1    2    0    0 -0.94515604394E+01 -0.18232628452E+02  0.18535536077E+03  0.22450663397E+03  0.12499943279E+03 0.  0.
          5    1    3    3  501    0  0.49672997235E+02  0.17454859688E+00  0.31915822478E+02  0.59042923758E+02  0.10000000000E+00 0.  1.
         -5    1    3    3    0  501 -0.59124557674E+02 -0.18407177049E+02  0.15343953829E+03  0.16546371021E+03  0.10000000000E+00 0.  1.
         21    1    1    2  504  503  0.94515604394E+01  0.18232628452E+02  0.59515458264E+02  0.62959117746E+02  0.00000000000E+00 0.  1.
<mgrwt>
<rscale>  1 0.12667525E+03</rscale>
<asrwt>0</asrwt>
<pdfrwt beam="1">  1       21 0.40948965E-01 0.12667525E+03</pdfrwt>
<pdfrwt beam="2">  1       21 0.32765335E-02 0.12667525E+03</pdfrwt>
<totfact> 0.31101855E+06</totfact>
</mgrwt>
</event>
<event>
 6    1  0.4271609E-002  0.1298590E+03  0.7546771E-02  0.1227665E+00
         21   -1    0    0  503  502  0.00000000000E+00  0.00000000000E+00  0.34080639119E+03  0.34080639119E+03  0.00000000000E+00 0.  1.
         21   -1    0    0  504  503 -0.00000000000E+00 -0.00000000000E+00 -0.20054957436E+03  0.20054957436E+03  0.00000000000E+00 0.  1.
         25    2    1    2    0    0 -0.32544306798E+02 -0.13398550751E+02  0.32673006915E+03  0.35159051321E+03  0.12499879130E+03 0.  0.
          5    1    3    3  501    0 -0.35104847967E+02 -0.62021418940E+02  0.25590399475E+03  0.26564237480E+03  0.10000000000E+00 0. -1.
         -5    1    3    3    0  501  0.25605411687E+01  0.48622868189E+02  0.70826074400E+02  0.85948138414E+02  0.10000000000E+00 0. -1.
         21    1    1    2  504  502  0.32544306798E+02  0.13398550751E+02 -0.18647325232E+03  0.18976545233E+03  0.00000000000E+00 0.  1.
<mgrwt>
<rscale>  1 0.12985897E+03</rscale>
<asrwt>0</asrwt>
<pdfrwt beam="1">  1       21 0.52431752E-01 0.12985897E+03</pdfrwt>
<pdfrwt beam="2">  1       21 0.30853781E-01 0.12985897E+03</pdfrwt>
<totfact> 0.36035439E+04</totfact>
</mgrwt>
</event>
<event>
 6    1  0.4271609E-002  0.1259158E+03  0.7546771E-02  0.1233645E+00
         21   -1    0    0  503  502  0.00000000000E+00  0.00000000000E+00  0.46027010349E+03  0.46027010349E+03  0.00000000000E+00 0. -1.
         21   -1    0    0  504  503 -0.00000000000E+00 -0.00000000000E+00 -0.13072138633E+02  0.13072138633E+02  0.00000000000E+00 0. -1.
         25    2    1    2    0    0 -0.76026319385E+01  0.13116030803E+02  0.43770241084E+03  0.45545381507E+03  0.12499978770E+03 0.  0.
          5    1    3    3  501    0  0.25449550096E+02  0.45662825258E+02  0.36820603098E+03  0.37189845988E+03  0.10000000000E+00 0. -1.
         -5    1    3    3    0  501 -0.33052182035E+02 -0.32546794455E+02  0.69496379859E+02  0.83555355185E+02  0.10000000000E+00 0. -1.
         21    1    1    2  504  502  0.76026319385E+01 -0.13116030803E+02  0.94955540121E+01  0.17888427053E+02  0.00000000000E+00 0. -1.
<mgrwt>
<rscale>  1 0.12591575E+03</rscale>
<asrwt>0</asrwt>
<pdfrwt beam="1">  1       21 0.70810773E-01 0.12591575E+03</pdfrwt>
<pdfrwt beam="2">  1       21 0.20110986E-02 0.12591575E+03</pdfrwt>
<totfact> 0.21941208E+06</totfact>
</mgrwt>
</event>
<event>
 6    1  0.4271609E-002  0.1259309E+03  0.7546771E-02  0.1233622E+00
         21   -1    0    0  504  502  0.00000000000E+00  0.00000000000E+00  0.46339732447E+03  0.46339732447E+03  0.00000000000E+00 0.  1.
         21   -1    0    0  502  503 -0.00000000000E+00 -0.00000000000E+00 -0.13619584512E+02  0.13619584512E+02  0.00000000000E+00 0.  1.
         25    2    1    2    0    0  0.15232316623E+02 -0.14317839098E+01  0.44250792240E+03  0.46007808605E+03  0.12499804160E+03 0.  0.
          5    1    3    3  501    0 -0.43099091416E+02 -0.96070937064E+01  0.33134439499E+03  0.33427375910E+03  0.10000000000E+00 0.  1.
         -5    1    3    3    0  501  0.58331408039E+02  0.81753097966E+01  0.11116352741E+03  0.12580432695E+03  0.10000000000E+00 0.  1.
         21    1    1    2  504  503 -0.15232316623E+02  0.14317839098E+01  0.72698175561E+01  0.16938822928E+02  0.00000000000E+00 0.  1.
<mgrwt>
<rscale>  1 0.12593087E+03</rscale>
<asrwt>0</asrwt>
<pdfrwt beam="1">  1       21 0.71291884E-01 0.12593087E+03</pdfrwt>
<pdfrwt beam="2">  1       21 0.20953211E-02 0.12593087E+03</pdfrwt>
<totfact> 0.20233579E+06</totfact>
</mgrwt>
</event>
<event>
 6    1  0.4271609E-002  0.1273035E+03  0.7546771E-02  0.1231513E+00
         21   -1    0    0  504  502  0.00000000000E+00  0.00000000000E+00  0.20104787610E+03  0.20104787610E+03  0.00000000000E+00 0.  1.
         21   -1    0    0  502  503 -0.00000000000E+00 -0.00000000000E+00 -0.42513581983E+02  0.42513581983E+02  0.00000000000E+00 0.  1.
         25    2    1    2    0    0  0.13497687809E+02  0.19982602062E+02  0.17349012242E+03  0.21518596228E+03  0.12499873529E+03 0.  0.
          5    1    3    3  501    0 -0.33278181036E+01  0.61277755248E+02  0.37144904171E+02  0.71734172940E+02  0.10000000000E+00 0. -1.
         -5    1    3    3    0  501  0.16825505913E+02 -0.41295153186E+02  0.13634521825E+03  0.14345178934E+03  0.10000000000E+00 0. -1.
         21    1    1    2  504  503 -0.13497687809E+02 -0.19982602062E+02 -0.14955828307E+02  0.28375495797E+02  0.00000000000E+00 0.  1.
<mgrwt>
<rscale>  1 0.12730348E+03</rscale>
<asrwt>0</asrwt>
<pdfrwt beam="1">  1       21 0.30930442E-01 0.12730348E+03</pdfrwt>
<pdfrwt beam="2">  1       21 0.65405512E-02 0.12730348E+03</pdfrwt>
<totfact> 0.17000155E+06</totfact>
</mgrwt>
</event>
<event>
 6    1  0.4271609E-002  0.1265707E+03  0.7546771E-02  0.1232635E+00
         21   -1    0    0  504  502  0.00000000000E+00  0.00000000000E+00  0.26548288882E+03  0.26548288882E+03  0.00000000000E+00 0. -1.
         21   -1    0    0  502  503 -0.00000000000E+00 -0.00000000000E+00 -0.91640796192E+02  0.91640796192E+02  0.00000000000E+00 0. -1.
         25    2    1    2    0    0  0.81347662777E+01 -0.18124711225E+02  0.24903324043E+03  0.27935230026E+03  0.12500189296E+03 0.  0.
          5    1    3    3  501    0  0.41628170238E+02 -0.48456528898E+02  0.21045684246E+03  0.21993870121E+03  0.10000000000E+00 0. -1.
         -5    1    3    3    0  501 -0.33493403960E+02  0.30331817674E+02  0.38576397969E+02  0.59413599053E+02  0.10000000000E+00 0. -1.
         21    1    1    2  504  503 -0.81347662777E+01  0.18124711225E+02 -0.75191147799E+02  0.77771384754E+02  0.00000000000E+00 0. -1.
<mgrwt>
<rscale>  1 0.12657074E+03</rscale>
<asrwt>0</asrwt>
<pdfrwt beam="1">  1       21 0.40843521E-01 0.12657074E+03</pdfrwt>
<pdfrwt beam="2">  1       21 0.14098584E-01 0.12657074E+03</pdfrwt>
<totfact> 0.25747526E+05</totfact>
</mgrwt>
</event>
<event>
 6    1  0.4271609E-002  0.1359028E+03  0.7546771E-02  0.1218951E+00
         21   -1    0    0  504  502  0.00000000000E+00  0.00000000000E+00  0.78649562915E+03  0.78649562915E+03  0.00000000000E+00 0.  1.
         21   -1    0    0  502  503 -0.00000000000E+00 -0.00000000000E+00 -0.27751162850E+02  0.27751162850E+02  0.00000000000E+00 0. -1.
         25    2    1    2    0    0  0.17206007535E+02 -0.50473595589E+02  0.74749314438E+03  0.75974704162E+03  0.12500374312E+03 0.  0.
          5    1    3    3  501    0 -0.14629816957E+02 -0.32844863470E+02  0.51537367129E+02  0.62840487038E+02  0.10000000000E+00 0.  1.
         -5    1    3    3    0  501  0.31835824492E+02 -0.17628732119E+02  0.69595577726E+03  0.69690655458E+03  0.10000000000E+00 0.  1.
         21    1    1    2  504  503 -0.17206007535E+02  0.50473595589E+02  0.11251321913E+02  0.54499750383E+02  0.00000000000E+00 0. -1.
<mgrwt>
<rscale>  1 0.13590278E+03</rscale>
<asrwt>0</asrwt>
<pdfrwt beam="1">  1       21 0.12099931E+00 0.13590278E+03</pdfrwt>
<pdfrwt beam="2">  1       21 0.42694103E-02 0.13590278E+03</pdfrwt>
<totfact> 0.18544499E+05</totfact>
</mgrwt>
</event>
<event>
 6    1  0.4271609E-002  0.1319536E+03  0.7546771E-02  0.1224585E+00
         21   -1    0    0  503  502  0.00000000000E+00  0.00000000000E+00  0.32825908708E+03  0.32825908708E+03  0.00000000000E+00 0.  1.
         21   -1    0    0  504  503 -0.00000000000E+00 -0.00000000000E+00 -0.25122798989E+02  0.25122798989E+02  0.00000000000E+00 0.  1.
         25    2    1    2    0    0  0.17171681830E+02 -0.38616863452E+02  0.17993290454E+03  0.22313134858E+03  0.12500247909E+03 0.  0.
          5    1    3    3  501    0 -0.44152147564E+02 -0.10648107233E+02  0.20097559691E+02  0.49666047031E+02  0.10000000000E+00 0. -1.
         -5    1    3    3    0  501  0.61323829393E+02 -0.27968756219E+02  0.15983534485E+03  0.17346530154E+03  0.10000000000E+00 0. -1.
         21    1    1    2  504  502 -0.17171681830E+02  0.38616863452E+02  0.12320338354E+03  0.13025053749E+03  0.00000000000E+00 0.  1.
<mgrwt>
<rscale>  1 0.13195358E+03</rscale>
<asrwt>0</asrwt>
<pdfrwt beam="1">  1       21 0.50501395E-01 0.13195358E+03</pdfrwt>
<pdfrwt beam="2">  1       21 0.38650462E-02 0.13195358E+03</pdfrwt>
<totfact> 0.15465707E+06</totfact>
</mgrwt>
</event>
<event>
 6    1  0.4271609E-002  0.1372295E+03  0.7546771E-02  0.1217106E+00
         21   -1    0    0  503  502  0.00000000000E+00  0.00000000000E+00  0.78622590506E+03  0.78622590506E+03  0.00000000000E+00 0.  1.
         21   -1    0    0  504  503 -0.00000000000E+00 -0.00000000000E+00 -0.12050815014E+02  0.12050815014E+02  0.00000000000E+00 0.  1.
         25    2    1    2    0    0  0.33900272133E+01 -0.56529223916E+02  0.57989599698E+03  0.59591216922E+03  0.12499960267E+03 0.  0.
          5    1    3    3  501    0 -0.32741584267E+02 -0.80468992226E+02  0.46639179281E+03  0.47441393788E+03  0.10000000000E+00 0. -1.
         -5    1    3    3    0  501  0.36131611481E+02  0.23939768310E+02  0.11350420417E+03  0.12149823134E+03  0.10000000000E+00 0. -1.
         21    1    1    2  504  502 -0.33900272133E+01  0.56529223916E+02  0.19427909306E+03  0.20236455085E+03  0.00000000000E+00 0.  1.
<mgrwt>
<rscale>  1 0.13722954E+03</rscale>
<asrwt>0</asrwt>
<pdfrwt beam="1">  1       21 0.12095779E+00 0.13722954E+03</pdfrwt>
<pdfrwt beam="2">  1       21 0.18539722E-02 0.13722954E+03</pdfrwt>
<totfact> 0.72775222E+05</totfact>
</mgrwt>
</event>
<event>
 6    1  0.4271609E-002  0.1395650E+03  0.7546771E-02  0.1213916E+00
         21   -1    0    0  503  502  0.00000000000E+00  0.00000000000E+00  0.10487895037E+04  0.10487895037E+04  0.00000000000E+00 0.  1.
         21   -1    0    0  504  503 -0.00000000000E+00 -0.00000000000E+00 -0.49183517085E+02  0.49183517085E+02  0.00000000000E+00 0.  1.
         25    2    1    2    0    0 -0.55535096745E+01 -0.61801300332E+02  0.10223900001E+04  0.10318719356E+04  0.12501254786E+03 0.  0.
          5    1    3    3  501    0 -0.11314281620E+02  0.21637496947E+02  0.63894428812E+03  0.63941067208E+03  0.10000000000E+00 0.  1.
         -5    1    3    3    0  501  0.57607719452E+01 -0.83438797279E+02  0.38344571194E+03  0.39246126355E+03  0.10000000000E+00 0.  1.
         21    1    1    2  504  502  0.55535096745E+01  0.61801300332E+02 -0.22784013432E+02  0.66101085169E+02  0.00000000000E+00 0.  1.
<mgrwt>
<rscale>  1 0.13956496E+03</rscale>
<asrwt>0</asrwt>
<pdfrwt beam="1">  1       21 0.16135221E+00 0.13956496E+03</pdfrwt>
<pdfrwt beam="2">  1       21 0.75666957E-02 0.13956496E+03</pdfrwt>
<totfact> 0.33706120E+04</totfact>
</mgrwt>
</event>
<event>
 6    1  0.4271609E-002  0.1259572E+03  0.7546771E-02  0.1233581E+00
         21   -1    0    0  504  502  0.00000000000E+00  0.00000000000E+00  0.15842787964E+02  0.15842787964E+02  0.00000000000E+00 0. -1.
         21   -1    0    0  502  503 -0.00000000000E+00 -0.00000000000E+00 -0.31754829231E+03  0.31754829231E+03  0.00000000000E+00 0. -1.
         25    2    1    2    0    0  0.21282392743E+01 -0.15404472795E+02 -0.27530907015E+03  0.30275451841E+03  0.12499354834E+03 0.  0.
          5    1    3    3  501    0  0.62834591945E+02  0.16358899137E+01 -0.14164051534E+03  0.15496098757E+03  0.10000000000E+00 0.  1.
         -5    1    3    3    0  501 -0.60706352671E+02 -0.17040362708E+02 -0.13366855480E+03  0.14779353084E+03  0.10000000000E+00 0.  1.
         21    1    1    2  504  503 -0.21282392743E+01  0.15404472795E+02 -0.26396434199E+02  0.30636561865E+02  0.00000000000E+00 0. -1.
<mgrwt>
<rscale>  1 0.12595719E+03</rscale>
<asrwt>0</asrwt>
<pdfrwt beam="1">  1       21 0.24373521E-02 0.12595719E+03</pdfrwt>
<pdfrwt beam="2">  1       21 0.48853581E-01 0.12595719E+03</pdfrwt>
<totfact> 0.35257137E+06</totfact>
</mgrwt>
</event>
<event>
 6    1  0.4271609E-002  0.1261340E+03  0.7546771E-02  0.1233308E+00
         21   -1    0    0  504  502  0.00000000000E+00  0.00000000000E+00  0.34048039110E+03  0.34048039110E+03  0.00000000000E+00 0. -1.
         21   -1    0    0  502  503 -0.00000000000E+00 -0.00000000000E+00 -0.15872243706E+02  0.15872243706E+02  0.00000000000E+00 0. -1.
         25    2    1    2    0    0 -0.16809211136E+02 -0.11504743695E+01  0.30738951255E+03  0.33226208570E+03  0.12500363194E+03 0.  0.
          5    1    3    3  501    0 -0.37248779417E+02  0.44399477379E+02  0.24796935238E+03  0.25465190924E+03  0.10000000000E+00 0. -1.
         -5    1    3    3    0  501  0.20439568281E+02 -0.45549951749E+02  0.59420160177E+02  0.77610176467E+02  0.10000000000E+00 0. -1.
         21    1    1    2  504  503  0.16809211136E+02  0.11504743695E+01  0.17218634842E+02  0.24090549103E+02  0.00000000000E+00 0. -1.
<mgrwt>
<rscale>  1 0.12613398E+03</rscale>
<asrwt>0</asrwt>
<pdfrwt beam="1">  1       21 0.52381593E-01 0.12613398E+03</pdfrwt>
<pdfrwt beam="2">  1       21 0.24418839E-02 0.12613398E+03</pdfrwt>
<totfact> 0.30438030E+06</totfact>
</mgrwt>
</event>
<event>
 6    1  0.4271609E-002  0.1286133E+03  0.7546771E-02  0.1229528E+00
         21   -1    0    0  504  502  0.00000000000E+00  0.00000000000E+00  0.41418979157E+03  0.41418979157E+03  0.00000000000E+00 0.  1.
         21   -1    0    0  502  503 -0.00000000000E+00 -0.00000000000E+00 -0.68110208733E+03  0.68110208733E+03  0.00000000000E+00 0. -1.
         25    2    1    2    0    0  0.29190915703E+02 -0.79705466986E+01  0.40385628662E+03  0.42384111356E+03  0.12500300046E+03 0.  0.
          5    1    3    3  501    0 -0.48861314670E+02 -0.74220955258E+01  0.18478514629E+03  0.19128009793E+03  0.10000000000E+00 0.  1.
         -5    1    3    3    0  501  0.78052230373E+02 -0.54845117278E+00  0.21907114033E+03  0.23256101563E+03  0.10000000000E+00 0.  1.
         21    1    1    2  504  503 -0.29190915703E+02  0.79705466986E+01 -0.67076858238E+03  0.67145076534E+03  0.00000000000E+00 0. -1.
<mgrwt>
<rscale>  1 0.12861333E+03</rscale>
<asrwt>0</asrwt>
<pdfrwt beam="1">  1       21 0.63721507E-01 0.12861333E+03</pdfrwt>
<pdfrwt beam="2">  1       21 0.10478494E+00 0.12861333E+03</pdfrwt>
<totfact> 0.17906689E+03</totfact>
</mgrwt>
</event>
<event>
 6    1  0.4271609E-002  0.1259637E+03  0.7546771E-02  0.1233571E+00
         21   -1    0    0  503  502  0.00000000000E+00  0.00000000000E+00  0.39364806155E+03  0.39364806155E+03  0.00000000000E+00 0. -1.
         21   -1    0    0  504  503 -0.00000000000E+00 -0.00000000000E+00 -0.12812976709E+02  0.12812976709E+02  0.00000000000E+00 0. -1.
         25    2    1    2    0    0 -0.11794132847E+02  0.10170654047E+02  0.34862523612E+03  0.37068369727E+03  0.12499721753E+03 0.  0.
          5    1    3    3  501    0 -0.38240046087E+02 -0.21392655399E+02  0.31353585986E+03  0.31658283631E+03  0.10000000000E+00 0. -1.
         -5    1    3    3    0  501  0.26445913241E+02  0.31563309445E+02  0.35089376260E+02  0.54100860960E+02  0.10000000000E+00 0. -1.
         21    1    1    2  504  502  0.11794132847E+02 -0.10170654047E+02  0.32209848715E+02  0.35777340980E+02  0.00000000000E+00 0. -1.
<mgrwt>
<rscale>  1 0.12596368E+03</rscale>
<asrwt>0</asrwt>
<pdfrwt beam="1">  1       21 0.60561231E-01 0.12596368E+03</pdfrwt>
<pdfrwt beam="2">  1       21 0.19712275E-02 0.12596368E+03</pdfrwt>
<totfact> 0.31735811E+06</totfact>
</mgrwt>
</event>
<event>
 6    1  0.4271609E-002  0.1295931E+03  0.7546771E-02  0.1228061E+00
         21   -1    0    0  503  502  0.00000000000E+00  0.00000000000E+00  0.12441701711E+03  0.12441701711E+03  0.00000000000E+00 0.  1.
         21   -1    0    0  504  503 -0.00000000000E+00 -0.00000000000E+00 -0.17457118763E+03  0.17457118763E+03  0.00000000000E+00 0.  1.
         25    2    1    2    0    0  0.21303178238E+02 -0.26748774141E+02  0.88011543505E+02  0.15665378567E+03  0.12500021781E+03 0.  0.
          5    1    3    3  501    0  0.18780990294E+02 -0.92573777833E+01  0.11908203475E+03  0.12090891464E+03  0.10000000000E+00 0. -1.
         -5    1    3    3    0  501  0.25221879438E+01 -0.17491396357E+02 -0.31070491244E+02  0.35744871027E+02  0.10000000000E+00 0. -1.
         21    1    1    2  504  502 -0.21303178238E+02  0.26748774141E+02 -0.13816571403E+03  0.14233441908E+03  0.00000000000E+00 0.  1.
<mgrwt>
<rscale>  1 0.12959312E+03</rscale>
<asrwt>0</asrwt>
<pdfrwt beam="1">  1       21 0.19141080E-01 0.12959312E+03</pdfrwt>
<pdfrwt beam="2">  1       21 0.26857106E-01 0.12959312E+03</pdfrwt>
<totfact> 0.33474871E+05</totfact>
</mgrwt>
</event>
<event>
 6    1  0.4271609E-002  0.1273483E+03  0.7546771E-02  0.1231444E+00
         21   -1    0    0  503  502  0.00000000000E+00  0.00000000000E+00  0.55893601778E+02  0.55893601778E+02  0.00000000000E+00 0. -1.
         21   -1    0    0  504  503 -0.00000000000E+00 -0.00000000000E+00 -0.12740325652E+03  0.12740325652E+03  0.00000000000E+00 0. -1.
         25    2    1    2    0    0 -0.16122790602E+02  0.18219302463E+02 -0.23533229218E+02  0.12950443536E+03  0.12500279414E+03 0.  0.
          5    1    3    3  501    0  0.91762548978E+01 -0.48617071244E+02  0.10140319575E+02  0.50504052821E+02  0.10000000000E+00 0.  1.
         -5    1    3    3    0  501 -0.25299045500E+02  0.66836373707E+02 -0.33673548793E+02  0.79000382542E+02  0.10000000000E+00 0.  1.
         21    1    1    2  504  502  0.16122790602E+02 -0.18219302463E+02 -0.47976425521E+02  0.53792422931E+02  0.00000000000E+00 0. -1.
<mgrwt>
<rscale>  1 0.12734829E+03</rscale>
<asrwt>0</asrwt>
<pdfrwt beam="1">  1       21 0.85990158E-02 0.12734829E+03</pdfrwt>
<pdfrwt beam="2">  1       21 0.19600501E-01 0.12734829E+03</pdfrwt>
<totfact> 0.25140413E+06</totfact>
</mgrwt>
</event>
<event>
 6    1  0.4271609E-002  0.1259310E+03  0.7546771E-02  0.1233621E+00
         21   -1    0    0  504  502  0.00000000000E+00  0.00000000000E+00  0.70285582565E+03  0.70285582565E+03  0.00000000000E+00 0.  1.
         21   -1    0    0  502  503 -0.00000000000E+00 -0.00000000000E+00 -0.78247023852E+01  0.78247023852E+01  0.00000000000E+00 0.  1.
         25    2    1    2    0    0  0.95291457787E+01  0.11984879509E+02  0.66657748440E+03  0.67836874194E+03  0.12499666145E+03 0.  0.
          5    1    3    3  501    0 -0.54244183101E+02  0.52623704666E+01  0.42279709700E+03  0.42629510809E+03  0.10000000000E+00 0.  1.
         -5    1    3    3    0  501  0.63773328880E+02  0.67225090427E+01  0.24378038740E+03  0.25207363385E+03  0.10000000000E+00 0.  1.
         21    1    1    2  504  503 -0.95291457787E+01 -0.11984879509E+02  0.28453638861E+02  0.32311786094E+02  0.00000000000E+00 0.  1.
<mgrwt>
<rscale>  1 0.12593096E+03</rscale>
<asrwt>0</asrwt>
<pdfrwt beam="1">  1       21 0.10813162E+00 0.12593096E+03</pdfrwt>
<pdfrwt beam="2">  1       21 0.12038009E-02 0.12593096E+03</pdfrwt>
<totfact> 0.19011782E+06</totfact>
</mgrwt>
</event>
<event>
 6    1  0.4271609E-002  0.1259695E+03  0.7546771E-02  0.1233562E+00
         21   -1    0    0  504  502  0.00000000000E+00  0.00000000000E+00  0.14714827243E+04  0.14714827243E+04  0.00000000000E+00 0. -1.
         21   -1    0    0  502  503 -0.00000000000E+00 -0.00000000000E+00 -0.34362112865E+01  0.34362112865E+01  0.00000000000E+00 0. -1.
         25    2    1    2    0    0  0.12339313858E+02 -0.95096506601E+01  0.13461106018E+04  0.13519918899E+04  0.12500250360E+03 0.  0.
          5    1    3    3  501    0  0.42766590622E+02 -0.38854513447E+02  0.33128240307E+03  0.33628365270E+03  0.10000000000E+00 0.  1.
         -5    1    3    3    0  501 -0.30427276763E+02  0.29344862786E+02  0.10148281988E+04  0.10157082372E+04  0.10000000000E+00 0.  1.
         21    1    1    2  504  503 -0.12339313858E+02  0.95096506601E+01  0.12193591115E+03  0.12292704564E+03  0.00000000000E+00 0. -1.
<mgrwt>
<rscale>  1 0.12596951E+03</rscale>
<asrwt>0</asrwt>
<pdfrwt beam="1">  1       21 0.22638145E+00 0.12596951E+03</pdfrwt>
<pdfrwt beam="2">  1       21 0.52864907E-03 0.12596951E+03</pdfrwt>
<totfact> 0.96594347E+05</totfact>
</mgrwt>
</event>
<event>
 6    1  0.4271609E-002  0.1264018E+03  0.7546771E-02  0.1232895E+00
         21   -1    0    0  503  502  0.00000000000E+00  0.00000000000E+00  0.10927829378E+04  0.10927829378E+04  0.00000000000E+00 0. -1.
         21   -1    0    0  504  503 -0.00000000000E+00 -0.00000000000E+00 -0.10600948620E+02  0.10600948620E+02  0.00000000000E+00 0. -1.
         25    2    1    2    0    0  0.16777921872E+02 -0.85129452566E+01  0.10762637221E+04  0.10836609357E+04  0.12499382088E+03 0.  0.
          5    1    3    3  501    0 -0.18341955960E+02 -0.59066134746E+02  0.42204218635E+03  0.42654994160E+03  0.10000000000E+00 0.  1.
         -5    1    3    3    0  501  0.35119877832E+02  0.50553189490E+02  0.65422153574E+03  0.65711099414E+03  0.10000000000E+00 0.  1.
         21    1    1    2  504  502 -0.16777921872E+02  0.85129452566E+01  0.59182671268E+01  0.19722950719E+02  0.00000000000E+00 0. -1.
<mgrwt>
<rscale>  1 0.12640184E+03</rscale>
<asrwt>0</asrwt>
<pdfrwt beam="1">  1       21 0.16812036E+00 0.12640184E+03</pdfrwt>
<pdfrwt beam="2">  1       21 0.16309160E-02 0.12640184E+03</pdfrwt>
<totfact> 0.38577433E+05</totfact>
</mgrwt>
</event>
<event>
 6    1  0.4271609E-002  0.1267262E+03  0.7546771E-02  0.1232396E+00
         21   -1    0    0  504  502  0.00000000000E+00  0.00000000000E+00  0.14940327722E+02  0.14940327722E+02  0.00000000000E+00 0.  1.
         21   -1    0    0  502  503 -0.00000000000E+00 -0.00000000000E+00 -0.41607883570E+03  0.41607883570E+03  0.00000000000E+00 0.  1.
         25    2    1    2    0    0  0.18645647226E+02  0.94789327724E+01 -0.27046076341E+03  0.29867800107E+03  0.12498805324E+03 0.  0.
          5    1    3    3  501    0  0.35718788068E+01  0.32806630977E+02 -0.69715637327E+01  0.33729009104E+02  0.10000000000E+00 0. -1.
         -5    1    3    3    0  501  0.15073768419E+02 -0.23327698205E+02 -0.26348919968E+03  0.26494899197E+03  0.10000000000E+00 0. -1.
         21    1    1    2  504  503 -0.18645647226E+02 -0.94789327724E+01 -0.13067774457E+03  0.13234116235E+03  0.00000000000E+00 0.  1.
<mgrwt>
<rscale>  1 0.12672618E+03</rscale>
<asrwt>0</asrwt>
<pdfrwt beam="1">  1       21 0.22985122E-02 0.12672618E+03</pdfrwt>
<pdfrwt beam="2">  1       21 0.64012121E-01 0.12672618E+03</pdfrwt>
<totfact> 0.21997385E+06</totfact>
</mgrwt>
</event>
<event>
 6    1  0.4271609E-002  0.1278696E+03  0.7546771E-02  0.1230652E+00
         21   -1    0    0  503  502  0.00000000000E+00  0.00000000000E+00  0.89105266140E+01  0.89105266140E+01  0.00000000000E+00 0.  1.
         21   -1    0    0  504  503 -0.00000000000E+00 -0.00000000000E+00 -0.75662656424E+03  0.75662656424E+03  0.00000000000E+00 0.  1.
         25    2    1    2    0    0  0.20913550985E+02  0.16882300225E+02 -0.48949067746E+03  0.50591674244E+03  0.12501295249E+03 0.  0.
          5    1    3    3  501    0 -0.32180601072E+02  0.14418996053E+02 -0.40201920798E+03  0.40356282301E+03  0.10000000000E+00 0.  1.
         -5    1    3    3    0  501  0.53094152057E+02  0.24633041713E+01 -0.87471469478E+02  0.10235391943E+03  0.10000000000E+00 0.  1.
         21    1    1    2  504  502 -0.20913550985E+02 -0.16882300225E+02 -0.25822536017E+03  0.25962034841E+03  0.00000000000E+00 0. -1.
<mgrwt>
<rscale>  1 0.12786957E+03</rscale>
<asrwt>0</asrwt>
<pdfrwt beam="1">  1       21 0.13708502E-02 0.12786957E+03</pdfrwt>
<pdfrwt beam="2">  1       21 0.11640409E+00 0.12786957E+03</pdfrwt>
<totfact> 0.12965165E+06</totfact>
</mgrwt>
</event>
<event>
 6    1  0.4271609E-002  0.1268949E+03  0.7546771E-02  0.1232137E+00
         21   -1    0    0  504  502  0.00000000000E+00  0.00000000000E+00  0.92016807962E+02  0.92016807962E+02  0.00000000000E+00 0. -1.
         21   -1    0    0  502  503 -0.00000000000E+00 -0.00000000000E+00 -0.10192448950E+03  0.10192448950E+03  0.00000000000E+00 0. -1.
         25    2    1    2    0    0 -0.20577925380E+02 -0.70133215492E+01  0.45196555131E+02  0.13470351736E+03  0.12501868381E+03 0.  0.
          5    1    3    3  501    0 -0.16032280867E+02  0.31670692936E+02 -0.32284547617E+02  0.47983005697E+02  0.10000000000E+00 0. -1.
         -5    1    3    3    0  501 -0.45456445126E+01 -0.38684014485E+02  0.77481102748E+02  0.86720511667E+02  0.10000000000E+00 0. -1.
         21    1    1    2  504  503  0.20577925380E+02  0.70133215492E+01 -0.55104236667E+02  0.59237780096E+02  0.00000000000E+00 0. -1.
<mgrwt>
<rscale>  1 0.12689487E+03</rscale>
<asrwt>0</asrwt>
<pdfrwt beam="1">  1       21 0.14156432E-01 0.12689487E+03</pdfrwt>
<pdfrwt beam="2">  1       21 0.15680691E-01 0.12689487E+03</pdfrwt>
<totfact> 0.15702422E+06</totfact>
</mgrwt>
</event>
<event>
 6    1  0.4271609E-002  0.1262355E+03  0.7546771E-02  0.1233151E+00
         21   -1    0    0  503  502  0.00000000000E+00  0.00000000000E+00  0.48029247830E+02  0.48029247830E+02  0.00000000000E+00 0.  1.
         21   -1    0    0  504  503 -0.00000000000E+00 -0.00000000000E+00 -0.11423673712E+03  0.11423673712E+03  0.00000000000E+00 0.  1.
         25    2    1    2    0    0  0.46202398259E+00 -0.17673144735E+02 -0.43570060626E+02  0.13354305530E+03  0.12499137541E+03 0.  0.
          5    1    3    3  501    0 -0.15780989575E+02 -0.69370514526E+02 -0.32591653394E+02  0.78253011370E+02  0.10000000000E+00 0.  1.
         -5    1    3    3    0  501  0.16243013558E+02  0.51697369791E+02 -0.10978407232E+02  0.55290043933E+02  0.10000000000E+00 0.  1.
         21    1    1    2  504  502 -0.46202398259E+00  0.17673144735E+02 -0.22637428665E+02  0.28722929647E+02  0.00000000000E+00 0.  1.
<mgrwt>
<rscale>  1 0.12623548E+03</rscale>
<asrwt>0</asrwt>
<pdfrwt beam="1">  1       21 0.73891150E-02 0.12623548E+03</pdfrwt>
<pdfrwt beam="2">  1       21 0.17574883E-01 0.12623548E+03</pdfrwt>
<totfact> 0.39867598E+06</totfact>
</mgrwt>
</event>
<event>
 6    1  0.4271609E-002  0.1478399E+03  0.7546771E-02  0.1203153E+00
         21   -1    0    0  503  502  0.00000000000E+00  0.00000000000E+00  0.44280623255E+02  0.44280623255E+02  0.00000000000E+00 0.  1.
         21   -1    0    0  504  503 -0.00000000000E+00 -0.00000000000E+00 -0.38393608480E+03  0.38393608480E+03  0.00000000000E+00 0.  1.
         25    2    1    2    0    0 -0.78399737469E+02  0.92571689458E+01 -0.10690560342E+03  0.18244301038E+03  0.12499771990E+03 0.  0.
          5    1    3    3  501    0 -0.83344908916E+01 -0.28271446877E+02 -0.98148972568E+02  0.10247911623E+03  0.10000000000E+00 0. -1.
         -5    1    3    3    0  501 -0.70065246577E+02  0.37528615823E+02 -0.87566308500E+01  0.79963894148E+02  0.10000000000E+00 0. -1.
         21    1    1    2  504  502  0.78399737469E+02 -0.92571689458E+01 -0.23274985813E+03  0.24577369768E+03  0.00000000000E+00 0.  1.
<mgrwt>
<rscale>  1 0.14783993E+03</rscale>
<asrwt>0</asrwt>
<pdfrwt beam="1">  1       21 0.68124036E-02 0.14783993E+03</pdfrwt>
<pdfrwt beam="2">  1       21 0.59067089E-01 0.14783993E+03</pdfrwt>
<totfact> 0.42830590E+05</totfact>
</mgrwt>
</event>
<event>
 6    1  0.4271609E-002  0.1837982E+03  0.7546771E-02  0.1164177E+00
         21   -1    0    0  504  502  0.00000000000E+00  0.00000000000E+00  0.27220173438E+03  0.27220173438E+03  0.00000000000E+00 0.  1.
         21   -1    0    0  502  503 -0.00000000000E+00 -0.00000000000E+00 -0.17517260533E+03  0.17517260533E+03  0.00000000000E+00 0.  1.
         25    2    1    2    0    0  0.99157087055E+02  0.91242963444E+02  0.20454225057E+03  0.27498966061E+03  0.12499749950E+03 0.  0.
          5    1    3    3  501    0  0.10027367646E+03  0.14151334877E+02  0.14821058886E+03  0.17950336799E+03  0.10000000000E+00 0.  1.
         -5    1    3    3    0  501 -0.11165894042E+01  0.77091628567E+02  0.56331661709E+02  0.95486292618E+02  0.10000000000E+00 0.  1.
         21    1    1    2  504  503 -0.99157087055E+02 -0.91242963444E+02 -0.10751312152E+03  0.17238467910E+03  0.00000000000E+00 0.  1.
<mgrwt>
<rscale>  1 0.18379821E+03</rscale>
<asrwt>0</asrwt>
<pdfrwt beam="1">  1       21 0.41877190E-01 0.18379821E+03</pdfrwt>
<pdfrwt beam="2">  1       21 0.26949632E-01 0.18379821E+03</pdfrwt>
<totfact> 0.72260065E+04</totfact>
</mgrwt>
</event>
<event>
 6    1  0.4271609E-002  0.1266528E+03  0.7546771E-02  0.1232509E+00
         21   -1    0    0  503  502  0.00000000000E+00  0.00000000000E+00  0.18798164893E+02  0.18798164893E+02  0.00000000000E+00 0. -1.
         21   -1    0    0  504  503 -0.00000000000E+00 -0.00000000000E+00 -0.28834491723E+03  0.28834491723E+03  0.00000000000E+00 0. -1.
         25    2    1    2    0    0  0.19955972923E+02  0.41976978075E+01 -0.22635237127E+03  0.25937681706E+03  0.12500030291E+03 0.  0.
          5    1    3    3  501    0  0.30717799249E+02  0.55472172867E+02 -0.69854207749E+02  0.94341748413E+02  0.10000000000E+00 0. -1.
         -5    1    3    3    0  501 -0.10761826326E+02 -0.51274475060E+02 -0.15649816352E+03  0.16503506865E+03  0.10000000000E+00 0. -1.
         21    1    1    2  504  502 -0.19955972923E+02 -0.41976978075E+01 -0.43194381060E+02  0.47766265055E+02  0.00000000000E+00 0. -1.
<mgrwt>
<rscale>  1 0.12665282E+03</rscale>
<asrwt>0</asrwt>
<pdfrwt beam="1">  1       21 0.28920256E-02 0.12665282E+03</pdfrwt>
<pdfrwt beam="2">  1       21 0.44360753E-01 0.12665282E+03</pdfrwt>
<totfact> 0.32486269E+06</totfact>
</mgrwt>
</event>
<event>
 6    1  0.4271609E-002  0.1905175E+03  0.7546771E-02  0.1157995E+00
         21   -1    0    0  503  502  0.00000000000E+00  0.00000000000E+00  0.38146845920E+03  0.38146845920E+03  0.00000000000E+00 0.  1.
         21   -1    0    0  504  503 -0.00000000000E+00 -0.00000000000E+00 -0.10090854579E+03  0.10090854579E+03  0.00000000000E+00 0.  1.
         25    2    1    2    0    0  0.14310082281E+03  0.13833624385E+02  0.27992542303E+03  0.33860768549E+03  0.12501082977E+03 0.  0.
          5    1    3    3  501    0  0.11505700555E+03 -0.12633686970E+02  0.27667284950E+03  0.29990932000E+03  0.10000000000E+00 0. -1.
         -5    1    3    3    0  501  0.28043817258E+02  0.26467311355E+02  0.32525735329E+01  0.38698365487E+02  0.10000000000E+00 0. -1.
         21    1    1    2  504  502 -0.14310082281E+03 -0.13833624385E+02  0.63449037686E+00  0.14376931950E+03  0.00000000000E+00 0.  1.
<mgrwt>
<rscale>  1 0.19051751E+03</rscale>
<asrwt>0</asrwt>
<pdfrwt beam="1">  1       21 0.58687454E-01 0.19051751E+03</pdfrwt>
<pdfrwt beam="2">  1       21 0.15524392E-01 0.19051751E+03</pdfrwt>
<totfact> 0.10019480E+05</totfact>
</mgrwt>
</event>
<event>
 6    1  0.4271609E-002  0.1264113E+03  0.7546771E-02  0.1232880E+00
         21   -1    0    0  504  502  0.00000000000E+00  0.00000000000E+00  0.28339119513E+02  0.28339119513E+02  0.00000000000E+00 0.  1.
         21   -1    0    0  502  503 -0.00000000000E+00 -0.00000000000E+00 -0.18627687773E+03  0.18627687773E+03  0.00000000000E+00 0.  1.
         25    2    1    2    0    0  0.19844370936E+01 -0.18732687354E+02 -0.13953685387E+03  0.18828265627E+03  0.12499989399E+03 0.  0.
          5    1    3    3  501    0 -0.13287239370E+02 -0.20427888151E+02  0.17812276828E+02  0.30185038515E+02  0.10000000000E+00 0.  1.
         -5    1    3    3    0  501  0.15271676463E+02  0.16952007969E+01 -0.15734913070E+03  0.15809761776E+03  0.10000000000E+00 0.  1.
         21    1    1    2  504  503 -0.19844370936E+01  0.18732687354E+02 -0.18400904342E+02  0.26333340971E+02  0.00000000000E+00 0.  1.
<mgrwt>
<rscale>  1 0.12641133E+03</rscale>
<asrwt>0</asrwt>
<pdfrwt beam="1">  1       21 0.43598645E-02 0.12641133E+03</pdfrwt>
<pdfrwt beam="2">  1       21 0.28657981E-01 0.12641133E+03</pdfrwt>
<totfact> 0.38990156E+06</totfact>
</mgrwt>
</event>
<event>
 6    1  0.4271609E-002  0.1262226E+03  0.7546771E-02  0.1233171E+00
         21   -1    0    0  503  502  0.00000000000E+00  0.00000000000E+00  0.19856024622E+04  0.19856024622E+04  0.00000000000E+00 0.  1.
         21   -1    0    0  504  503 -0.00000000000E+00 -0.00000000000E+00 -0.28997357309E+01  0.28997357309E+01  0.00000000000E+00 0.  1.
         25    2    1    2    0    0  0.27400442671E+01  0.17298340235E+02  0.18865193692E+04  0.18907372828E+04  0.12500160695E+03 0.  0.
          5    1    3    3  501    0 -0.46814339906E+02  0.56028566567E+01  0.15163285727E+04  0.15170614111E+04  0.10000000000E+00 0.  1.
         -5    1    3    3    0  501  0.49554384174E+02  0.11695483578E+02  0.37019079648E+03  0.37367587175E+03  0.10000000000E+00 0.  1.
         21    1    1    2  504  502 -0.27400442671E+01 -0.17298340235E+02  0.96183357289E+02  0.97764915163E+02  0.00000000000E+00 0. -1.
<mgrwt>
<rscale>  1 0.12622259E+03</rscale>
<asrwt>0</asrwt>
<pdfrwt beam="1">  1       21 0.30547621E+00 0.12622259E+03</pdfrwt>
<pdfrwt beam="2">  1       21 0.44611478E-03 0.12622259E+03</pdfrwt>
<totfact> 0.44502191E+05</totfact>
</mgrwt>
</event>
<event>
 6    1  0.4271609E-002  0.1298003E+03  0.7546771E-02  0.1227752E+00
         21   -1    0    0  503  502  0.00000000000E+00  0.00000000000E+00  0.11803406832E+03  0.11803406832E+03  0.00000000000E+00 0.  1.
         21   -1    0    0  504  503 -0.00000000000E+00 -0.00000000000E+00 -0.40012874918E+03  0.40012874918E+03  0.00000000000E+00 0. -1.
         25    2    1    2    0    0  0.28474325459E+02  0.20296860468E+02  0.81254232953E+02  0.15313517070E+03  0.12500152150E+03 0.  0.
          5    1    3    3  501    0  0.44510440497E+02  0.50649689326E+02  0.27854757240E+01  0.67485844568E+02  0.10000000000E+00 0.  1.
         -5    1    3    3    0  501 -0.16036115038E+02 -0.30352828858E+02  0.78468757229E+02  0.85649326129E+02  0.10000000000E+00 0.  1.
         21    1    1    2  504  502 -0.28474325459E+02 -0.20296860468E+02 -0.36334891382E+03  0.36502764680E+03  0.00000000000E+00 0. -1.
<mgrwt>
<rscale>  1 0.12980035E+03</rscale>
<asrwt>0</asrwt>
<pdfrwt beam="1">  1       21 0.18159088E-01 0.12980035E+03</pdfrwt>
<pdfrwt beam="2">  1       21 0.61558268E-01 0.12980035E+03</pdfrwt>
<totfact> 0.69680959E+04</totfact>
</mgrwt>
</event>
<event>
 6    1  0.4271609E-002  0.1275937E+03  0.7546771E-02  0.1231071E+00
         21   -1    0    0  504  502  0.00000000000E+00  0.00000000000E+00  0.19438520590E+02  0.19438520590E+02  0.00000000000E+00 0.  1.
         21   -1    0    0  502  503 -0.00000000000E+00 -0.00000000000E+00 -0.17209952631E+04  0.17209952631E+04  0.00000000000E+00 0.  1.
         25    2    1    2    0    0  0.13275740214E+02 -0.21932886591E+02 -0.19122874776E+03  0.22988820394E+03  0.12499142189E+03 0.  0.
          5    1    3    3  501    0  0.45575386639E+00  0.34768422409E+01 -0.20005845500E+03  0.20008920900E+03  0.10000000000E+00 0.  1.
         -5    1    3    3    0  501  0.12819986348E+02 -0.25409728832E+02  0.88297072352E+01  0.29798994935E+02  0.10000000000E+00 0.  1.
         21    1    1    2  504  503 -0.13275740214E+02  0.21932886591E+02 -0.15103279948E+04  0.15105455798E+04  0.00000000000E+00 0.  1.
<mgrwt>
<rscale>  1 0.12759370E+03</rscale>
<asrwt>0</asrwt>
<pdfrwt beam="1">  1       21 0.29905419E-02 0.12759370E+03</pdfrwt>
<pdfrwt beam="2">  1       21 0.26476848E+00 0.12759370E+03</pdfrwt>
<totfact> 0.36914958E+04</totfact>
</mgrwt>
</event>
<event>
 6    1  0.4271609E-002  0.1400382E+03  0.7546771E-02  0.1213278E+00
         21   -1    0    0  503  502  0.00000000000E+00  0.00000000000E+00  0.27594670614E+03  0.27594670614E+03  0.00000000000E+00 0.  1.
         21   -1    0    0  504  503 -0.00000000000E+00 -0.00000000000E+00 -0.62122802403E+03  0.62122802403E+03  0.00000000000E+00 0.  1.
         25    2    1    2    0    0  0.22950936425E+02  0.58819465601E+02  0.25642116710E+03  0.29216865131E+03  0.12499692340E+03 0.  0.
          5    1    3    3  501    0  0.86382616124E+01  0.46781892418E+02  0.14795796322E+02  0.49820584207E+02  0.10000000000E+00 0.  1.
         -5    1    3    3    0  501  0.14312674813E+02  0.12037573182E+02  0.24162537077E+03  0.24234806711E+03  0.10000000000E+00 0.  1.
         21    1    1    2  504  502 -0.22950936425E+02 -0.58819465601E+02 -0.60170248499E+03  0.60500607886E+03  0.00000000000E+00 0.  1.
<mgrwt>
<rscale>  1 0.14003823E+03</rscale>
<asrwt>0</asrwt>
<pdfrwt beam="1">  1       21 0.42453340E-01 0.14003823E+03</pdfrwt>
<pdfrwt beam="2">  1       21 0.95573541E-01 0.14003823E+03</pdfrwt>
<totfact> 0.51042136E+03</totfact>
</mgrwt>
</event>
<event>
 6    1  0.4271609E-002  0.1340851E+03  0.7546771E-02  0.1221517E+00
         21   -1    0    0  504  502  0.00000000000E+00  0.00000000000E+00  0.42427266629E+03  0.42427266629E+03  0.00000000000E+00 0. -1.
         21   -1    0    0  502  503 -0.00000000000E+00 -0.00000000000E+00 -0.20194968196E+03  0.20194968196E+03  0.00000000000E+00 0.  1.
         25    2    1    2    0    0 -0.47750818814E+02  0.85913124795E+01  0.41052477479E+03  0.43186735017E+03  0.12499946430E+03 0.  0.
          5    1    3    3  501    0 -0.45730304222E+02 -0.52200762423E+02  0.26934596403E+03  0.27814283859E+03  0.10000000000E+00 0. -1.
         -5    1    3    3    0  501 -0.20205145923E+01  0.60792074902E+02  0.14117881077E+03  0.15372451158E+03  0.10000000000E+00 0. -1.
         21    1    1    2  504  503  0.47750818814E+02 -0.85913124795E+01 -0.18820179046E+03  0.19435499808E+03  0.00000000000E+00 0.  1.
<mgrwt>
<rscale>  1 0.13408511E+03</rscale>
<asrwt>0</asrwt>
<pdfrwt beam="1">  1       21 0.65272718E-01 0.13408511E+03</pdfrwt>
<pdfrwt beam="2">  1       21 0.31069182E-01 0.13408511E+03</pdfrwt>
<totfact> 0.22300519E+04</totfact>
</mgrwt>
</event>
<event>
 6    1  0.4271609E-002  0.1293150E+03  0.7546771E-02  0.1228476E+00
         21   -1    0    0  503  502  0.00000000000E+00  0.00000000000E+00  0.38905496749E+02  0.38905496749E+02  0.00000000000E+00 0. -1.
         21   -1    0    0  504  503 -0.00000000000E+00 -0.00000000000E+00 -0.17935729562E+03  0.17935729562E+03  0.00000000000E+00 0. -1.
         25    2    1    2    0    0 -0.33034018100E+02 -0.25095311693E+01 -0.88688751665E+02  0.15680583870E+03  0.12499932912E+03 0.  0.
          5    1    3    3  501    0 -0.63322236420E+02  0.41296095708E+02 -0.45472196963E+02  0.88220200876E+02  0.10000000000E+00 0.  1.
         -5    1    3    3    0  501  0.30288218320E+02 -0.43805626877E+02 -0.43216554702E+02  0.68585637822E+02  0.10000000000E+00 0.  1.
         21    1    1    2  504  502  0.33034018100E+02  0.25095311693E+01 -0.51763047208E+02  0.61456953673E+02  0.00000000000E+00 0. -1.
<mgrwt>
<rscale>  1 0.12931503E+03</rscale>
<asrwt>0</asrwt>
<pdfrwt beam="1">  1       21 0.59854610E-02 0.12931503E+03</pdfrwt>
<pdfrwt beam="2">  1       21 0.27593430E-01 0.12931503E+03</pdfrwt>
<totfact> 0.24628781E+06</totfact>
</mgrwt>
</event>
<event>
 6    1  0.4271609E-002  0.1335845E+03  0.7546771E-02  0.1222232E+00
         21   -1    0    0  503  502  0.00000000000E+00  0.00000000000E+00  0.27263950354E+03  0.27263950354E+03  0.00000000000E+00 0.  1.
         21   -1    0    0  504  503 -0.00000000000E+00 -0.00000000000E+00 -0.23130253587E+03  0.23130253587E+03  0.00000000000E+00 0.  1.
         25    2    1    2    0    0 -0.44788736751E+02  0.14622727922E+02  0.25353608474E+03  0.28657525171E+03  0.12499989408E+03 0.  0.
          5    1    3    3  501    0 -0.83575570613E+01  0.32920705905E+02  0.45441071647E+01  0.34267777098E+02  0.10000000000E+00 0. -1.
         -5    1    3    3    0  501 -0.36431179690E+02 -0.18297977983E+02  0.24899197757E+03  0.25230747462E+03  0.10000000000E+00 0. -1.
         21    1    1    2  504  502  0.44788736751E+02 -0.14622727922E+02 -0.21219911707E+03  0.21736678770E+03  0.00000000000E+00 0.  1.
<mgrwt>
<rscale>  1 0.13358454E+03</rscale>
<asrwt>0</asrwt>
<pdfrwt beam="1">  1       21 0.41944539E-01 0.13358454E+03</pdfrwt>
<pdfrwt beam="2">  1       21 0.35585005E-01 0.13358454E+03</pdfrwt>
<totfact> 0.42957196E+04</totfact>
</mgrwt>
</event>
<event>
 6    1  0.4271609E-002  0.1271346E+03  0.7546771E-02  0.1231770E+00
         21   -1    0    0  504  502  0.00000000000E+00  0.00000000000E+00  0.14689226770E+03  0.14689226770E+03  0.00000000000E+00 0. -1.
         21   -1    0    0  502  503 -0.00000000000E+00 -0.00000000000E+00 -0.40094106722E+02  0.40094106722E+02  0.00000000000E+00 0. -1.
         25    2    1    2    0    0 -0.15001021576E+02 -0.17770974058E+02  0.10256416929E+03  0.16334816694E+03  0.12498950617E+03 0.  0.
          5    1    3    3  501    0  0.35513289459E+02  0.28232527466E+02  0.78954510473E+02  0.91060935968E+02  0.10000000000E+00 0. -1.
         -5    1    3    3    0  501 -0.50514311035E+02 -0.46003501524E+02  0.23609658815E+02  0.72287230969E+02  0.10000000000E+00 0. -1.
         21    1    1    2  504  503  0.15001021576E+02  0.17770974058E+02  0.42339916856E+01  0.23638207480E+02  0.00000000000E+00 0. -1.
<mgrwt>
<rscale>  1 0.12713463E+03</rscale>
<asrwt>0</asrwt>
<pdfrwt beam="1">  1       21 0.22598810E-01 0.12713463E+03</pdfrwt>
<pdfrwt beam="2">  1       21 0.61683242E-02 0.12713463E+03</pdfrwt>
<totfact> 0.34107753E+06</totfact>
</mgrwt>
</event>
<event>
 6    1  0.4271609E-002  0.1271521E+03  0.7546771E-02  0.1231744E+00
         21   -1    0    0  503  502  0.00000000000E+00  0.00000000000E+00  0.11174068842E+02  0.11174068842E+02  0.00000000000E+00 0.  1.
         21   -1    0    0  504  503 -0.00000000000E+00 -0.00000000000E+00 -0.63199823299E+03  0.63199823299E+03  0.00000000000E+00 0.  1.
         25    2    1    2    0    0 -0.21919303288E+02 -0.79889038614E+01 -0.36946345144E+03  0.39073124666E+03  0.12499354674E+03 0.  0.
          5    1    3    3  501    0 -0.43446966725E+02  0.36697603996E+02 -0.30019546302E+03  0.30553507012E+03  0.10000000000E+00 0.  1.
         -5    1    3    3    0  501  0.21527663436E+02 -0.44686507858E+02 -0.69267988421E+02  0.85196176542E+02  0.10000000000E+00 0.  1.
         21    1    1    2  504  502  0.21919303288E+02  0.79889038614E+01 -0.25136071271E+03  0.25244105517E+03  0.00000000000E+00 0. -1.
<mgrwt>
<rscale>  1 0.12715213E+03</rscale>
<asrwt>0</asrwt>
<pdfrwt beam="1">  1       21 0.17190872E-02 0.12715213E+03</pdfrwt>
<pdfrwt beam="2">  1       21 0.97230515E-01 0.12715213E+03</pdfrwt>
<totfact> 0.13838047E+06</totfact>
</mgrwt>
</event>
<event>
 6    1  0.4271609E-002  0.1301061E+03  0.7546771E-02  0.1227298E+00
         21   -1    0    0  503  502  0.00000000000E+00  0.00000000000E+00  0.12901995000E+03  0.12901995000E+03  0.00000000000E+00 0. -1.
         21   -1    0    0  504  503 -0.00000000000E+00 -0.00000000000E+00 -0.97560546760E+02  0.97560546760E+02  0.00000000000E+00 0. -1.
         25    2    1    2    0    0 -0.14292191061E+02 -0.33103056620E+02  0.89736176797E+02  0.15805122259E+03  0.12501011340E+03 0.  0.
          5    1    3    3  501    0  0.35778122479E+01  0.23817335546E+02  0.95145757739E+02  0.98146785117E+02  0.10000000000E+00 0.  1.
         -5    1    3    3    0  501 -0.17870003309E+02 -0.56920392166E+02 -0.54095809416E+01  0.59904437470E+02  0.10000000000E+00 0.  1.
         21    1    1    2  504  502  0.14292191061E+02  0.33103056620E+02 -0.58276773556E+02  0.68529274175E+02  0.00000000000E+00 0. -1.
<mgrwt>
<rscale>  1 0.13010614E+03</rscale>
<asrwt>0</asrwt>
<pdfrwt beam="1">  1       21 0.19849223E-01 0.13010614E+03</pdfrwt>
<pdfrwt beam="2">  1       21 0.15009315E-01 0.13010614E+03</pdfrwt>
<totfact> 0.91905718E+05</totfact>
</mgrwt>
</event>
<event>
 6    1  0.4271609E-002  0.1433830E+03  0.7546771E-02  0.1208848E+00
         21   -1    0    0  504  502  0.00000000000E+00  0.00000000000E+00  0.15048472206E+04  0.15048472206E+04  0.00000000000E+00 0.  1.
         21   -1    0    0  502  503 -0.00000000000E+00 -0.00000000000E+00 -0.81334989175E+01  0.81334989175E+01  0.00000000000E+00 0.  1.
         25    2    1    2    0    0  0.70234493119E+02 -0.83069928588E+00  0.80115655909E+03  0.81388606175E+03  0.12500046101E+03 0.  0.
          5    1    3    3  501    0 -0.15791513079E+02  0.43734160556E+02  0.26128316888E+03  0.26538830612E+03  0.10000000000E+00 0.  1.
         -5    1    3    3    0  501  0.86026006198E+02 -0.44564859841E+02  0.53987339021E+03  0.54849775563E+03  0.10000000000E+00 0.  1.
         21    1    1    2  504  503 -0.70234493119E+02  0.83069928588E+00  0.69555716255E+03  0.69909465773E+03  0.00000000000E+00 0.  1.
<mgrwt>
<rscale>  1 0.14338302E+03</rscale>
<asrwt>0</asrwt>
<pdfrwt beam="1">  1       21 0.23151473E+00 0.14338302E+03</pdfrwt>
<pdfrwt beam="2">  1       21 0.12513087E-02 0.14338302E+03</pdfrwt>
<totfact> 0.23123945E+05</totfact>
</mgrwt>
</event>
<event>
 6    1  0.4271609E-002  0.1283737E+03  0.7546771E-02  0.1229889E+00
         21   -1    0    0  503  502  0.00000000000E+00  0.00000000000E+00  0.53743073204E+02  0.53743073204E+02  0.00000000000E+00 0.  1.
         21   -1    0    0  504  503 -0.00000000000E+00 -0.00000000000E+00 -0.19610209508E+03  0.19610209508E+03  0.00000000000E+00 0.  1.
         25    2    1    2    0    0  0.19513105386E+02  0.21776823620E+02 -0.27451973601E+02  0.13127611215E+03  0.12499926175E+03 0.  0.
          5    1    3    3  501    0 -0.38432915525E+02  0.40928269658E+02  0.13545087270E+02  0.57755446861E+02  0.10000000000E+00 0. -1.
         -5    1    3    3    0  501  0.57946020911E+02 -0.19151446038E+02 -0.40997060871E+02  0.73520665291E+02  0.10000000000E+00 0. -1.
         21    1    1    2  504  502 -0.19513105386E+02 -0.21776823620E+02 -0.11490704827E+03  0.11856905613E+03  0.00000000000E+00 0.  1.
<mgrwt>
<rscale>  1 0.12837370E+03</rscale>
<asrwt>0</asrwt>
<pdfrwt beam="1">  1       21 0.82681653E-02 0.12837370E+03</pdfrwt>
<pdfrwt beam="2">  1       21 0.30169553E-01 0.12837370E+03</pdfrwt>
<totfact> 0.11935012E+06</totfact>
</mgrwt>
</event>
<event>
 6    1  0.4271609E-002  0.1264110E+03  0.7546771E-02  0.1232881E+00
         21   -1    0    0  504  502  0.00000000000E+00  0.00000000000E+00  0.36626666364E+02  0.36626666364E+02  0.00000000000E+00 0. -1.
         21   -1    0    0  502  503 -0.00000000000E+00 -0.00000000000E+00 -0.38062595878E+03  0.38062595878E+03  0.00000000000E+00 0.  1.
         25    2    1    2    0    0  0.18315590524E+02  0.43985146947E+01 -0.73757937440E+02  0.14635560093E+03  0.12499968320E+03 0.  0.
          5    1    3    3  501    0 -0.37779868877E+02  0.15514701338E+02 -0.78996659096E+02  0.88929784652E+02  0.10000000000E+00 0.  1.
         -5    1    3    3    0  501  0.56095459402E+02 -0.11116186643E+02  0.52387216552E+01  0.57425816281E+02  0.10000000000E+00 0.  1.
         21    1    1    2  504  503 -0.18315590524E+02 -0.43985146947E+01 -0.27024135498E+03  0.27089702421E+03  0.00000000000E+00 0.  1.
<mgrwt>
<rscale>  1 0.12641095E+03</rscale>
<asrwt>0</asrwt>
<pdfrwt beam="1">  1       21 0.56348720E-02 0.12641095E+03</pdfrwt>
<pdfrwt beam="2">  1       21 0.58557837E-01 0.12641095E+03</pdfrwt>
<totfact> 0.60375102E+05</totfact>
</mgrwt>
</event>
<event>
 6    1  0.4271609E-002  0.1306585E+03  0.7546771E-02  0.1226482E+00
         21   -1    0    0  504  502  0.00000000000E+00  0.00000000000E+00  0.99709438120E+03  0.99709438120E+03  0.00000000000E+00 0.  1.
         21   -1    0    0  502  503 -0.00000000000E+00 -0.00000000000E+00 -0.92474472488E+01  0.92474472488E+01  0.00000000000E+00 0.  1.
         25    2    1    2    0    0  0.73774767108E+01  0.37314977202E+02  0.91382740718E+03  0.92312088740E+03  0.12499923179E+03 0.  0.
          5    1    3    3  501    0 -0.18210375793E+02 -0.42729176884E+02  0.30271593944E+03  0.30625863308E+03  0.10000000000E+00 0.  1.
         -5    1    3    3    0  501  0.25587852504E+02  0.80044154085E+02  0.61111146774E+03  0.61686225432E+03  0.10000000000E+00 0.  1.
         21    1    1    2  504  503 -0.73774767108E+01 -0.37314977202E+02  0.74019526765E+02  0.83220941046E+02  0.00000000000E+00 0.  1.
<mgrwt>
<rscale>  1 0.13065850E+03</rscale>
<asrwt>0</asrwt>
<pdfrwt beam="1">  1       21 0.15339905E+00 0.13065850E+03</pdfrwt>
<pdfrwt beam="2">  1       21 0.14226850E-02 0.13065850E+03</pdfrwt>
<totfact> 0.61110415E+05</totfact>
</mgrwt>
</event>
<event>
 6    1  0.4271609E-002  0.1260000E+03  0.7546771E-02  0.1233515E+00
         21   -1    0    0  503  502  0.00000000000E+00  0.00000000000E+00  0.48087807838E+03  0.48087807838E+03  0.00000000000E+00 0. -1.
         21   -1    0    0  504  503 -0.00000000000E+00 -0.00000000000E+00 -0.11121401950E+02  0.11121401950E+02  0.00000000000E+00 0. -1.
         25    2    1    2    0    0 -0.11436017481E+02  0.10974218614E+02  0.44587873724E+03  0.46333989293E+03  0.12499916834E+03 0.  0.
          5    1    3    3  501    0  0.39463882461E+02 -0.17950767226E+02  0.65932456975E+02  0.78909612505E+02  0.10000000000E+00 0. -1.
         -5    1    3    3    0  501 -0.50899899942E+02  0.28924985840E+02  0.37994628027E+03  0.38443028042E+03  0.10000000000E+00 0. -1.
         21    1    1    2  504  502  0.11436017481E+02 -0.10974218614E+02  0.23877939185E+02  0.28659587396E+02  0.00000000000E+00 0. -1.
<mgrwt>
<rscale>  1 0.12600003E+03</rscale>
<asrwt>0</asrwt>
<pdfrwt beam="1">  1       21 0.73981227E-01 0.12600003E+03</pdfrwt>
<pdfrwt beam="2">  1       21 0.17109853E-02 0.12600003E+03</pdfrwt>
<totfact> 0.25848737E+06</totfact>
</mgrwt>
</event>
<event>
 6    1  0.4271609E-002  0.1398404E+03  0.7546771E-02  0.1213544E+00
         21   -1    0    0  504  502  0.00000000000E+00  0.00000000000E+00  0.88937284557E+03  0.88937284557E+03  0.00000000000E+00 0. -1.
         21   -1    0    0  502  503 -0.00000000000E+00 -0.00000000000E+00 -0.57860049463E+02  0.57860049463E+02  0.00000000000E+00 0. -1.
         25    2    1    2    0    0  0.61356678627E+02  0.12905131874E+02  0.86494557466E+03  0.87617703586E+03  0.12499666633E+03 0.  0.
          5    1    3    3  501    0  0.27561940614E+02  0.36018644516E+02  0.96342467960E+02  0.10648419815E+03  0.10000000000E+00 0.  1.
         -5    1    3    3    0  501  0.33794738013E+02 -0.23113512642E+02  0.76860310670E+03  0.76969283771E+03  0.10000000000E+00 0.  1.
         21    1    1    2  504  503 -0.61356678627E+02 -0.12905131874E+02 -0.33432778558E+02  0.71055859174E+02  0.00000000000E+00 0. -1.
<mgrwt>
<rscale>  1 0.13984045E+03</rscale>
<asrwt>0</asrwt>
<pdfrwt beam="1">  1       21 0.13682658E+00 0.13984045E+03</pdfrwt>
<pdfrwt beam="2">  1       21 0.89015467E-02 0.13984045E+03</pdfrwt>
<totfact> 0.39032913E+04</totfact>
</mgrwt>
</event>
<event>
 6    1  0.4271609E-002  0.1332434E+03  0.7546771E-02  0.1222721E+00
         21   -1    0    0  504  502  0.00000000000E+00  0.00000000000E+00  0.43619366259E+03  0.43619366259E+03  0.00000000000E+00 0.  1.
         21   -1    0    0  502  503 -0.00000000000E+00 -0.00000000000E+00 -0.56965964016E+03  0.56965964016E+03  0.00000000000E+00 0.  1.
         25    2    1    2    0    0  0.11342257177E+02  0.44720248696E+02  0.42504485594E+03  0.44544015285E+03  0.12500101107E+03 0.  0.
          5    1    3    3  501    0 -0.16278827960E+02  0.59750137570E+02  0.40126433422E+03  0.40601496906E+03  0.10000000000E+00 0. -1.
         -5    1    3    3    0  501  0.27621085137E+02 -0.15029888874E+02  0.23780521712E+02  0.39425183786E+02  0.10000000000E+00 0. -1.
         21    1    1    2  504  503 -0.11342257177E+02 -0.44720248696E+02 -0.55851083351E+03  0.56041314990E+03  0.00000000000E+00 0.  1.
<mgrwt>
<rscale>  1 0.13324339E+03</rscale>
<asrwt>0</asrwt>
<pdfrwt beam="1">  1       21 0.67106717E-01 0.13324339E+03</pdfrwt>
<pdfrwt beam="2">  1       21 0.87639945E-01 0.13324339E+03</pdfrwt>
<totfact> 0.24106229E+03</totfact>
</mgrwt>
</event>
<event>
 6    1  0.4271609E-002  0.1262011E+03  0.7546771E-02  0.1233204E+00
         21   -1    0    0  504  502  0.00000000000E+00  0.00000000000E+00  0.13952569209E+04  0.13952569209E+04  0.00000000000E+00 0. -1.
         21   -1    0    0  502  503 -0.00000000000E+00 -0.00000000000E+00 -0.61786081043E+01  0.61786081043E+01  0.00000000000E+00 0. -1.
         25    2    1    2    0    0  0.46822763503E+01  0.16757510583E+02  0.13692584168E+04  0.13750619408E+04  0.12499596567E+03 0.  0.
          5    1    3    3  501    0  0.23631561317E+02 -0.50801219689E+02  0.60107932528E+03  0.60368500055E+03  0.10000000000E+00 0.  1.
         -5    1    3    3    0  501 -0.18949284966E+02  0.67558730272E+02  0.76817909148E+03  0.77137694030E+03  0.10000000000E+00 0.  1.
         21    1    1    2  504  503 -0.46822763503E+01 -0.16757510583E+02  0.19819895997E+02  0.26373588116E+02  0.00000000000E+00 0. -1.
<mgrwt>
<rscale>  1 0.12620115E+03</rscale>
<asrwt>0</asrwt>
<pdfrwt beam="1">  1       21 0.21465466E+00 0.12620115E+03</pdfrwt>
<pdfrwt beam="2">  1       21 0.95055620E-03 0.12620115E+03</pdfrwt>
<totfact> 0.45485319E+05</totfact>
</mgrwt>
</event>
<event>
 6    1  0.4271609E-002  0.1272064E+03  0.7546771E-02  0.1231661E+00
         21   -1    0    0  503  502  0.00000000000E+00  0.00000000000E+00  0.17548211085E+03  0.17548211085E+03  0.00000000000E+00 0.  1.
         21   -1    0    0  504  503 -0.00000000000E+00 -0.00000000000E+00 -0.15041251220E+04  0.15041251220E+04  0.00000000000E+00 0.  1.
         25    2    1    2    0    0 -0.80206272954E+01 -0.22164506853E+02  0.15232311345E+03  0.19845354129E+03  0.12500352528E+03 0.  0.
          5    1    3    3  501    0  0.79668224268E+01  0.50836095238E+02  0.74660864554E+02  0.90675429608E+02  0.10000000000E+00 0. -1.
         -5    1    3    3    0  501 -0.15987449722E+02 -0.73000602090E+02  0.77662248896E+02  0.10777811168E+03  0.10000000000E+00 0. -1.
         21    1    1    2  504  502  0.80206272954E+01  0.22164506853E+02 -0.14809661246E+04  0.14811536916E+04  0.00000000000E+00 0.  1.
<mgrwt>
<rscale>  1 0.12720644E+03</rscale>
<asrwt>0</asrwt>
<pdfrwt beam="1">  1       21 0.26997249E-01 0.12720644E+03</pdfrwt>
<pdfrwt beam="2">  1       21 0.23140385E+00 0.12720644E+03</pdfrwt>
<totfact> 0.12278038E+03</totfact>
</mgrwt>
</event>
<event>
 6    1  0.4271609E-002  0.1260083E+03  0.7546771E-02  0.1233502E+00
         21   -1    0    0  503  502  0.00000000000E+00  0.00000000000E+00  0.26556183535E+03  0.26556183535E+03  0.00000000000E+00 0. -1.
         21   -1    0    0  504  503 -0.00000000000E+00 -0.00000000000E+00 -0.28017776394E+02  0.28017776394E+02  0.00000000000E+00 0. -1.
         25    2    1    2    0    0 -0.96828647561E+01 -0.12596511774E+02  0.24539587840E+03  0.27585727986E+03  0.12500268691E+03 0.  0.
          5    1    3    3  501    0 -0.66029478374E+02 -0.15167390055E+02  0.11010467683E+03  0.12927873605E+03  0.10000000000E+00 0. -1.
         -5    1    3    3    0  501  0.56346613618E+02  0.25708782813E+01  0.13529120158E+03  0.14657854381E+03  0.10000000000E+00 0. -1.
         21    1    1    2  504  502  0.96828647561E+01  0.12596511774E+02 -0.78518194488E+01  0.17722331884E+02  0.00000000000E+00 0. -1.
<mgrwt>
<rscale>  1 0.12600834E+03</rscale>
<asrwt>0</asrwt>
<pdfrwt beam="1">  1       21 0.40855665E-01 0.12600834E+03</pdfrwt>
<pdfrwt beam="2">  1       21 0.43104273E-02 0.12600834E+03</pdfrwt>
<totfact> 0.19838483E+06</totfact>
</mgrwt>
</event>
<event>
 6    1  0.4271609E-002  0.1311647E+03  0.7546771E-02  0.1225738E+00
         21   -1    0    0  504  502  0.00000000000E+00  0.00000000000E+00  0.50272050993E+03  0.50272050993E+03  0.00000000000E+00 0. -1.
         21   -1    0    0  502  503 -0.00000000000E+00 -0.00000000000E+00 -0.39812253091E+02  0.39812253091E+02  0.00000000000E+00 0. -1.
         25    2    1    2    0    0  0.14368494347E+02 -0.37054849492E+02  0.48121895753E+03  0.49877436657E+03  0.12499867264E+03 0.  0.
          5    1    3    3  501    0  0.29736718281E+02 -0.79086497032E+02  0.27193334340E+03  0.28475726449E+03  0.10000000000E+00 0. -1.
         -5    1    3    3    0  501 -0.15368223934E+02  0.42031647539E+02  0.20928561413E+03  0.21401710208E+03  0.10000000000E+00 0. -1.
         21    1    1    2  504  503 -0.14368494347E+02  0.37054849492E+02 -0.18310700686E+02  0.43758396455E+02  0.00000000000E+00 0. -1.
<mgrwt>
<rscale>  1 0.13116472E+03</rscale>
<asrwt>0</asrwt>
<pdfrwt beam="1">  1       21 0.77341613E-01 0.13116472E+03</pdfrwt>
<pdfrwt beam="2">  1       21 0.61249624E-02 0.13116472E+03</pdfrwt>
<totfact> 0.28676326E+05</totfact>
</mgrwt>
</event>
<event>
 6    1  0.4271609E-002  0.1328740E+03  0.7546771E-02  0.1223253E+00
         21   -1    0    0  503  502  0.00000000000E+00  0.00000000000E+00  0.17699753059E+02  0.17699753059E+02  0.00000000000E+00 0. -1.
         21   -1    0    0  504  503 -0.00000000000E+00 -0.00000000000E+00 -0.73860433047E+03  0.73860433047E+03  0.00000000000E+00 0.  1.
         25    2    1    2    0    0  0.44980323433E+02  0.25051463580E+01 -0.24883025511E+03  0.28208507186E+03  0.12500394655E+03 0.  0.
          5    1    3    3  501    0 -0.37689798119E+01 -0.54094107453E+02 -0.13953843198E+03  0.14970424734E+03  0.10000000000E+00 0. -1.
         -5    1    3    3    0  501  0.48749303245E+02  0.56599253811E+02 -0.10929182313E+03  0.13238082452E+03  0.10000000000E+00 0. -1.
         21    1    1    2  504  502 -0.44980323433E+02 -0.25051463580E+01 -0.47207432230E+03  0.47421901168E+03  0.00000000000E+00 0.  1.
<mgrwt>
<rscale>  1 0.13287397E+03</rscale>
<asrwt>0</asrwt>
<pdfrwt beam="1">  1       21 0.27230386E-02 0.13287397E+03</pdfrwt>
<pdfrwt beam="2">  1       21 0.11363145E+00 0.13287397E+03</pdfrwt>
<totfact> 0.45415383E+05</totfact>
</mgrwt>
</event>
<event>
 6    1  0.4271609E-002  0.1366015E+03  0.7546771E-02  0.1217976E+00
         21   -1    0    0  503  502  0.00000000000E+00  0.00000000000E+00  0.37867644456E+03  0.37867644456E+03  0.00000000000E+00 0.  1.
         21   -1    0    0  504  503 -0.00000000000E+00 -0.00000000000E+00 -0.26148679493E+02  0.26148679493E+02  0.00000000000E+00 0.  1.
         25    2    1    2    0    0  0.45875532149E+02  0.30503783700E+02  0.29543167292E+03  0.32548403125E+03  0.12499974383E+03 0.  0.
          5    1    3    3  501    0  0.69554579476E+02  0.64483865230E+02  0.19483082278E+03  0.21669118096E+03  0.10000000000E+00 0. -1.
         -5    1    3    3    0  501 -0.23679047327E+02 -0.33980081530E+02  0.10060085015E+03  0.10879285029E+03  0.10000000000E+00 0. -1.
         21    1    1    2  504  502 -0.45875532149E+02 -0.30503783700E+02  0.57096092143E+02  0.79341092808E+02  0.00000000000E+00 0.  1.
<mgrwt>
<rscale>  1 0.13660154E+03</rscale>
<asrwt>0</asrwt>
<pdfrwt beam="1">  1       21 0.58257911E-01 0.13660154E+03</pdfrwt>
<pdfrwt beam="2">  1       21 0.40228740E-02 0.13660154E+03</pdfrwt>
<totfact> 0.10736437E+06</totfact>
</mgrwt>
</event>
<event>
 6    1  0.4271609E-002  0.2304887E+03  0.7546771E-02  0.1126296E+00
         21   -1    0    0  503  502  0.00000000000E+00  0.00000000000E+00  0.67106767989E+03  0.67106767989E+03  0.00000000000E+00 0.  1.
         21   -1    0    0  504  503 -0.00000000000E+00 -0.00000000000E+00 -0.27638227730E+03  0.27638227730E+03  0.00000000000E+00 0. -1.
         25    2    1    2    0    0 -0.16523579880E+03  0.10097785785E+03  0.61343153984E+03  0.65530398419E+03  0.12500264257E+03 0.  0.
          5    1    3    3  501    0 -0.10254381324E+03  0.12471055908E+03  0.47055642537E+03  0.49748499137E+03  0.10000000000E+00 0.  1.
         -5    1    3    3    0  501 -0.62691985560E+02 -0.23732701237E+02  0.14287511446E+03  0.15781899282E+03  0.10000000000E+00 0.  1.
         21    1    1    2  504  502  0.16523579880E+03 -0.10097785785E+03 -0.21874613725E+03  0.29214597300E+03  0.00000000000E+00 0. -1.
<mgrwt>
<rscale>  1 0.23048874E+03</rscale>
<asrwt>0</asrwt>
<pdfrwt beam="1">  1       21 0.10324118E+00 0.23048874E+03</pdfrwt>
<pdfrwt beam="2">  1       21 0.42520351E-01 0.23048874E+03</pdfrwt>
<totfact> 0.39310421E+03</totfact>
</mgrwt>
</event>
<event>
 6    1  0.4271609E-002  0.1259371E+03  0.7546771E-02  0.1233612E+00
         21   -1    0    0  504  502  0.00000000000E+00  0.00000000000E+00  0.16822921493E+03  0.16822921493E+03  0.00000000000E+00 0. -1.
         21   -1    0    0  502  503 -0.00000000000E+00 -0.00000000000E+00 -0.84653278676E+02  0.84653278676E+02  0.00000000000E+00 0.  1.
         25    2    1    2    0    0 -0.14815575694E+02  0.39176124011E+01  0.14356089319E+03  0.19097091126E+03  0.12500123969E+03 0.  0.
          5    1    3    3  501    0  0.34506847913E+01  0.57690437527E+02  0.11191905891E+03  0.12596023005E+03  0.10000000000E+00 0.  1.
         -5    1    3    3    0  501 -0.18266260486E+02 -0.53772825125E+02  0.31641834277E+02  0.65010681204E+02  0.10000000000E+00 0.  1.
         21    1    1    2  504  503  0.14815575694E+02 -0.39176124011E+01 -0.59984956936E+02  0.61911582347E+02  0.00000000000E+00 0.  1.
<mgrwt>
<rscale>  1 0.12593712E+03</rscale>
<asrwt>0</asrwt>
<pdfrwt beam="1">  1       21 0.25881418E-01 0.12593712E+03</pdfrwt>
<pdfrwt beam="2">  1       21 0.13023581E-01 0.12593712E+03</pdfrwt>
<totfact> 0.72128893E+05</totfact>
</mgrwt>
</event>
<event>
 6    1  0.4271609E-002  0.1306750E+03  0.7546771E-02  0.1226458E+00
         21   -1    0    0  503  502  0.00000000000E+00  0.00000000000E+00  0.59998775667E+02  0.59998775667E+02  0.00000000000E+00 0.  1.
         21   -1    0    0  504  503 -0.00000000000E+00 -0.00000000000E+00 -0.12126517450E+03  0.12126517450E+03  0.00000000000E+00 0.  1.
         25    2    1    2    0    0  0.37796955138E+02  0.47317204268E+01 -0.35962104898E+02  0.13553314777E+03  0.12499984864E+03 0.  0.
          5    1    3    3  501    0  0.70636299240E+02 -0.16574294768E+01 -0.61319587638E+02  0.93553918523E+02  0.10000000000E+00 0. -1.
         -5    1    3    3    0  501 -0.32839344102E+02  0.63891499036E+01  0.25357482740E+02  0.41979229250E+02  0.10000000000E+00 0. -1.
         21    1    1    2  504  502 -0.37796955138E+02 -0.47317204268E+01 -0.25304293931E+02  0.45730802391E+02  0.00000000000E+00 0.  1.
<mgrwt>
<rscale>  1 0.13067502E+03</rscale>
<asrwt>0</asrwt>
<pdfrwt beam="1">  1       21 0.92305810E-02 0.13067502E+03</pdfrwt>
<pdfrwt beam="2">  1       21 0.18656180E-01 0.13067502E+03</pdfrwt>
<totfact> 0.24367279E+06</totfact>
</mgrwt>
</event>
<event>
 6    1  0.4271609E-002  0.1269184E+03  0.7546771E-02  0.1232101E+00
         21   -1    0    0  504  502  0.00000000000E+00  0.00000000000E+00  0.10131001117E+04  0.10131001117E+04  0.00000000000E+00 0.  1.
         21   -1    0    0  502  503 -0.00000000000E+00 -0.00000000000E+00 -0.55438000228E+01  0.55438000228E+01  0.00000000000E+00 0.  1.
         25    2    1    2    0    0  0.19027354908E+02 -0.10968780025E+02  0.89620816283E+03  0.90515045543E+03  0.12500368582E+03 0.  0.
          5    1    3    3  501    0 -0.36313951573E+02  0.12712138723E+02  0.10802813806E+03  0.11467515059E+03  0.10000000000E+00 0.  1.
         -5    1    3    3    0  501  0.55341306481E+02 -0.23680918748E+02  0.78818002477E+03  0.79047530484E+03  0.10000000000E+00 0.  1.
         21    1    1    2  504  503 -0.19027354908E+02  0.10968780025E+02  0.11134814887E+03  0.11349345632E+03  0.00000000000E+00 0.  1.
<mgrwt>
<rscale>  1 0.12691838E+03</rscale>
<asrwt>0</asrwt>
<pdfrwt beam="1">  1       21 0.15586141E+00 0.12691838E+03</pdfrwt>
<pdfrwt beam="2">  1       21 0.85289312E-03 0.12691838E+03</pdfrwt>
<totfact> 0.13169114E+06</totfact>
</mgrwt>
</event>
<event>
 6    1  0.4271609E-002  0.1272372E+03  0.7546771E-02  0.1231614E+00
         21   -1    0    0  503  502  0.00000000000E+00  0.00000000000E+00  0.13390459323E+03  0.13390459323E+03  0.00000000000E+00 0.  1.
         21   -1    0    0  504  503 -0.00000000000E+00 -0.00000000000E+00 -0.42720455110E+02  0.42720455110E+02  0.00000000000E+00 0.  1.
         25    2    1    2    0    0 -0.23552190664E+02  0.33003757595E+01  0.80410475767E+02  0.15051623822E+03  0.12499478065E+03 0.  0.
          5    1    3    3  501    0 -0.25804440718E+02  0.60751518265E+02  0.60880197872E+02  0.89794346288E+02  0.10000000000E+00 0.  1.
         -5    1    3    3    0  501  0.22522500546E+01 -0.57451142505E+02  0.19530277895E+02  0.60721891935E+02  0.10000000000E+00 0.  1.
         21    1    1    2  504  502  0.23552190664E+02 -0.33003757595E+01  0.10773662350E+02  0.26108810116E+02  0.00000000000E+00 0.  1.
<mgrwt>
<rscale>  1 0.12723715E+03</rscale>
<asrwt>0</asrwt>
<pdfrwt beam="1">  1       21 0.20600706E-01 0.12723715E+03</pdfrwt>
<pdfrwt beam="2">  1       21 0.65723778E-02 0.12723715E+03</pdfrwt>
<totfact> 0.36378068E+06</totfact>
</mgrwt>
</event>
<event>
 6    1  0.4271609E-002  0.1273871E+03  0.7546771E-02  0.1231385E+00
         21   -1    0    0  504  502  0.00000000000E+00  0.00000000000E+00  0.10365332020E+03  0.10365332020E+03  0.00000000000E+00 0. -1.
         21   -1    0    0  502  503 -0.00000000000E+00 -0.00000000000E+00 -0.21275636398E+03  0.21275636398E+03  0.00000000000E+00 0.  1.
         25    2    1    2    0    0  0.18378031523E+02  0.16260753446E+02  0.63314949624E+02  0.14225421171E+03  0.12500125502E+03 0.  0.
          5    1    3    3  501    0  0.53499769498E+02 -0.26904886643E+01  0.82191375686E+02  0.98106555860E+02  0.10000000000E+00 0.  1.
         -5    1    3    3    0  501 -0.35121737975E+02  0.18951242111E+02 -0.18876426062E+02  0.44147655847E+02  0.10000000000E+00 0.  1.
         21    1    1    2  504  503 -0.18378031523E+02 -0.16260753446E+02 -0.17241799340E+03  0.17415547247E+03  0.00000000000E+00 0.  1.
<mgrwt>
<rscale>  1 0.12738712E+03</rscale>
<asrwt>0</asrwt>
<pdfrwt beam="1">  1       21 0.15946665E-01 0.12738712E+03</pdfrwt>
<pdfrwt beam="2">  1       21 0.32731748E-01 0.12738712E+03</pdfrwt>
<totfact> 0.31926724E+05</totfact>
</mgrwt>
</event>
<event>
 6    1  0.4271609E-002  0.1259665E+03  0.7546771E-02  0.1233566E+00
         21   -1    0    0  504  502  0.00000000000E+00  0.00000000000E+00  0.76010429448E+03  0.76010429448E+03  0.00000000000E+00 0. -1.
         21   -1    0    0  502  503 -0.00000000000E+00 -0.00000000000E+00 -0.15836684438E+02  0.15836684438E+02  0.00000000000E+00 0.  1.
         25    2    1    2    0    0 -0.15589692059E+02 -0.35041260070E+00  0.74909882016E+03  0.75961609366E+03  0.12499762438E+03 0.  0.
          5    1    3    3  501    0 -0.44000268344E+02 -0.46634860234E+02  0.27290870164E+03  0.28033908617E+03  0.10000000000E+00 0.  1.
         -5    1    3    3    0  501  0.28410576286E+02  0.46284447633E+02  0.47619011852E+03  0.47927700749E+03  0.10000000000E+00 0.  1.
         21    1    1    2  504  503  0.15589692059E+02  0.35041260070E+00 -0.48312101154E+01  0.16324885257E+02  0.00000000000E+00 0.  1.
<mgrwt>
<rscale>  1 0.12596653E+03</rscale>
<asrwt>0</asrwt>
<pdfrwt beam="1">  1       21 0.11693909E+00 0.12596653E+03</pdfrwt>
<pdfrwt beam="2">  1       21 0.24364136E-02 0.12596653E+03</pdfrwt>
<totfact> 0.50870829E+05</totfact>
</mgrwt>
</event>
<event>
 6    1  0.4271609E-002  0.1261491E+03  0.7546771E-02  0.1233284E+00
         21   -1    0    0  503  502  0.00000000000E+00  0.00000000000E+00  0.49209901455E+03  0.49209901455E+03  0.00000000000E+00 0. -1.
         21   -1    0    0  504  503 -0.00000000000E+00 -0.00000000000E+00 -0.12006303547E+02  0.12006303547E+02  0.00000000000E+00 0. -1.
         25    2    1    2    0    0  0.16809734050E+02  0.27557293030E+01  0.46336972080E+03  0.48023442360E+03  0.12499376884E+03 0.  0.
          5    1    3    3  501    0  0.75726563167E+01  0.55548716981E+02  0.35430040122E+03  0.35870850198E+03  0.10000000000E+00 0.  1.
         -5    1    3    3    0  501  0.92370777328E+01 -0.52792987679E+02  0.10906931958E+03  0.12152592162E+03  0.10000000000E+00 0.  1.
         21    1    1    2  504  502 -0.16809734050E+02 -0.27557293030E+01  0.16722990196E+02  0.23870894493E+02  0.00000000000E+00 0. -1.
<mgrwt>
<rscale>  1 0.12614913E+03</rscale>
<asrwt>0</asrwt>
<pdfrwt beam="1">  1       21 0.75707525E-01 0.12614913E+03</pdfrwt>
<pdfrwt beam="2">  1       21 0.18471240E-02 0.12614913E+03</pdfrwt>
<totfact> 0.21725763E+06</totfact>
</mgrwt>
</event>
<event>
 6    1  0.4271609E-002  0.1273587E+03  0.7546771E-02  0.1231428E+00
         21   -1    0    0  504  502  0.00000000000E+00  0.00000000000E+00  0.56287066674E+01  0.56287066674E+01  0.00000000000E+00 0.  1.
         21   -1    0    0  502  503 -0.00000000000E+00 -0.00000000000E+00 -0.11873769597E+04  0.11873769597E+04  0.00000000000E+00 0.  1.
         25    2    1    2    0    0 -0.23768599463E+02  0.55191123582E+01 -0.76376601582E+03  0.77431179545E+03  0.12499929089E+03 0.  0.
          5    1    3    3  501    0  0.36145739310E+02 -0.38653223397E+02 -0.31623268290E+03  0.32063016995E+03  0.10000000000E+00 0.  1.
         -5    1    3    3    0  501 -0.59914338774E+02  0.44172335755E+02 -0.44753333293E+03  0.45368162550E+03  0.10000000000E+00 0.  1.
         21    1    1    2  504  503  0.23768599463E+02 -0.55191123582E+01 -0.41798223719E+03  0.41869387090E+03  0.00000000000E+00 0.  1.
<mgrwt>
<rscale>  1 0.12735867E+03</rscale>
<asrwt>0</asrwt>
<pdfrwt beam="1">  1       21 0.86595483E-03 0.12735867E+03</pdfrwt>
<pdfrwt beam="2">  1       21 0.18267339E+00 0.12735867E+03</pdfrwt>
<totfact> 0.83777784E+05</totfact>
</mgrwt>
</event>
<event>
 6    1  0.4271609E-002  0.1259045E+03  0.7546771E-02  0.1233662E+00
         21   -1    0    0  503  502  0.00000000000E+00  0.00000000000E+00  0.57907823098E+03  0.57907823098E+03  0.00000000000E+00 0. -1.
         21   -1    0    0  504  503 -0.00000000000E+00 -0.00000000000E+00 -0.22669823130E+02  0.22669823130E+02  0.00000000000E+00 0. -1.
         25    2    1    2    0    0  0.14322444808E+02 -0.46795917060E+01  0.56859582921E+03  0.58236857415E+03  0.12499963261E+03 0.  0.
          5    1    3    3  501    0 -0.54548272537E+02 -0.10385274460E+02  0.29495272783E+03  0.30013411938E+03  0.10000000000E+00 0.  1.
         -5    1    3    3    0  501  0.68870717345E+02  0.57056827536E+01  0.27364310139E+03  0.28223445477E+03  0.10000000000E+00 0.  1.
         21    1    1    2  504  502 -0.14322444808E+02  0.46795917060E+01 -0.12187421367E+02  0.19379479957E+02  0.00000000000E+00 0. -1.
<mgrwt>
<rscale>  1 0.12590448E+03</rscale>
<asrwt>0</asrwt>
<pdfrwt beam="1">  1       21 0.89088947E-01 0.12590448E+03</pdfrwt>
<pdfrwt beam="2">  1       21 0.34876655E-02 0.12590448E+03</pdfrwt>
<totfact> 0.53569317E+05</totfact>
</mgrwt>
</event>
<event>
 6    1  0.4271609E-002  0.1312399E+03  0.7546771E-02  0.1225627E+00
         21   -1    0    0  504  502  0.00000000000E+00  0.00000000000E+00  0.50529735385E+02  0.50529735385E+02  0.00000000000E+00 0. -1.
         21   -1    0    0  502  503 -0.00000000000E+00 -0.00000000000E+00 -0.24151366261E+03  0.24151366261E+03  0.00000000000E+00 0. -1.
         25    2    1    2    0    0  0.20368895836E+02  0.34348196689E+02 -0.41994351606E+02  0.13779494848E+03  0.12501692576E+03 0.  0.
          5    1    3    3  501    0  0.70614960050E+01 -0.23376424030E+02 -0.68628839301E+02  0.72844008059E+02  0.10000000000E+00 0.  1.
         -5    1    3    3    0  501  0.13307399831E+02  0.57724620719E+02  0.26634487695E+02  0.64950940426E+02  0.10000000000E+00 0.  1.
         21    1    1    2  504  503 -0.20368895836E+02 -0.34348196689E+02 -0.14898957562E+03  0.15424844951E+03  0.00000000000E+00 0. -1.
<mgrwt>
<rscale>  1 0.13123994E+03</rscale>
<asrwt>0</asrwt>
<pdfrwt beam="1">  1       21 0.77738055E-02 0.13123994E+03</pdfrwt>
<pdfrwt beam="2">  1       21 0.37155948E-01 0.13123994E+03</pdfrwt>
<totfact> 0.88368575E+05</totfact>
</mgrwt>
</event>
<event>
 6    1  0.4271609E-002  0.1259592E+03  0.7546771E-02  0.1233578E+00
         21   -1    0    0  503  502  0.00000000000E+00  0.00000000000E+00  0.18808383670E+04  0.18808383670E+04  0.00000000000E+00 0.  1.
         21   -1    0    0  504  503 -0.00000000000E+00 -0.00000000000E+00 -0.33912099579E+01  0.33912099579E+01  0.00000000000E+00 0.  1.
         25    2    1    2    0    0  0.13742771930E+02 -0.73284894270E+01  0.18291827398E+04  0.18335144460E+04  0.12499262984E+03 0.  0.
          5    1    3    3  501    0 -0.90242465941E+00  0.96813199005E+01  0.91775697723E+01  0.13370868042E+02  0.10000000000E+00 0. -1.
         -5    1    3    3    0  501  0.14645196589E+02 -0.17009809327E+02  0.18200051701E+04  0.18201435780E+04  0.10000000000E+00 0. -1.
         21    1    1    2  504  502 -0.13742771930E+02  0.73284894270E+01  0.48264417173E+02  0.50715130904E+02  0.00000000000E+00 0.  1.
<mgrwt>
<rscale>  1 0.12595923E+03</rscale>
<asrwt>0</asrwt>
<pdfrwt beam="1">  1       21 0.28935891E+00 0.12595923E+03</pdfrwt>
<pdfrwt beam="2">  1       21 0.52172611E-03 0.12595923E+03</pdfrwt>
<totfact> 0.43051340E+05</totfact>
</mgrwt>
</event>
<event>
 6    1  0.4271609E-002  0.1263947E+03  0.7546771E-02  0.1232906E+00
         21   -1    0    0  504  502  0.00000000000E+00  0.00000000000E+00  0.73311019565E+03  0.73311019565E+03  0.00000000000E+00 0.  1.
         21   -1    0    0  502  503 -0.00000000000E+00 -0.00000000000E+00 -0.10470129344E+02  0.10470129344E+02  0.00000000000E+00 0. -1.
         25    2    1    2    0    0  0.99177358914E+01 -0.15929111101E+02  0.70950550550E+03  0.72067585484E+03  0.12499410924E+03 0.  0.
          5    1    3    3  501    0  0.70589180617E+01 -0.53853339961E+02  0.14415676558E+03  0.15404932201E+03  0.10000000000E+00 0. -1.
         -5    1    3    3    0  501  0.28588178296E+01  0.37924228859E+02  0.56534873992E+03  0.56662653283E+03  0.10000000000E+00 0. -1.
         21    1    1    2  504  503 -0.99177358914E+01  0.15929111101E+02  0.13134560809E+02  0.22904470160E+02  0.00000000000E+00 0. -1.
<mgrwt>
<rscale>  1 0.12639472E+03</rscale>
<asrwt>0</asrwt>
<pdfrwt beam="1">  1       21 0.11278614E+00 0.12639472E+03</pdfrwt>
<pdfrwt beam="2">  1       21 0.16107897E-02 0.12639472E+03</pdfrwt>
<totfact> 0.10812943E+06</totfact>
</mgrwt>
</event>
<event>
 6    1  0.4271609E-002  0.1809731E+03  0.7546771E-02  0.1166865E+00
         21   -1    0    0  504  502  0.00000000000E+00  0.00000000000E+00  0.24755185510E+03  0.24755185510E+03  0.00000000000E+00 0.  1.
         21   -1    0    0  502  503 -0.00000000000E+00 -0.00000000000E+00 -0.98260029556E+02  0.98260029556E+02  0.00000000000E+00 0.  1.
         25    2    1    2    0    0 -0.12680771177E+03  0.32368751775E+02  0.82788854823E+02  0.19901073694E+03  0.12499338814E+03 0.  0.
          5    1    3    3  501    0 -0.67261301423E+02  0.74805951450E+02  0.19861470926E+02  0.10254024122E+03  0.10000000000E+00 0. -1.
         -5    1    3    3    0  501 -0.59546410346E+02 -0.42437199674E+02  0.62927383898E+02  0.96470495725E+02  0.10000000000E+00 0. -1.
         21    1    1    2  504  503  0.12680771177E+03 -0.32368751775E+02  0.66502970722E+02  0.14680114772E+03  0.00000000000E+00 0.  1.
<mgrwt>
<rscale>  1 0.18097314E+03</rscale>
<asrwt>0</asrwt>
<pdfrwt beam="1">  1       21 0.38084900E-01 0.18097314E+03</pdfrwt>
<pdfrwt beam="2">  1       21 0.15116928E-01 0.18097314E+03</pdfrwt>
<totfact> 0.25790931E+05</totfact>
</mgrwt>
</event>
<event>
 6    1  0.4271609E-002  0.1259398E+03  0.7546771E-02  0.1233608E+00
         21   -1    0    0  503  502  0.00000000000E+00  0.00000000000E+00  0.17996550910E+03  0.17996550910E+03  0.00000000000E+00 0.  1.
         21   -1    0    0  504  503 -0.00000000000E+00 -0.00000000000E+00 -0.31301125910E+02  0.31301125910E+02  0.00000000000E+00 0.  1.
         25    2    1    2    0    0  0.72961580779E+01  0.13537782942E+02  0.14996566116E+03  0.19583294414E+03  0.12499734795E+03 0.  0.
          5    1    3    3  501    0  0.61071179938E+02  0.43707967396E+01  0.11711548813E+03  0.13215460810E+03  0.10000000000E+00 0. -1.
         -5    1    3    3    0  501 -0.53775021861E+02  0.91669862023E+01  0.32850173027E+02  0.63678336034E+02  0.10000000000E+00 0. -1.
         21    1    1    2  504  502 -0.72961580779E+01 -0.13537782942E+02 -0.13012779644E+01  0.15433690875E+02  0.00000000000E+00 0. -1.
<mgrwt>
<rscale>  1 0.12593984E+03</rscale>
<asrwt>0</asrwt>
<pdfrwt beam="1">  1       21 0.27687001E-01 0.12593984E+03</pdfrwt>
<pdfrwt beam="2">  1       21 0.48155580E-02 0.12593984E+03</pdfrwt>
<totfact> 0.35267664E+06</totfact>
</mgrwt>
</event>
<event>
 6    1  0.4271609E-002  0.1260857E+03  0.7546771E-02  0.1233382E+00
         21   -1    0    0  504  502  0.00000000000E+00  0.00000000000E+00  0.81349622891E+01  0.81349622891E+01  0.00000000000E+00 0. -1.
         21   -1    0    0  502  503 -0.00000000000E+00 -0.00000000000E+00 -0.70804249134E+03  0.70804249134E+03  0.00000000000E+00 0. -1.
         25    2    1    2    0    0 -0.24552612314E+01  0.16322344531E+02 -0.50234967114E+03  0.51793125704E+03  0.12500059075E+03 0.  0.
          5    1    3    3  501    0 -0.16405546653E+02  0.64455963450E+02 -0.37896853313E+03  0.38476079880E+03  0.10000000000E+00 0.  1.
         -5    1    3    3    0  501  0.13950285421E+02 -0.48133618919E+02 -0.12338113800E+03  0.13317045824E+03  0.10000000000E+00 0.  1.
         21    1    1    2  504  503  0.24552612314E+01 -0.16322344531E+02 -0.19755785792E+03  0.19824619659E+03  0.00000000000E+00 0. -1.
<mgrwt>
<rscale>  1 0.12608567E+03</rscale>
<asrwt>0</asrwt>
<pdfrwt beam="1">  1       21 0.12515325E-02 0.12608567E+03</pdfrwt>
<pdfrwt beam="2">  1       21 0.10892963E+00 0.12608567E+03</pdfrwt>
<totfact> 0.17565197E+06</totfact>
</mgrwt>
</event>
<event>
 6    1  0.4271609E-002  0.1438968E+03  0.7546771E-02  0.1208180E+00
         21   -1    0    0  503  502  0.00000000000E+00  0.00000000000E+00  0.17343683522E+03  0.17343683522E+03  0.00000000000E+00 0. -1.
         21   -1    0    0  504  503 -0.00000000000E+00 -0.00000000000E+00 -0.11621141289E+03  0.11621141289E+03  0.00000000000E+00 0.  1.
         25    2    1    2    0    0  0.20603336314E+02  0.68244969140E+02  0.12550308768E+03  0.19093800109E+03  0.12499768783E+03 0.  0.
          5    1    3    3  501    0  0.28018059917E+02 -0.31121575269E+02  0.53807804047E+02  0.68182504391E+02  0.10000000000E+00 0. -1.
         -5    1    3    3    0  501 -0.74147236026E+01  0.99366544409E+02  0.71695283635E+02  0.12275549670E+03  0.10000000000E+00 0. -1.
         21    1    1    2  504  502 -0.20603336314E+02 -0.68244969140E+02 -0.68277665354E+02  0.98710247018E+02  0.00000000000E+00 0.  1.
<mgrwt>
<rscale>  1 0.14389682E+03</rscale>
<asrwt>0</asrwt>
<pdfrwt beam="1">  1       21 0.26682590E-01 0.14389682E+03</pdfrwt>
<pdfrwt beam="2">  1       21 0.17878679E-01 0.14389682E+03</pdfrwt>
<totfact> 0.38341035E+05</totfact>
</mgrwt>
</event>
<event>
 6    1  0.4271609E-002  0.1498022E+03  0.7546771E-02  0.1200716E+00
         21   -1    0    0  504  502  0.00000000000E+00  0.00000000000E+00  0.18018480909E+03  0.18018480909E+03  0.00000000000E+00 0. -1.
         21   -1    0    0  502  503 -0.00000000000E+00 -0.00000000000E+00 -0.14554285075E+03  0.14554285075E+03  0.00000000000E+00 0.  1.
         25    2    1    2    0    0  0.78309206873E+02  0.26154176998E+02  0.13088371814E+03  0.19892525772E+03  0.12499735048E+03 0.  0.
          5    1    3    3  501    0  0.50814772151E+02  0.12908716811E+02  0.15267428151E+03  0.16142559361E+03  0.10000000000E+00 0.  1.
         -5    1    3    3    0  501  0.27494434722E+02  0.13245460187E+02 -0.21790563367E+02  0.37499664107E+02  0.10000000000E+00 0.  1.
         21    1    1    2  504  503 -0.78309206873E+02 -0.26154176998E+02 -0.96241759803E+02  0.12680240213E+03  0.00000000000E+00 0.  1.
<mgrwt>
<rscale>  1 0.14980224E+03</rscale>
<asrwt>0</asrwt>
<pdfrwt beam="1">  1       21 0.27720740E-01 0.14980224E+03</pdfrwt>
<pdfrwt beam="2">  1       21 0.22391208E-01 0.14980224E+03</pdfrwt>
<totfact> 0.23450826E+05</totfact>
</mgrwt>
</event>
<event>
 6    1  0.4271609E-002  0.1273312E+03  0.7546771E-02  0.1231470E+00
         21   -1    0    0  504  502  0.00000000000E+00  0.00000000000E+00  0.22235679724E+03  0.22235679724E+03  0.00000000000E+00 0. -1.
         21   -1    0    0  502  503 -0.00000000000E+00 -0.00000000000E+00 -0.11817756843E+03  0.11817756843E+03  0.00000000000E+00 0.  1.
         25    2    1    2    0    0  0.32374300785E+01  0.24061474473E+02  0.20252997474E+03  0.23923133150E+03  0.12499521509E+03 0.  0.
          5    1    3    3  501    0  0.46507320186E+02 -0.20750296344E+02  0.14774186644E+03  0.15627275747E+03  0.10000000000E+00 0.  1.
         -5    1    3    3    0  501 -0.43269890108E+02  0.44811770817E+02  0.54788108302E+02  0.82958574029E+02  0.10000000000E+00 0.  1.
         21    1    1    2  504  503 -0.32374300785E+01 -0.24061474473E+02 -0.98350745927E+02  0.10130303417E+03  0.00000000000E+00 0.  1.
<mgrwt>
<rscale>  1 0.12733122E+03</rscale>
<asrwt>0</asrwt>
<pdfrwt beam="1">  1       21 0.34208738E-01 0.12733122E+03</pdfrwt>
<pdfrwt beam="2">  1       21 0.18181164E-01 0.12733122E+03</pdfrwt>
<totfact> 0.23067988E+05</totfact>
</mgrwt>
</event>
<event>
 6    1  0.4271609E-002  0.1289712E+03  0.7546771E-02  0.1228990E+00
         21   -1    0    0  504  502  0.00000000000E+00  0.00000000000E+00  0.59310074596E+02  0.59310074596E+02  0.00000000000E+00 0. -1.
         21   -1    0    0  502  503 -0.00000000000E+00 -0.00000000000E+00 -0.11468676579E+03  0.11468676579E+03  0.00000000000E+00 0. -1.
         25    2    1    2    0    0  0.16900333243E+02 -0.26885722608E+02 -0.27789412295E+02  0.13193116196E+03  0.12500046687E+03 0.  0.
          5    1    3    3  501    0 -0.13645455712E+02 -0.69217772133E+02  0.42552599144E+01  0.70678254630E+02  0.10000000000E+00 0. -1.
         -5    1    3    3    0  501  0.30545788955E+02  0.42332049525E+02 -0.32044672210E+02  0.61252907334E+02  0.10000000000E+00 0. -1.
         21    1    1    2  504  503 -0.16900333243E+02  0.26885722608E+02 -0.27587278897E+02  0.42065678419E+02  0.00000000000E+00 0.  1.
<mgrwt>
<rscale>  1 0.12897124E+03</rscale>
<asrwt>0</asrwt>
<pdfrwt beam="1">  1       21 0.91246269E-02 0.12897124E+03</pdfrwt>
<pdfrwt beam="2">  1       21 0.17644118E-01 0.12897124E+03</pdfrwt>
<totfact> 0.27523574E+06</totfact>
</mgrwt>
</event>
<event>
 6    1  0.4271609E-002  0.1345171E+03  0.7546771E-02  0.1220903E+00
         21   -1    0    0  504  502  0.00000000000E+00  0.00000000000E+00  0.61882509821E+03  0.61882509821E+03  0.00000000000E+00 0.  1.
         21   -1    0    0  502  503 -0.00000000000E+00 -0.00000000000E+00 -0.54437931777E+02  0.54437931777E+02  0.00000000000E+00 0.  1.
         25    2    1    2    0    0  0.39259714303E+02  0.30494145024E+02  0.59820273094E+03  0.61314056787E+03  0.12499452233E+03 0.  0.
          5    1    3    3  501    0  0.53429571164E+01 -0.78515885540E+01  0.51739126001E+03  0.51747842522E+03  0.10000000000E+00 0. -1.
         -5    1    3    3    0  501  0.33916757187E+02  0.38345733578E+02  0.80811470926E+02  0.95662142642E+02  0.10000000000E+00 0. -1.
         21    1    1    2  504  503 -0.39259714303E+02 -0.30494145024E+02 -0.33815564510E+02  0.60122462117E+02  0.00000000000E+00 0.  1.
<mgrwt>
<rscale>  1 0.13451709E+03</rscale>
<asrwt>0</asrwt>
<pdfrwt beam="1">  1       21 0.95203856E-01 0.13451709E+03</pdfrwt>
<pdfrwt beam="2">  1       21 0.83750669E-02 0.13451709E+03</pdfrwt>
<totfact> 0.10458696E+05</totfact>
</mgrwt>
</event>
<event>
 6    1  0.4271609E-002  0.1263569E+03  0.7546771E-02  0.1232964E+00
         21   -1    0    0  504  502  0.00000000000E+00  0.00000000000E+00  0.20794579540E+02  0.20794579540E+02  0.00000000000E+00 0. -1.
         21   -1    0    0  502  503 -0.00000000000E+00 -0.00000000000E+00 -0.37095244334E+03  0.37095244334E+03  0.00000000000E+00 0. -1.
         25    2    1    2    0    0 -0.13661894570E+02 -0.12464585775E+02 -0.17628130957E+03  0.21688974001E+03  0.12499618377E+03 0.  0.
          5    1    3    3  501    0 -0.60037343660E+02  0.12033333875E+02 -0.46424070357E+02  0.76840666748E+02  0.10000000000E+00 0. -1.
         -5    1    3    3    0  501  0.46375449090E+02 -0.24497919649E+02 -0.12985723922E+03  0.14004907327E+03  0.10000000000E+00 0. -1.
         21    1    1    2  504  503  0.13661894570E+02  0.12464585775E+02 -0.17387655423E+03  0.17485728287E+03  0.00000000000E+00 0. -1.
<mgrwt>
<rscale>  1 0.12635687E+03</rscale>
<asrwt>0</asrwt>
<pdfrwt beam="1">  1       21 0.31991666E-02 0.12635687E+03</pdfrwt>
<pdfrwt beam="2">  1       21 0.57069598E-01 0.12635687E+03</pdfrwt>
<totfact> 0.16365054E+06</totfact>
</mgrwt>
</event>
<event>
 6    1  0.4271609E-002  0.1261988E+03  0.7546771E-02  0.1233208E+00
         21   -1    0    0  504  502  0.00000000000E+00  0.00000000000E+00  0.27751739714E+03  0.27751739714E+03  0.00000000000E+00 0. -1.
         21   -1    0    0  502  503 -0.00000000000E+00 -0.00000000000E+00 -0.19210876394E+02  0.19210876394E+02  0.00000000000E+00 0. -1.
         25    2    1    2    0    0 -0.48388807254E+01  0.16680937727E+02  0.24187895212E+03  0.27282150752E+03  0.12499791614E+03 0.  0.
          5    1    3    3  501    0 -0.19737552920E+02 -0.49404459188E+02  0.14627192733E+03  0.15564658142E+03  0.10000000000E+00 0.  1.
         -5    1    3    3    0  501  0.14898672195E+02  0.66085396915E+02  0.95607024791E+02  0.11717492611E+03  0.10000000000E+00 0.  1.
         21    1    1    2  504  503  0.48388807254E+01 -0.16680937727E+02  0.16427568632E+02  0.23906766015E+02  0.00000000000E+00 0. -1.
<mgrwt>
<rscale>  1 0.12619884E+03</rscale>
<asrwt>0</asrwt>
<pdfrwt beam="1">  1       21 0.42694982E-01 0.12619884E+03</pdfrwt>
<pdfrwt beam="2">  1       21 0.29555196E-02 0.12619884E+03</pdfrwt>
<totfact> 0.33868651E+06</totfact>
</mgrwt>
</event>
<event>
 6    1  0.4271609E-002  0.1258952E+03  0.7546771E-02  0.1233677E+00
         21   -1    0    0  504  502  0.00000000000E+00  0.00000000000E+00  0.19217471447E+02  0.19217471447E+02  0.00000000000E+00 0. -1.
         21   -1    0    0  502  503 -0.00000000000E+00 -0.00000000000E+00 -0.26098363430E+03  0.26098363430E+03  0.00000000000E+00 0. -1.
         25    2    1    2    0    0 -0.13911623516E+02 -0.56412301020E+01 -0.20617325362E+03  0.24157194664E+03  0.12499695255E+03 0.  0.
          5    1    3    3  501    0  0.21540310732E+02  0.27167915759E+02 -0.54238478913E+01  0.35092859089E+02  0.10000000000E+00 0. -1.
         -5    1    3    3    0  501 -0.35451934247E+02 -0.32809145861E+02 -0.20074940573E+03  0.20647908755E+03  0.10000000000E+00 0. -1.
         21    1    1    2  504  503  0.13911623516E+02  0.56412301020E+01 -0.35592909234E+02  0.38629159111E+02  0.00000000000E+00 0.  1.
<mgrwt>
<rscale>  1 0.12589517E+03</rscale>
<asrwt>0</asrwt>
<pdfrwt beam="1">  1       21 0.29565343E-02 0.12589517E+03</pdfrwt>
<pdfrwt beam="2">  1       21 0.40151326E-01 0.12589517E+03</pdfrwt>
<totfact> 0.38288364E+06</totfact>
</mgrwt>
</event>
<event>
 6    1  0.4271609E-002  0.1387958E+03  0.7546771E-02  0.1214959E+00
         21   -1    0    0  504  502  0.00000000000E+00  0.00000000000E+00  0.74609537589E+02  0.74609537589E+02  0.00000000000E+00 0.  1.
         21   -1    0    0  502  503 -0.00000000000E+00 -0.00000000000E+00 -0.13285294515E+03  0.13285294515E+03  0.00000000000E+00 0.  1.
         25    2    1    2    0    0 -0.17887912005E+02  0.57608636752E+02 -0.40943408835E+02  0.14470881847E+03  0.12500218794E+03 0.  0.
          5    1    3    3  501    0 -0.74301635941E+01  0.96971349839E+02 -0.35897301058E+02  0.10366907082E+03  0.10000000000E+00 0.  1.
         -5    1    3    3    0  501 -0.10457748411E+02 -0.39362713087E+02 -0.50461077773E+01  0.41039747650E+02  0.10000000000E+00 0.  1.
         21    1    1    2  504  503  0.17887912005E+02 -0.57608636752E+02 -0.17299998730E+02  0.62753664278E+02  0.00000000000E+00 0.  1.
<mgrwt>
<rscale>  1 0.13879582E+03</rscale>
<asrwt>0</asrwt>
<pdfrwt beam="1">  1       21 0.11478391E-01 0.13879582E+03</pdfrwt>
<pdfrwt beam="2">  1       21 0.20438914E-01 0.13879582E+03</pdfrwt>
<totfact> 0.14063494E+06</totfact>
</mgrwt>
</event>
<event>
 6    1  0.4271609E-002  0.1259681E+03  0.7546771E-02  0.1233564E+00
         21   -1    0    0  504  502  0.00000000000E+00  0.00000000000E+00  0.13364468653E+02  0.13364468653E+02  0.00000000000E+00 0. -1.
         21   -1    0    0  502  503 -0.00000000000E+00 -0.00000000000E+00 -0.37544057608E+03  0.37544057608E+03  0.00000000000E+00 0. -1.
         25    2    1    2    0    0  0.14455301850E+02  0.58355555144E+01 -0.32683809333E+03  0.35027288807E+03  0.12499978962E+03 0.  0.
          5    1    3    3  501    0  0.16474746917E+02  0.58474005652E+02 -0.24887086089E+03  0.25617834027E+03  0.10000000000E+00 0.  1.
         -5    1    3    3    0  501 -0.20194450671E+01 -0.52638450137E+02 -0.77967232446E+02  0.94094547804E+02  0.10000000000E+00 0.  1.
         21    1    1    2  504  503 -0.14455301850E+02 -0.58355555144E+01 -0.35238014094E+02  0.38532156662E+02  0.00000000000E+00 0. -1.
<mgrwt>
<rscale>  1 0.12596808E+03</rscale>
<asrwt>0</asrwt>
<pdfrwt beam="1">  1       21 0.20560725E-02 0.12596808E+03</pdfrwt>
<pdfrwt beam="2">  1       21 0.57760077E-01 0.12596808E+03</pdfrwt>
<totfact> 0.32777703E+06</totfact>
</mgrwt>
</event>
<event>
 6    1  0.4271609E-002  0.1504705E+03  0.7546771E-02  0.1199896E+00
         21   -1    0    0  503  502  0.00000000000E+00  0.00000000000E+00  0.18349798104E+03  0.18349798104E+03  0.00000000000E+00 0. -1.
         21   -1    0    0  504  503 -0.00000000000E+00 -0.00000000000E+00 -0.77135022745E+02  0.77135022745E+02  0.00000000000E+00 0. -1.
         25    2    1    2    0    0 -0.99338886090E+01  0.83198197368E+02  0.89777630125E+02  0.17521816141E+03  0.12498303496E+03 0.  0.
          5    1    3    3  501    0  0.26283463142E+02  0.76225386465E+02  0.27262317472E+01  0.80675723213E+02  0.10000000000E+00 0. -1.
         -5    1    3    3    0  501 -0.36217351751E+02  0.69728109034E+01  0.87051398378E+02  0.94542438192E+02  0.10000000000E+00 0. -1.
         21    1    1    2  504  502  0.99338886090E+01 -0.83198197368E+02  0.16585328171E+02  0.85414842380E+02  0.00000000000E+00 0. -1.
<mgrwt>
<rscale>  1 0.15047053E+03</rscale>
<asrwt>0</asrwt>
<pdfrwt beam="1">  1       21 0.28230459E-01 0.15047053E+03</pdfrwt>
<pdfrwt beam="2">  1       21 0.11866927E-01 0.15047053E+03</pdfrwt>
<totfact> 0.72076898E+05</totfact>
</mgrwt>
</event>
<event>
 6    1  0.4271609E-002  0.1292907E+03  0.7546771E-02  0.1228512E+00
         21   -1    0    0  503  502  0.00000000000E+00  0.00000000000E+00  0.49115448232E+03  0.49115448232E+03  0.00000000000E+00 0. -1.
         21   -1    0    0  504  503 -0.00000000000E+00 -0.00000000000E+00 -0.10973278792E+03  0.10973278792E+03  0.00000000000E+00 0.  1.
         25    2    1    2    0    0  0.31842218169E+02  0.88223522337E+01  0.47990128203E+03  0.49701239389E+03  0.12499727370E+03 0.  0.
          5    1    3    3  501    0  0.50047754007E+02  0.11036624297E+02  0.70286691351E+02  0.86987434369E+02  0.10000000000E+00 0. -1.
         -5    1    3    3    0  501 -0.18205535838E+02 -0.22142720629E+01  0.40961459068E+03  0.41002495952E+03  0.10000000000E+00 0. -1.
         21    1    1    2  504  502 -0.31842218169E+02 -0.88223522337E+01 -0.98479587630E+02  0.10387487635E+03  0.00000000000E+00 0.  1.
<mgrwt>
<rscale>  1 0.12929068E+03</rscale>
<asrwt>0</asrwt>
<pdfrwt beam="1">  1       21 0.75562227E-01 0.12929068E+03</pdfrwt>
<pdfrwt beam="2">  1       21 0.16881968E-01 0.12929068E+03</pdfrwt>
<totfact> 0.51026992E+04</totfact>
</mgrwt>
</event>
<event>
 6    1  0.4271609E-002  0.1259974E+03  0.7546771E-02  0.1233519E+00
         21   -1    0    0  504  502  0.00000000000E+00  0.00000000000E+00  0.61430286343E+02  0.61430286343E+02  0.00000000000E+00 0.  1.
         21   -1    0    0  502  503 -0.00000000000E+00 -0.00000000000E+00 -0.81817343424E+02  0.81817343424E+02  0.00000000000E+00 0.  1.
         25    2    1    2    0    0 -0.82825090499E+00  0.15766582250E+02 -0.17789901506E+02  0.12724711938E+03  0.12500431065E+03 0.  0.
          5    1    3    3  501    0 -0.37259778287E+02 -0.19173272987E+02  0.34713081937E+02  0.54414276918E+02  0.10000000000E+00 0.  1.
         -5    1    3    3    0  501  0.36431527382E+02  0.34939855237E+02 -0.52502983443E+02  0.72832842467E+02  0.10000000000E+00 0.  1.
         21    1    1    2  504  503  0.82825090499E+00 -0.15766582250E+02 -0.25971555744E+01  0.16000510382E+02  0.00000000000E+00 0.  1.
<mgrwt>
<rscale>  1 0.12599742E+03</rscale>
<asrwt>0</asrwt>
<pdfrwt beam="1">  1       21 0.94508133E-02 0.12599742E+03</pdfrwt>
<pdfrwt beam="2">  1       21 0.12587284E-01 0.12599742E+03</pdfrwt>
<totfact> 0.47526420E+06</totfact>
</mgrwt>
</event>
<event>
 6    1  0.4271609E-002  0.1259827E+03  0.7546771E-02  0.1233541E+00
         21   -1    0    0  504  502  0.00000000000E+00  0.00000000000E+00  0.27209075198E+02  0.27209075198E+02  0.00000000000E+00 0. -1.
         21   -1    0    0  502  503 -0.00000000000E+00 -0.00000000000E+00 -0.18566561113E+03  0.18566561113E+03  0.00000000000E+00 0. -1.
         25    2    1    2    0    0 -0.66453810809E+01  0.14185009518E+02 -0.13484414197E+03  0.18453883036E+03  0.12500504671E+03 0.  0.
          5    1    3    3  501    0  0.14909843152E+02 -0.49436351102E+02 -0.90035811720E+02  0.10379168380E+03  0.10000000000E+00 0. -1.
         -5    1    3    3    0  501 -0.21555224233E+02  0.63621360619E+02 -0.44808330251E+02  0.80747146567E+02  0.10000000000E+00 0. -1.
         21    1    1    2  504  503  0.66453810809E+01 -0.14185009518E+02 -0.23612393957E+02  0.28335855962E+02  0.00000000000E+00 0. -1.
<mgrwt>
<rscale>  1 0.12598269E+03</rscale>
<asrwt>0</asrwt>
<pdfrwt beam="1">  1       21 0.41860117E-02 0.12598269E+03</pdfrwt>
<pdfrwt beam="2">  1       21 0.28563939E-01 0.12598269E+03</pdfrwt>
<totfact> 0.41981964E+06</totfact>
</mgrwt>
</event>
<event>
 6    1  0.4271609E-002  0.1394056E+03  0.7546771E-02  0.1214131E+00
         21   -1    0    0  504  502  0.00000000000E+00  0.00000000000E+00  0.33869322685E+02  0.33869322685E+02  0.00000000000E+00 0. -1.
         21   -1    0    0  502  503 -0.00000000000E+00 -0.00000000000E+00 -0.14961054258E+04  0.14961054258E+04  0.00000000000E+00 0. -1.
         25    2    1    2    0    0  0.50449590547E+02 -0.35518477148E+02 -0.11333371876E+03  0.17966205658E+03  0.12500879714E+03 0.  0.
          5    1    3    3  501    0  0.37758734715E+02  0.44374740273E+02 -0.42228182637E+02  0.71958800924E+02  0.10000000000E+00 0. -1.
         -5    1    3    3    0  501  0.12690855832E+02 -0.79893217421E+02 -0.71105536125E+02  0.10770325566E+03  0.10000000000E+00 0. -1.
         21    1    1    2  504  503 -0.50449590547E+02  0.35518477148E+02 -0.13489023843E+04  0.13503126919E+04  0.00000000000E+00 0. -1.
<mgrwt>
<rscale>  1 0.13940561E+03</rscale>
<asrwt>0</asrwt>
<pdfrwt beam="1">  1       21 0.52106668E-02 0.13940561E+03</pdfrwt>
<pdfrwt beam="2">  1       21 0.23016999E+00 0.13940561E+03</pdfrwt>
<totfact> 0.22949133E+04</totfact>
</mgrwt>
</event>
<event>
 6    1  0.4271609E-002  0.1282740E+03  0.7546771E-02  0.1230040E+00
         21   -1    0    0  503  502  0.00000000000E+00  0.00000000000E+00  0.23839709914E+03  0.23839709914E+03  0.00000000000E+00 0.  1.
         21   -1    0    0  504  503 -0.00000000000E+00 -0.00000000000E+00 -0.35377019939E+03  0.35377019939E+03  0.00000000000E+00 0.  1.
         25    2    1    2    0    0 -0.28616431442E+02 -0.32014386098E+01  0.22048128303E+03  0.25508078718E+03  0.12500024986E+03 0.  0.
          5    1    3    3  501    0 -0.51797210444E+02  0.47723979169E+02  0.14417203651E+03  0.16045596065E+03  0.10000000000E+00 0. -1.
         -5    1    3    3    0  501  0.23180779001E+02 -0.50925417779E+02  0.76309246528E+02  0.94624826535E+02  0.10000000000E+00 0. -1.
         21    1    1    2  504  502  0.28616431442E+02  0.32014386098E+01 -0.33585438329E+03  0.33708651135E+03  0.00000000000E+00 0.  1.
<mgrwt>
<rscale>  1 0.12827397E+03</rscale>
<asrwt>0</asrwt>
<pdfrwt beam="1">  1       21 0.36676477E-01 0.12827397E+03</pdfrwt>
<pdfrwt beam="2">  1       21 0.54426184E-01 0.12827397E+03</pdfrwt>
<totfact> 0.23802015E+04</totfact>
</mgrwt>
</event>
<event>
 6    1  0.4271609E-002  0.1291450E+03  0.7546771E-02  0.1228730E+00
         21   -1    0    0  503  502  0.00000000000E+00  0.00000000000E+00  0.21156817095E+02  0.21156817095E+02  0.00000000000E+00 0. -1.
         21   -1    0    0  504  503 -0.00000000000E+00 -0.00000000000E+00 -0.31224755202E+03  0.31224755202E+03  0.00000000000E+00 0. -1.
         25    2    1    2    0    0  0.29873488858E+02  0.12669926072E+02 -0.24616914065E+03  0.27798864936E+03  0.12500196400E+03 0.  0.
          5    1    3    3  501    0 -0.42297459944E+02  0.16985909700E+02 -0.44295603025E+02  0.63558687002E+02  0.10000000000E+00 0. -1.
         -5    1    3    3    0  501  0.72170948803E+02 -0.43159836284E+01 -0.20187353762E+03  0.21442996236E+03  0.10000000000E+00 0. -1.
         21    1    1    2  504  502 -0.29873488858E+02 -0.12669926072E+02 -0.44921594278E+02  0.55415719753E+02  0.00000000000E+00 0. -1.
<mgrwt>
<rscale>  1 0.12914505E+03</rscale>
<asrwt>0</asrwt>
<pdfrwt beam="1">  1       21 0.32548954E-02 0.12914505E+03</pdfrwt>
<pdfrwt beam="2">  1       21 0.48038078E-01 0.12914505E+03</pdfrwt>
<totfact> 0.22761040E+06</totfact>
</mgrwt>
</event>
<event>
 6    1  0.4271609E-002  0.1534354E+03  0.7546771E-02  0.1196314E+00
         21   -1    0    0  503  502  0.00000000000E+00  0.00000000000E+00  0.14525420608E+04  0.14525420608E+04  0.00000000000E+00 0. -1.
         21   -1    0    0  504  503 -0.00000000000E+00 -0.00000000000E+00 -0.10848116082E+02  0.10848116082E+02  0.00000000000E+00 0. -1.
         25    2    1    2    0    0  0.46457554641E+02  0.75900053580E+02  0.10833652472E+04  0.10941767184E+04  0.12499323806E+03 0.  0.
          5    1    3    3  501    0 -0.14291455861E+02  0.40873218596E+02  0.10891288998E+03  0.11720449357E+03  0.10000000000E+00 0.  1.
         -5    1    3    3    0  501  0.60749010502E+02  0.35026834983E+02  0.97445235726E+03  0.97697222479E+03  0.10000000000E+00 0.  1.
         21    1    1    2  504  502 -0.46457554641E+02 -0.75900053580E+02  0.35832869749E+03  0.36921345854E+03  0.00000000000E+00 0. -1.
<mgrwt>
<rscale>  1 0.15343543E+03</rscale>
<asrwt>0</asrwt>
<pdfrwt beam="1">  1       21 0.22346786E+00 0.15343543E+03</pdfrwt>
<pdfrwt beam="2">  1       21 0.16689421E-02 0.15343543E+03</pdfrwt>
<totfact> 0.16192697E+05</totfact>
</mgrwt>
</event>
<event>
 6    1  0.4271609E-002  0.1729566E+03  0.7546771E-02  0.1174799E+00
         21   -1    0    0  504  502  0.00000000000E+00  0.00000000000E+00  0.13871058318E+04  0.13871058318E+04  0.00000000000E+00 0.  1.
         21   -1    0    0  502  503 -0.00000000000E+00 -0.00000000000E+00 -0.17266938408E+02  0.17266938408E+02  0.00000000000E+00 0.  1.
         25    2    1    2    0    0  0.93448593106E+02  0.74555688393E+02  0.10228060496E+04  0.10373264722E+04  0.12499121796E+03 0.  0.
          5    1    3    3  501    0  0.76385544112E+02  0.59279264657E+02  0.32337705049E+03  0.33752260569E+03  0.10000000000E+00 0.  1.
         -5    1    3    3    0  501  0.17063048994E+02  0.15276423737E+02  0.69942899909E+03  0.69980386647E+03  0.10000000000E+00 0.  1.
         21    1    1    2  504  503 -0.93448593106E+02 -0.74555688393E+02  0.34703284383E+03  0.36704629806E+03  0.00000000000E+00 0.  1.
<mgrwt>
<rscale>  1 0.17295663E+03</rscale>
<asrwt>0</asrwt>
<pdfrwt beam="1">  1       21 0.21340081E+00 0.17295663E+03</pdfrwt>
<pdfrwt beam="2">  1       21 0.26564532E-02 0.17295663E+03</pdfrwt>
<totfact> 0.86537360E+04</totfact>
</mgrwt>
</event>
<event>
 6    1  0.4271609E-002  0.1270580E+03  0.7546771E-02  0.1231888E+00
         21   -1    0    0  504  502  0.00000000000E+00  0.00000000000E+00  0.86187507227E+01  0.86187507227E+01  0.00000000000E+00 0.  1.
         21   -1    0    0  502  503 -0.00000000000E+00 -0.00000000000E+00 -0.81187738032E+03  0.81187738032E+03  0.00000000000E+00 0.  1.
         25    2    1    2    0    0  0.22987135177E+01  0.22682822231E+02 -0.48317826694E+03  0.49960482068E+03  0.12499577871E+03 0.  0.
          5    1    3    3  501    0  0.35813697863E+02  0.64273194414E+02 -0.27192202041E+03  0.28170065612E+03  0.10000000000E+00 0. -1.
         -5    1    3    3    0  501 -0.33514984345E+02 -0.41590372183E+02 -0.21125624653E+03  0.21790416455E+03  0.10000000000E+00 0. -1.
         21    1    1    2  504  503 -0.22987135177E+01 -0.22682822231E+02 -0.32008036265E+03  0.32089131036E+03  0.00000000000E+00 0.  1.
<mgrwt>
<rscale>  1 0.12705802E+03</rscale>
<asrwt>0</asrwt>
<pdfrwt beam="1">  1       21 0.13259621E-02 0.12705802E+03</pdfrwt>
<pdfrwt beam="2">  1       21 0.12490417E+00 0.12705802E+03</pdfrwt>
<totfact> 0.11508446E+06</totfact>
</mgrwt>
</event>
<event>
 6    1  0.4271609E-002  0.1659115E+03  0.7546771E-02  0.1182180E+00
         21   -1    0    0  503  502  0.00000000000E+00  0.00000000000E+00  0.11321051005E+03  0.11321051005E+03  0.00000000000E+00 0. -1.
         21   -1    0    0  504  503 -0.00000000000E+00 -0.00000000000E+00 -0.35622768453E+03  0.35622768453E+03  0.00000000000E+00 0. -1.
         25    2    1    2    0    0  0.76523543718E+02  0.77738312204E+02  0.36072940473E+02  0.16978774790E+03  0.12501009709E+03 0.  0.
          5    1    3    3  501    0 -0.18191941375E+02  0.58542047373E+02  0.39773451168E+02  0.73075683092E+02  0.10000000000E+00 0.  1.
         -5    1    3    3    0  501  0.94715485093E+02  0.19196264832E+02 -0.37005106948E+01  0.96712064808E+02  0.10000000000E+00 0.  1.
         21    1    1    2  504  502 -0.76523543718E+02 -0.77738312204E+02 -0.27909011495E+03  0.29965044667E+03  0.00000000000E+00 0. -1.
<mgrwt>
<rscale>  1 0.16591149E+03</rscale>
<asrwt>0</asrwt>
<pdfrwt beam="1">  1       21 0.17417002E-01 0.16591149E+03</pdfrwt>
<pdfrwt beam="2">  1       21 0.54804258E-01 0.16591149E+03</pdfrwt>
<totfact> 0.94775637E+04</totfact>
</mgrwt>
</event>
<event>
 6    1  0.4271609E-002  0.1275663E+03  0.7546771E-02  0.1231112E+00
         21   -1    0    0  503  502  0.00000000000E+00  0.00000000000E+00  0.21391874725E+02  0.21391874725E+02  0.00000000000E+00 0.  1.
         21   -1    0    0  504  503 -0.00000000000E+00 -0.00000000000E+00 -0.38844692044E+03  0.38844692044E+03  0.00000000000E+00 0.  1.
         25    2    1    2    0    0 -0.22186616534E+02  0.12522266754E+02 -0.17753145392E+03  0.21861054159E+03  0.12499639453E+03 0.  0.
          5    1    3    3  501    0  0.29956989198E+02 -0.40248780142E+02 -0.96389637314E+02  0.10866626747E+03  0.10000000000E+00 0. -1.
         -5    1    3    3    0  501 -0.52143605732E+02  0.52771046896E+02 -0.81141816603E+02  0.10994427412E+03  0.10000000000E+00 0. -1.
         21    1    1    2  504  502  0.22186616534E+02 -0.12522266754E+02 -0.18952359180E+03  0.19122825357E+03  0.00000000000E+00 0.  1.
<mgrwt>
<rscale>  1 0.12756626E+03</rscale>
<asrwt>0</asrwt>
<pdfrwt beam="1">  1       21 0.32910577E-02 0.12756626E+03</pdfrwt>
<pdfrwt beam="2">  1       21 0.59761064E-01 0.12756626E+03</pdfrwt>
<totfact> 0.14172697E+06</totfact>
</mgrwt>
</event>
<event>
 6    1  0.4271609E-002  0.1263835E+03  0.7546771E-02  0.1232923E+00
         21   -1    0    0  503  502  0.00000000000E+00  0.00000000000E+00  0.64824472131E+03  0.64824472131E+03  0.00000000000E+00 0. -1.
         21   -1    0    0  504  503 -0.00000000000E+00 -0.00000000000E+00 -0.29502216953E+02  0.29502216953E+02  0.00000000000E+00 0.  1.
         25    2    1    2    0    0  0.12493123617E+02 -0.13830049223E+02  0.63832323435E+03  0.65071448764E+03  0.12500177806E+03 0.  0.
          5    1    3    3  501    0  0.58726519363E+02  0.17069318229E+02  0.20773288559E+03  0.21654821047E+03  0.10000000000E+00 0.  1.
         -5    1    3    3    0  501 -0.46233395745E+02 -0.30899367452E+02  0.43059034876E+03  0.43416627717E+03  0.10000000000E+00 0.  1.
         21    1    1    2  504  502 -0.12493123617E+02  0.13830049223E+02 -0.19580729996E+02  0.27032450618E+02  0.00000000000E+00 0.  1.
<mgrwt>
<rscale>  1 0.12638352E+03</rscale>
<asrwt>0</asrwt>
<pdfrwt beam="1">  1       21 0.99729946E-01 0.12638352E+03</pdfrwt>
<pdfrwt beam="2">  1       21 0.45388031E-02 0.12638352E+03</pdfrwt>
<totfact> 0.26663413E+05</totfact>
</mgrwt>
</event>
<event>
 6    1  0.4271609E-002  0.1265304E+03  0.7546771E-02  0.1232697E+00
         21   -1    0    0  504  502  0.00000000000E+00  0.00000000000E+00  0.62187893102E+03  0.62187893102E+03  0.00000000000E+00 0. -1.
         21   -1    0    0  502  503 -0.00000000000E+00 -0.00000000000E+00 -0.11741055670E+02  0.11741055670E+02  0.00000000000E+00 0. -1.
         25    2    1    2    0    0 -0.14296263164E+01 -0.19539043145E+02  0.59644349926E+03  0.60971697485E+03  0.12500449423E+03 0.  0.
          5    1    3    3  501    0 -0.39142969703E+02 -0.47440312759E+02  0.17156041582E+03  0.18225186317E+03  0.10000000000E+00 0.  1.
         -5    1    3    3    0  501  0.37713343387E+02  0.27901269614E+02  0.42488308343E+03  0.42746511168E+03  0.10000000000E+00 0.  1.
         21    1    1    2  504  503  0.14296263164E+01  0.19539043145E+02  0.13694376093E+02  0.23903011839E+02  0.00000000000E+00 0. -1.
<mgrwt>
<rscale>  1 0.12653040E+03</rscale>
<asrwt>0</asrwt>
<pdfrwt beam="1">  1       21 0.95673656E-01 0.12653040E+03</pdfrwt>
<pdfrwt beam="2">  1       21 0.18063167E-02 0.12653040E+03</pdfrwt>
<totfact> 0.13268056E+06</totfact>
</mgrwt>
</event>
<event>
 6    1  0.4271609E-002  0.1259826E+03  0.7546771E-02  0.1233542E+00
         21   -1    0    0  503  502  0.00000000000E+00  0.00000000000E+00  0.11034857004E+02  0.11034857004E+02  0.00000000000E+00 0. -1.
         21   -1    0    0  504  503 -0.00000000000E+00 -0.00000000000E+00 -0.72316333357E+03  0.72316333357E+03  0.00000000000E+00 0. -1.
         25    2    1    2    0    0  0.82506023588E+01  0.13371187345E+02 -0.35442549828E+03  0.37615031421E+03  0.12499905585E+03 0.  0.
          5    1    3    3  501    0 -0.21004538252E+01 -0.22018700915E+02 -0.24561689792E+01  0.22254839076E+02  0.10000000000E+00 0.  1.
         -5    1    3    3    0  501  0.10351056184E+02  0.35389888260E+02 -0.35196932930E+03  0.35389547514E+03  0.10000000000E+00 0.  1.
         21    1    1    2  504  502 -0.82506023588E+01 -0.13371187345E+02 -0.35770297829E+03  0.35804787636E+03  0.00000000000E+00 0.  1.
<mgrwt>
<rscale>  1 0.12598264E+03</rscale>
<asrwt>0</asrwt>
<pdfrwt beam="1">  1       21 0.16976702E-02 0.12598264E+03</pdfrwt>
<pdfrwt beam="2">  1       21 0.11125591E+00 0.12598264E+03</pdfrwt>
<totfact> 0.10270938E+06</totfact>
</mgrwt>
</event>
<event>
 6    1  0.4271609E-002  0.1594167E+03  0.7546771E-02  0.1189357E+00
         21   -1    0    0  504  502  0.00000000000E+00  0.00000000000E+00  0.28240818369E+03  0.28240818369E+03  0.00000000000E+00 0.  1.
         21   -1    0    0  502  503 -0.00000000000E+00 -0.00000000000E+00 -0.11919643041E+03  0.11919643041E+03  0.00000000000E+00 0.  1.
         25    2    1    2    0    0  0.46082893739E+02  0.87523501333E+02  0.23173539705E+03  0.28127387765E+03  0.12501881308E+03 0.  0.
          5    1    3    3  501    0 -0.12482661911E+02  0.90784686618E+02  0.92593340963E+02  0.13027360808E+03  0.10000000000E+00 0.  1.
         -5    1    3    3    0  501  0.58565555649E+02 -0.32611852847E+01  0.13914205608E+03  0.15100026957E+03  0.10000000000E+00 0.  1.
         21    1    1    2  504  503 -0.46082893739E+02 -0.87523501333E+02 -0.68523643764E+02  0.12033073645E+03  0.00000000000E+00 0.  1.
<mgrwt>
<rscale>  1 0.15941675E+03</rscale>
<asrwt>0</asrwt>
<pdfrwt beam="1">  1       21 0.43447413E-01 0.15941675E+03</pdfrwt>
<pdfrwt beam="2">  1       21 0.18337912E-01 0.15941675E+03</pdfrwt>
<totfact> 0.13973317E+05</totfact>
</mgrwt>
</event>
<event>
 6    1  0.4271609E-002  0.1310661E+03  0.7546771E-02  0.1225882E+00
         21   -1    0    0  504  502  0.00000000000E+00  0.00000000000E+00  0.87687561591E+02  0.87687561591E+02  0.00000000000E+00 0. -1.
         21   -1    0    0  502  503 -0.00000000000E+00 -0.00000000000E+00 -0.10375429693E+03  0.10375429693E+03  0.00000000000E+00 0. -1.
         25    2    1    2    0    0 -0.97201119357E+00  0.39400774267E+02  0.26190721024E+02  0.13365727202E+03  0.12499978671E+03 0.  0.
          5    1    3    3  501    0 -0.50798170236E+02  0.55013089550E+02 -0.79008299789E+00  0.74883431761E+02  0.10000000000E+00 0.  1.
         -5    1    3    3    0  501  0.49826159043E+02 -0.15612315282E+02  0.26980804022E+02  0.58773840262E+02  0.10000000000E+00 0.  1.
         21    1    1    2  504  503  0.97201119357E+00 -0.39400774267E+02 -0.42257456366E+02  0.57784586502E+02  0.00000000000E+00 0. -1.
<mgrwt>
<rscale>  1 0.13106606E+03</rscale>
<asrwt>0</asrwt>
<pdfrwt beam="1">  1       21 0.13490394E-01 0.13106606E+03</pdfrwt>
<pdfrwt beam="2">  1       21 0.15962200E-01 0.13106606E+03</pdfrwt>
<totfact> 0.16587813E+06</totfact>
</mgrwt>
</event>
<event>
 6    1  0.4271609E-002  0.1269185E+03  0.7546771E-02  0.1232101E+00
         21   -1    0    0  503  502  0.00000000000E+00  0.00000000000E+00  0.61004609516E+03  0.61004609516E+03  0.00000000000E+00 0.  1.
         21   -1    0    0  504  503 -0.00000000000E+00 -0.00000000000E+00 -0.16619526036E+02  0.16619526036E+02  0.00000000000E+00 0.  1.
         25    2    1    2    0    0  0.19558153927E+02  0.99633006612E+01  0.59112383449E+03  0.60459547548E+03  0.12500604995E+03 0.  0.
          5    1    3    3  501    0  0.14372860342E+02  0.58610185294E+02  0.47162244502E+03  0.47546763674E+03  0.10000000000E+00 0. -1.
         -5    1    3    3    0  501  0.51852935854E+01 -0.48646884633E+02  0.11950138947E+03  0.12912783874E+03  0.10000000000E+00 0. -1.
         21    1    1    2  504  502 -0.19558153927E+02 -0.99633006612E+01  0.23027346336E+01  0.22070145715E+02  0.00000000000E+00 0.  1.
<mgrwt>
<rscale>  1 0.12691848E+03</rscale>
<asrwt>0</asrwt>
<pdfrwt beam="1">  1       21 0.93853228E-01 0.12691848E+03</pdfrwt>
<pdfrwt beam="2">  1       21 0.25568506E-02 0.12691848E+03</pdfrwt>
<totfact> 0.79066174E+05</totfact>
</mgrwt>
</event>
<event>
 6    1  0.4271609E-002  0.1293457E+03  0.7546771E-02  0.1228430E+00
         21   -1    0    0  503  502  0.00000000000E+00  0.00000000000E+00  0.71268278125E+03  0.71268278125E+03  0.00000000000E+00 0.  1.
         21   -1    0    0  504  503 -0.00000000000E+00 -0.00000000000E+00 -0.11721917430E+02  0.11721917430E+02  0.00000000000E+00 0.  1.
         25    2    1    2    0    0 -0.31454965779E+02  0.10734603557E+02  0.65521350420E+03  0.66785854498E+03  0.12500261372E+03 0.  0.
          5    1    3    3  501    0 -0.75392236077E+02  0.22393084779E+02  0.31732861763E+03  0.32692950474E+03  0.10000000000E+00 0. -1.
         -5    1    3    3    0  501  0.43937270298E+02 -0.11658481222E+02  0.33788488657E+03  0.34092904024E+03  0.10000000000E+00 0. -1.
         21    1    1    2  504  502  0.31454965779E+02 -0.10734603557E+02  0.45747359625E+02  0.56546153701E+02  0.00000000000E+00 0.  1.
<mgrwt>
<rscale>  1 0.12934566E+03</rscale>
<asrwt>0</asrwt>
<pdfrwt beam="1">  1       21 0.10964347E+00 0.12934566E+03</pdfrwt>
<pdfrwt beam="2">  1       21 0.18033725E-02 0.12934566E+03</pdfrwt>
<totfact> 0.96514433E+05</totfact>
</mgrwt>
</event>
<event>
 6    1  0.4271609E-002  0.1324917E+03  0.7546771E-02  0.1223805E+00
         21   -1    0    0  504  502  0.00000000000E+00  0.00000000000E+00  0.28891868956E+03  0.28891868956E+03  0.00000000000E+00 0. -1.
         21   -1    0    0  502  503 -0.00000000000E+00 -0.00000000000E+00 -0.16824328046E+03  0.16824328046E+03  0.00000000000E+00 0. -1.
         25    2    1    2    0    0  0.24761801627E+01 -0.43843760232E+02  0.27040829885E+03  0.30112240756E+03  0.12500259784E+03 0.  0.
          5    1    3    3  501    0  0.26434551374E+01  0.21236344754E+01  0.25132973577E+03  0.25135262831E+03  0.10000000000E+00 0. -1.
         -5    1    3    3    0  501 -0.16727497473E+00 -0.45967394707E+02  0.19078563083E+02  0.49769779248E+02  0.10000000000E+00 0. -1.
         21    1    1    2  504  503 -0.24761801627E+01  0.43843760232E+02 -0.14973288975E+03  0.15603956246E+03  0.00000000000E+00 0. -1.
<mgrwt>
<rscale>  1 0.13249172E+03</rscale>
<asrwt>0</asrwt>
<pdfrwt beam="1">  1       21 0.44449029E-01 0.13249172E+03</pdfrwt>
<pdfrwt beam="2">  1       21 0.25883582E-01 0.13249172E+03</pdfrwt>
<totfact> 0.70735169E+04</totfact>
</mgrwt>
</event>
<event>
 6    1  0.4271609E-002  0.1284645E+03  0.7546771E-02  0.1229752E+00
         21   -1    0    0  504  502  0.00000000000E+00  0.00000000000E+00  0.18809828347E+03  0.18809828347E+03  0.00000000000E+00 0.  1.
         21   -1    0    0  502  503 -0.00000000000E+00 -0.00000000000E+00 -0.12073705775E+03  0.12073705775E+03  0.00000000000E+00 0. -1.
         25    2    1    2    0    0 -0.28707089184E+02 -0.74290693543E+01  0.16367003334E+03  0.20806493651E+03  0.12499539972E+03 0.  0.
          5    1    3    3  501    0  0.43992437649E+02 -0.28915889738E+02  0.65720413367E+02  0.84205973558E+02  0.10000000000E+00 0. -1.
         -5    1    3    3    0  501 -0.72699526833E+02  0.21486820384E+02  0.97949619972E+02  0.12385896296E+03  0.10000000000E+00 0. -1.
         21    1    1    2  504  503  0.28707089184E+02  0.74290693543E+01 -0.96308807617E+02  0.10077040471E+03  0.00000000000E+00 0. -1.
<mgrwt>
<rscale>  1 0.12846454E+03</rscale>
<asrwt>0</asrwt>
<pdfrwt beam="1">  1       21 0.28938197E-01 0.12846454E+03</pdfrwt>
<pdfrwt beam="2">  1       21 0.18574932E-01 0.12846454E+03</pdfrwt>
<totfact> 0.30673836E+05</totfact>
</mgrwt>
</event>
<event>
 6    1  0.4271609E-002  0.1563865E+03  0.7546771E-02  0.1192838E+00
         21   -1    0    0  503  502  0.00000000000E+00  0.00000000000E+00  0.79047252509E+02  0.79047252509E+02  0.00000000000E+00 0.  1.
         21   -1    0    0  504  503 -0.00000000000E+00 -0.00000000000E+00 -0.35508342084E+03  0.35508342084E+03  0.00000000000E+00 0.  1.
         25    2    1    2    0    0 -0.20386054571E+02 -0.91739161298E+02 -0.15487063301E+02  0.15715143032E+03  0.12500023194E+03 0.  0.
          5    1    3    3  501    0 -0.47757559671E+02 -0.95912433409E+02 -0.45421879430E+02  0.11637498236E+03  0.10000000000E+00 0. -1.
         -5    1    3    3    0  501  0.27371505100E+02  0.41732721117E+01  0.29934816129E+02  0.40776447960E+02  0.10000000000E+00 0. -1.
         21    1    1    2  504  502  0.20386054571E+02  0.91739161298E+02 -0.26054910503E+03  0.27697924303E+03  0.00000000000E+00 0.  1.
<mgrwt>
<rscale>  1 0.15638645E+03</rscale>
<asrwt>0</asrwt>
<pdfrwt beam="1">  1       21 0.12161116E-01 0.15638645E+03</pdfrwt>
<pdfrwt beam="2">  1       21 0.54628219E-01 0.15638645E+03</pdfrwt>
<totfact> 0.18334960E+05</totfact>
</mgrwt>
</event>
<event>
 6    1  0.4271609E-002  0.1370444E+03  0.7546771E-02  0.1217362E+00
         21   -1    0    0  504  502  0.00000000000E+00  0.00000000000E+00  0.29526423748E+03  0.29526423748E+03  0.00000000000E+00 0. -1.
         21   -1    0    0  502  503 -0.00000000000E+00 -0.00000000000E+00 -0.14112745255E+03  0.14112745255E+03  0.00000000000E+00 0.  1.
         25    2    1    2    0    0 -0.56015759953E+02  0.42816520561E+01  0.27269614072E+03  0.30519558203E+03  0.12500024088E+03 0.  0.
          5    1    3    3  501    0  0.29636897337E+02  0.26677367647E+02  0.14083168079E+03  0.14636802910E+03  0.10000000000E+00 0. -1.
         -5    1    3    3    0  501 -0.85652657290E+02 -0.22395715591E+02  0.13186445993E+03  0.15882755293E+03  0.10000000000E+00 0. -1.
         21    1    1    2  504  503  0.56015759953E+02 -0.42816520561E+01 -0.11855935579E+03  0.13119610799E+03  0.00000000000E+00 0.  1.
<mgrwt>
<rscale>  1 0.13704437E+03</rscale>
<asrwt>0</asrwt>
<pdfrwt beam="1">  1       21 0.45425267E-01 0.13704437E+03</pdfrwt>
<pdfrwt beam="2">  1       21 0.21711916E-01 0.13704437E+03</pdfrwt>
<totfact> 0.94017046E+04</totfact>
</mgrwt>
</event>
<event>
 6    1  0.4271609E-002  0.1260432E+03  0.7546771E-02  0.1233448E+00
         21   -1    0    0  503  502  0.00000000000E+00  0.00000000000E+00  0.44147041186E+03  0.44147041186E+03  0.00000000000E+00 0. -1.
         21   -1    0    0  504  503 -0.00000000000E+00 -0.00000000000E+00 -0.11547725054E+02  0.11547725054E+02  0.00000000000E+00 0. -1.
         25    2    1    2    0    0  0.39216631175E-01 -0.16205001966E+02  0.39237994668E+03  0.41212729487E+03  0.12499712395E+03 0.  0.
          5    1    3    3  501    0 -0.21073674687E+02  0.50586092887E+02  0.14458808226E+03  0.15462462964E+03  0.10000000000E+00 0.  1.
         -5    1    3    3    0  501  0.21112891319E+02 -0.66791094853E+02  0.24779186442E+03  0.25750266523E+03  0.10000000000E+00 0.  1.
         21    1    1    2  504  502 -0.39216631175E-01  0.16205001966E+02  0.37542740132E+02  0.40890842047E+02  0.00000000000E+00 0. -1.
<mgrwt>
<rscale>  1 0.12604319E+03</rscale>
<asrwt>0</asrwt>
<pdfrwt beam="1">  1       21 0.67918512E-01 0.12604319E+03</pdfrwt>
<pdfrwt beam="2">  1       21 0.17765734E-02 0.12604319E+03</pdfrwt>
<totfact> 0.29330528E+06</totfact>
</mgrwt>
</event>
<event>
 6    1  0.4271609E-002  0.1768431E+03  0.7546771E-02  0.1170894E+00
         21   -1    0    0  503  502  0.00000000000E+00  0.00000000000E+00  0.35279660859E+02  0.35279660859E+02  0.00000000000E+00 0. -1.
         21   -1    0    0  504  503 -0.00000000000E+00 -0.00000000000E+00 -0.66458800415E+03  0.66458800415E+03  0.00000000000E+00 0. -1.
         25    2    1    2    0    0  0.12149885585E+03  0.29775229407E+02 -0.30943275226E+03  0.35640161138E+03  0.12499977665E+03 0.  0.
          5    1    3    3  501    0  0.10221737773E+03  0.20261647168E+02 -0.31693709745E+03  0.33362862646E+03  0.10000000000E+00 0. -1.
         -5    1    3    3    0  501  0.19281478118E+02  0.95135822394E+01  0.75043451858E+01  0.22772984919E+02  0.10000000000E+00 0. -1.
         21    1    1    2  504  502 -0.12149885585E+03 -0.29775229407E+02 -0.31987559103E+03  0.34346605363E+03  0.00000000000E+00 0. -1.
<mgrwt>
<rscale>  1 0.17684310E+03</rscale>
<asrwt>0</asrwt>
<pdfrwt beam="1">  1       21 0.54276407E-02 0.17684310E+03</pdfrwt>
<pdfrwt beam="2">  1       21 0.10224430E+00 0.17684310E+03</pdfrwt>
<totfact> 0.18317637E+05</totfact>
</mgrwt>
</event>
<event>
 6    1  0.4271609E-002  0.1286557E+03  0.7546771E-02  0.1229464E+00
         21   -1    0    0  504  502  0.00000000000E+00  0.00000000000E+00  0.10245183901E+03  0.10245183901E+03  0.00000000000E+00 0. -1.
         21   -1    0    0  502  503 -0.00000000000E+00 -0.00000000000E+00 -0.66418100616E+03  0.66418100616E+03  0.00000000000E+00 0.  1.
         25    2    1    2    0    0  0.18092712641E+02  0.24654584102E+02  0.61538178336E+02  0.14261571503E+03  0.12496839605E+03 0.  0.
          5    1    3    3  501    0  0.26296440572E+02  0.33778803283E+02 -0.28705602533E+02  0.51541555610E+02  0.10000000000E+00 0.  1.
         -5    1    3    3    0  501 -0.82037279306E+01 -0.91242191808E+01  0.90243780869E+02  0.91074159415E+02  0.10000000000E+00 0.  1.
         21    1    1    2  504  503 -0.18092712641E+02 -0.24654584102E+02 -0.62326734549E+03  0.62401713015E+03  0.00000000000E+00 0.  1.
<mgrwt>
<rscale>  1 0.12865572E+03</rscale>
<asrwt>0</asrwt>
<pdfrwt beam="1">  1       21 0.15761821E-01 0.12865572E+03</pdfrwt>
<pdfrwt beam="2">  1       21 0.10218170E+00 0.12865572E+03</pdfrwt>
<totfact> 0.29078603E+04</totfact>
</mgrwt>
</event>
<event>
 6    1  0.4271609E-002  0.1401256E+03  0.7546771E-02  0.1213160E+00
         21   -1    0    0  503  502  0.00000000000E+00  0.00000000000E+00  0.17198430502E+03  0.17198430502E+03  0.00000000000E+00 0.  1.
         21   -1    0    0  504  503 -0.00000000000E+00 -0.00000000000E+00 -0.84397679308E+03  0.84397679308E+03  0.00000000000E+00 0. -1.
         25    2    1    2    0    0 -0.43196175846E+02 -0.46313125122E+02  0.14200664985E+03  0.19950202891E+03  0.12499742306E+03 0.  0.
          5    1    3    3  501    0  0.42823690577E+02 -0.26024366131E+02  0.66449791246E+02  0.83226923912E+02  0.10000000000E+00 0.  1.
         -5    1    3    3    0  501 -0.86019866424E+02 -0.20288758991E+02  0.75556858600E+02  0.11627510500E+03  0.10000000000E+00 0.  1.
         21    1    1    2  504  502  0.43196175846E+02  0.46313125122E+02 -0.81399913791E+03  0.81645906920E+03  0.00000000000E+00 0. -1.
<mgrwt>
<rscale>  1 0.14012555E+03</rscale>
<asrwt>0</asrwt>
<pdfrwt beam="1">  1       21 0.26459124E-01 0.14012555E+03</pdfrwt>
<pdfrwt beam="2">  1       21 0.12984258E+00 0.14012555E+03</pdfrwt>
<totfact> 0.61680902E+03</totfact>
</mgrwt>
</event>
<event>
 6    1  0.4271609E-002  0.1266884E+03  0.7546771E-02  0.1232454E+00
         21   -1    0    0  504  502  0.00000000000E+00  0.00000000000E+00  0.19989562848E+03  0.19989562848E+03  0.00000000000E+00 0.  1.
         21   -1    0    0  502  503 -0.00000000000E+00 -0.00000000000E+00 -0.56688507338E+02  0.56688507338E+02  0.00000000000E+00 0.  1.
         25    2    1    2    0    0  0.82270589779E+01 -0.18896319619E+02  0.17660085837E+03  0.21734261341E+03  0.12500077214E+03 0.  0.
          5    1    3    3  501    0 -0.54216284157E+02 -0.40398222805E+01  0.43696582616E+02  0.69750462107E+02  0.10000000000E+00 0. -1.
         -5    1    3    3    0  501  0.62443343135E+02 -0.14856497339E+02  0.13290427575E+03  0.14759215131E+03  0.10000000000E+00 0. -1.
         21    1    1    2  504  503 -0.82270589779E+01  0.18896319619E+02 -0.33393737225E+02  0.39241522402E+02  0.00000000000E+00 0.  1.
<mgrwt>
<rscale>  1 0.12668839E+03</rscale>
<asrwt>0</asrwt>
<pdfrwt beam="1">  1       21 0.30753173E-01 0.12668839E+03</pdfrwt>
<pdfrwt beam="2">  1       21 0.87213089E-02 0.12668839E+03</pdfrwt>
<totfact> 0.10485604E+06</totfact>
</mgrwt>
</event>
<event>
 6    1  0.4271609E-002  0.1311536E+03  0.7546771E-02  0.1225754E+00
         21   -1    0    0  503  502  0.00000000000E+00  0.00000000000E+00  0.58007871930E+02  0.58007871930E+02  0.00000000000E+00 0. -1.
         21   -1    0    0  504  503 -0.00000000000E+00 -0.00000000000E+00 -0.39280666598E+03  0.39280666598E+03  0.00000000000E+00 0. -1.
         25    2    1    2    0    0  0.36002249070E+02  0.16686586341E+02 -0.18988504452E+02  0.13252105209E+03  0.12500664720E+03 0.  0.
          5    1    3    3  501    0  0.49314386701E+02  0.64506595603E+02 -0.72993040215E+01  0.81524839474E+02  0.10000000000E+00 0.  1.
         -5    1    3    3    0  501 -0.13312137631E+02 -0.47820009262E+02 -0.11689200431E+02  0.50996212613E+02  0.10000000000E+00 0.  1.
         21    1    1    2  504  502 -0.36002249070E+02 -0.16686586341E+02 -0.31581028959E+03  0.31829348582E+03  0.00000000000E+00 0. -1.
<mgrwt>
<rscale>  1 0.13115360E+03</rscale>
<asrwt>0</asrwt>
<pdfrwt beam="1">  1       21 0.89242877E-02 0.13115360E+03</pdfrwt>
<pdfrwt beam="2">  1       21 0.60431797E-01 0.13115360E+03</pdfrwt>
<totfact> 0.25684606E+05</totfact>
</mgrwt>
</event>
<event>
 6    1  0.4271609E-002  0.1282051E+03  0.7546771E-02  0.1230144E+00
         21   -1    0    0  504  502  0.00000000000E+00  0.00000000000E+00  0.14855142120E+03  0.14855142120E+03  0.00000000000E+00 0.  1.
         21   -1    0    0  502  503 -0.00000000000E+00 -0.00000000000E+00 -0.43275214405E+02  0.43275214405E+02  0.00000000000E+00 0.  1.
         25    2    1    2    0    0  0.24948291756E+02 -0.13711586385E+02  0.68619206310E+02  0.14541370048E+03  0.12500449572E+03 0.  0.
          5    1    3    3  501    0  0.61759190796E+02 -0.38781922854E+02  0.12861148631E+02  0.74051700400E+02  0.10000000000E+00 0. -1.
         -5    1    3    3    0  501 -0.36810899041E+02  0.25070336468E+02  0.55758057679E+02  0.71362000077E+02  0.10000000000E+00 0. -1.
         21    1    1    2  504  503 -0.24948291756E+02  0.13711586385E+02  0.36657000488E+02  0.46412935132E+02  0.00000000000E+00 0.  1.
<mgrwt>
<rscale>  1 0.12820510E+03</rscale>
<asrwt>0</asrwt>
<pdfrwt beam="1">  1       21 0.22854065E-01 0.12820510E+03</pdfrwt>
<pdfrwt beam="2">  1       21 0.66577254E-02 0.12820510E+03</pdfrwt>
<totfact> 0.29338783E+06</totfact>
</mgrwt>
</event>
<event>
 6    1  0.4271609E-002  0.1340087E+03  0.7546771E-02  0.1221626E+00
         21   -1    0    0  503  502  0.00000000000E+00  0.00000000000E+00  0.62634453528E+03  0.62634453528E+03  0.00000000000E+00 0.  1.
         21   -1    0    0  504  503 -0.00000000000E+00 -0.00000000000E+00 -0.11735192964E+03  0.11735192964E+03  0.00000000000E+00 0.  1.
         25    2    1    2    0    0 -0.46116122304E+02 -0.14343793294E+02  0.61382042438E+03  0.62827847359E+03  0.12500354331E+03 0.  0.
          5    1    3    3  501    0 -0.82507598248E+02  0.18020975246E+02  0.42240193497E+03  0.43076172530E+03  0.10000000000E+00 0. -1.
         -5    1    3    3    0  501  0.36391475944E+02 -0.32364768540E+02  0.19141848941E+03  0.19751674829E+03  0.10000000000E+00 0. -1.
         21    1    1    2  504  502  0.46116122304E+02  0.14343793294E+02 -0.10482781874E+03  0.11541799134E+03  0.00000000000E+00 0.  1.
<mgrwt>
<rscale>  1 0.13400868E+03</rscale>
<asrwt>0</asrwt>
<pdfrwt beam="1">  1       21 0.96360696E-01 0.13400868E+03</pdfrwt>
<pdfrwt beam="2">  1       21 0.18054143E-01 0.13400868E+03</pdfrwt>
<totfact> 0.25949824E+04</totfact>
</mgrwt>
</event>
<event>
 6    1  0.4271609E-002  0.1927354E+03  0.7546771E-02  0.1156017E+00
         21   -1    0    0  504  502  0.00000000000E+00  0.00000000000E+00  0.79259362255E+03  0.79259362255E+03  0.00000000000E+00 0.  1.
         21   -1    0    0  502  503 -0.00000000000E+00 -0.00000000000E+00 -0.40330866750E+03  0.40330866750E+03  0.00000000000E+00 0.  1.
         25    2    1    2    0    0 -0.25500556323E+02  0.14447602286E+03  0.76692154217E+03  0.79076898916E+03  0.12499337111E+03 0.  0.
          5    1    3    3  501    0  0.38848818652E+02  0.11347422275E+03  0.52479234453E+03  0.53832392183E+03  0.10000000000E+00 0. -1.
         -5    1    3    3    0  501 -0.64349374975E+02  0.31001800109E+02  0.24212919764E+03  0.25244506733E+03  0.10000000000E+00 0. -1.
         21    1    1    2  504  503  0.25500556323E+02 -0.14447602286E+03 -0.37763658712E+03  0.40513330089E+03  0.00000000000E+00 0.  1.
<mgrwt>
<rscale>  1 0.19273542E+03</rscale>
<asrwt>0</asrwt>
<pdfrwt beam="1">  1       21 0.12193748E+00 0.19273542E+03</pdfrwt>
<pdfrwt beam="2">  1       21 0.62047487E-01 0.19273542E+03</pdfrwt>
<totfact> 0.12233251E+03</totfact>
</mgrwt>
</event>
<event>
 6    1  0.4271609E-002  0.1305348E+03  0.7546771E-02  0.1226664E+00
         21   -1    0    0  503  502  0.00000000000E+00  0.00000000000E+00  0.11602086792E+03  0.11602086792E+03  0.00000000000E+00 0.  1.
         21   -1    0    0  504  503 -0.00000000000E+00 -0.00000000000E+00 -0.48707069144E+03  0.48707069144E+03  0.00000000000E+00 0.  1.
         25    2    1    2    0    0  0.13348701039E+02 -0.35141579933E+02  0.78269823840E+02  0.15220214503E+03  0.12500483658E+03 0.  0.
          5    1    3    3  501    0 -0.32071184565E+02  0.21755474996E+01 -0.19879660832E+02  0.37795565892E+02  0.10000000000E+00 0.  1.
         -5    1    3    3    0  501  0.45419885603E+02 -0.37317127432E+02  0.98149484671E+02  0.11440657913E+03  0.10000000000E+00 0.  1.
         21    1    1    2  504  502 -0.13348701039E+02  0.35141579933E+02 -0.44931964736E+03  0.45088941434E+03  0.00000000000E+00 0.  1.
<mgrwt>
<rscale>  1 0.13053478E+03</rscale>
<asrwt>0</asrwt>
<pdfrwt beam="1">  1       21 0.17849364E-01 0.13053478E+03</pdfrwt>
<pdfrwt beam="2">  1       21 0.74933953E-01 0.13053478E+03</pdfrwt>
<totfact> 0.46918195E+04</totfact>
</mgrwt>
</event>
<event>
 6    1  0.4271609E-002  0.1289900E+03  0.7546771E-02  0.1228962E+00
         21   -1    0    0  503  502  0.00000000000E+00  0.00000000000E+00  0.27108593629E+03  0.27108593629E+03  0.00000000000E+00 0.  1.
         21   -1    0    0  504  503 -0.00000000000E+00 -0.00000000000E+00 -0.26010702052E+02  0.26010702052E+02  0.00000000000E+00 0.  1.
         25    2    1    2    0    0  0.25940050878E+02  0.18470363816E+02  0.22529921771E+03  0.25961155586E+03  0.12499752740E+03 0.  0.
          5    1    3    3  501    0 -0.21709157288E+02  0.85817961991E+01  0.20590611063E+03  0.20722517012E+03  0.10000000000E+00 0.  1.
         -5    1    3    3    0  501  0.47649208166E+02  0.98885676169E+01  0.19393107076E+02  0.52386385736E+02  0.10000000000E+00 0.  1.
         21    1    1    2  504  502 -0.25940050878E+02 -0.18470363816E+02  0.19776016526E+02  0.37485082482E+02  0.00000000000E+00 0.  1.
<mgrwt>
<rscale>  1 0.12899001E+03</rscale>
<asrwt>0</asrwt>
<pdfrwt beam="1">  1       21 0.41705527E-01 0.12899001E+03</pdfrwt>
<pdfrwt beam="2">  1       21 0.40016467E-02 0.12899001E+03</pdfrwt>
<totfact> 0.21554122E+06</totfact>
</mgrwt>
</event>
<event>
 6    1  0.4271609E-002  0.1267500E+03  0.7546771E-02  0.1232359E+00
         21   -1    0    0  503  502  0.00000000000E+00  0.00000000000E+00  0.21384004896E+03  0.21384004896E+03  0.00000000000E+00 0.  1.
         21   -1    0    0  504  503 -0.00000000000E+00 -0.00000000000E+00 -0.15958145234E+03  0.15958145234E+03  0.00000000000E+00 0. -1.
         25    2    1    2    0    0 -0.20297522666E+02  0.53494128911E+01  0.19420610747E+03  0.23190856394E+03  0.12499985682E+03 0.  0.
          5    1    3    3  501    0  0.19243653124E+02  0.50717460416E+02  0.43179307140E+02  0.69332831629E+02  0.10000000000E+00 0.  1.
         -5    1    3    3    0  501 -0.39541175790E+02 -0.45368047525E+02  0.15102680033E+03  0.16257573231E+03  0.10000000000E+00 0.  1.
         21    1    1    2  504  502  0.20297522666E+02 -0.53494128911E+01 -0.13994751085E+03  0.14151293735E+03  0.00000000000E+00 0. -1.
<mgrwt>
<rscale>  1 0.12675003E+03</rscale>
<asrwt>0</asrwt>
<pdfrwt beam="1">  1       21 0.32898469E-01 0.12675003E+03</pdfrwt>
<pdfrwt beam="2">  1       21 0.24550993E-01 0.12675003E+03</pdfrwt>
<totfact> 0.14250780E+05</totfact>
</mgrwt>
</event>
<event>
 6    1  0.4271609E-002  0.1259503E+03  0.7546771E-02  0.1233592E+00
         21   -1    0    0  503  502  0.00000000000E+00  0.00000000000E+00  0.12307568804E+03  0.12307568804E+03  0.00000000000E+00 0. -1.
         21   -1    0    0  504  503 -0.00000000000E+00 -0.00000000000E+00 -0.79781859313E+02  0.79781859313E+02  0.00000000000E+00 0. -1.
         25    2    1    2    0    0 -0.44826646720E+01  0.14804546076E+02  0.89250934654E+02  0.15436709003E+03  0.12499680108E+03 0.  0.
          5    1    3    3  501    0 -0.42305900349E+02 -0.26763587165E+02  0.14035012857E+01  0.50080521345E+02  0.10000000000E+00 0.  1.
         -5    1    3    3    0  501  0.37823235677E+02  0.41568133241E+02  0.87847433368E+02  0.10428656868E+03  0.10000000000E+00 0.  1.
         21    1    1    2  504  502  0.44826646720E+01 -0.14804546076E+02 -0.45957105923E+02  0.48490457329E+02  0.00000000000E+00 0. -1.
<mgrwt>
<rscale>  1 0.12595026E+03</rscale>
<asrwt>0</asrwt>
<pdfrwt beam="1">  1       21 0.18934721E-01 0.12595026E+03</pdfrwt>
<pdfrwt beam="2">  1       21 0.12274132E-01 0.12595026E+03</pdfrwt>
<totfact> 0.14359530E+06</totfact>
</mgrwt>
</event>
<event>
 6    1  0.4271609E-002  0.1298474E+03  0.7546771E-02  0.1227682E+00
         21   -1    0    0  504  502  0.00000000000E+00  0.00000000000E+00  0.46061519945E+02  0.46061519945E+02  0.00000000000E+00 0. -1.
         21   -1    0    0  502  503 -0.00000000000E+00 -0.00000000000E+00 -0.22165795835E+03  0.22165795835E+03  0.00000000000E+00 0. -1.
         25    2    1    2    0    0  0.34660741279E+02  0.58436124066E+01 -0.53109520520E+02  0.14028887034E+03  0.12499932471E+03 0.  0.
          5    1    3    3  501    0 -0.16178527137E+02 -0.41756949441E+02  0.10467608255E+02  0.45988785476E+02  0.10000000000E+00 0. -1.
         -5    1    3    3    0  501  0.50839268416E+02  0.47600561848E+02 -0.63577128774E+02  0.94300084859E+02  0.10000000000E+00 0. -1.
         21    1    1    2  504  503 -0.34660741279E+02 -0.58436124066E+01 -0.12248691788E+03  0.12743060796E+03  0.00000000000E+00 0. -1.
<mgrwt>
<rscale>  1 0.12984739E+03</rscale>
<asrwt>0</asrwt>
<pdfrwt beam="1">  1       21 0.70863876E-02 0.12984739E+03</pdfrwt>
<pdfrwt beam="2">  1       21 0.34101225E-01 0.12984739E+03</pdfrwt>
<totfact> 0.12264679E+06</totfact>
</mgrwt>
</event>
<event>
 6    1  0.4271609E-002  0.1272938E+03  0.7546771E-02  0.1231527E+00
         21   -1    0    0  503  502  0.00000000000E+00  0.00000000000E+00  0.67092843612E+02  0.67092843612E+02  0.00000000000E+00 0.  1.
         21   -1    0    0  504  503 -0.00000000000E+00 -0.00000000000E+00 -0.90548195516E+02  0.90548195516E+02  0.00000000000E+00 0.  1.
         25    2    1    2    0    0 -0.19242425378E+02 -0.14374797182E+02 -0.50725582031E+01  0.12739483552E+03  0.12500722996E+03 0.  0.
          5    1    3    3  501    0 -0.61781143880E+01  0.18680907251E+02 -0.59343436336E+02  0.62520387309E+02  0.10000000000E+00 0. -1.
         -5    1    3    3    0  501 -0.13064310990E+02 -0.33055704433E+02  0.54270878133E+02  0.64874448210E+02  0.10000000000E+00 0. -1.
         21    1    1    2  504  502  0.19242425378E+02  0.14374797182E+02 -0.18382793702E+02  0.30246203609E+02  0.00000000000E+00 0.  1.
<mgrwt>
<rscale>  1 0.12729381E+03</rscale>
<asrwt>0</asrwt>
<pdfrwt beam="1">  1       21 0.10321976E-01 0.12729381E+03</pdfrwt>
<pdfrwt beam="2">  1       21 0.13930492E-01 0.12729381E+03</pdfrwt>
<totfact> 0.34015086E+06</totfact>
</mgrwt>
</event>
<event>
 6    1  0.4271609E-002  0.1262399E+03  0.7546771E-02  0.1233144E+00
         21   -1    0    0  503  502  0.00000000000E+00  0.00000000000E+00  0.21649435142E+03  0.21649435142E+03  0.00000000000E+00 0. -1.
         21   -1    0    0  504  503 -0.00000000000E+00 -0.00000000000E+00 -0.27602901089E+02  0.27602901089E+02  0.00000000000E+00 0. -1.
         25    2    1    2    0    0 -0.14308999960E+02 -0.10364556271E+02  0.18794138300E+03  0.22640335146E+03  0.12499737038E+03 0.  0.
          5    1    3    3  501    0 -0.52545395239E+02 -0.48054642044E+02  0.90553051756E+02  0.11519606055E+03  0.10000000000E+00 0.  1.
         -5    1    3    3    0  501  0.38236395280E+02  0.37690085773E+02  0.97388331244E+02  0.11120729091E+03  0.10000000000E+00 0.  1.
         21    1    1    2  504  502  0.14308999960E+02  0.10364556271E+02  0.95006733335E+00  0.17693901053E+02  0.00000000000E+00 0. -1.
<mgrwt>
<rscale>  1 0.12623991E+03</rscale>
<asrwt>0</asrwt>
<pdfrwt beam="1">  1       21 0.33306822E-01 0.12623991E+03</pdfrwt>
<pdfrwt beam="2">  1       21 0.42466003E-02 0.12623991E+03</pdfrwt>
<totfact> 0.30456899E+06</totfact>
</mgrwt>
</event>
<event>
 6    1  0.4271609E-002  0.1470209E+03  0.7546771E-02  0.1204182E+00
         21   -1    0    0  504  502  0.00000000000E+00  0.00000000000E+00  0.14869111208E+02  0.14869111208E+02  0.00000000000E+00 0. -1.
         21   -1    0    0  502  503 -0.00000000000E+00 -0.00000000000E+00 -0.97279063778E+03  0.97279063778E+03  0.00000000000E+00 0. -1.
         25    2    1    2    0    0 -0.42998065652E+02  0.64333064523E+02 -0.43811626773E+03  0.46212660640E+03  0.12501023738E+03 0.  0.
          5    1    3    3  501    0  0.13749342833E+02  0.54312281033E+02 -0.70643962183E+02  0.90163449868E+02  0.10000000000E+00 0.  1.
         -5    1    3    3    0  501 -0.56747408485E+02  0.10020783491E+02 -0.36747230555E+03  0.37196315653E+03  0.10000000000E+00 0.  1.
         21    1    1    2  504  503  0.42998065652E+02 -0.64333064523E+02 -0.51980525885E+03  0.52553314259E+03  0.00000000000E+00 0. -1.
<mgrwt>
<rscale>  1 0.14702087E+03</rscale>
<asrwt>0</asrwt>
<pdfrwt beam="1">  1       21 0.22875558E-02 0.14702087E+03</pdfrwt>
<pdfrwt beam="2">  1       21 0.14966008E+00 0.14702087E+03</pdfrwt>
<totfact> 0.30194736E+05</totfact>
</mgrwt>
</event>
<event>
 6    1  0.4271609E-002  0.1262142E+03  0.7546771E-02  0.1233184E+00
         21   -1    0    0  504  502  0.00000000000E+00  0.00000000000E+00  0.42756709094E+03  0.42756709094E+03  0.00000000000E+00 0. -1.
         21   -1    0    0  502  503 -0.00000000000E+00 -0.00000000000E+00 -0.24219024151E+02  0.24219024151E+02  0.00000000000E+00 0. -1.
         25    2    1    2    0    0  0.15961391750E+02  0.71856723974E+01  0.41295953122E+03  0.43181663431E+03  0.12499452519E+03 0.  0.
          5    1    3    3  501    0 -0.41189044977E+02  0.53760992326E+01  0.31996187367E+03  0.32264694400E+03  0.10000000000E+00 0.  1.
         -5    1    3    3    0  501  0.57150436727E+02  0.18095731648E+01  0.92997657548E+02  0.10916969031E+03  0.10000000000E+00 0.  1.
         21    1    1    2  504  503 -0.15961391750E+02 -0.71856723974E+01 -0.96114644265E+01  0.19969480785E+02  0.00000000000E+00 0. -1.
<mgrwt>
<rscale>  1 0.12621423E+03</rscale>
<asrwt>0</asrwt>
<pdfrwt beam="1">  1       21 0.65779547E-01 0.12621423E+03</pdfrwt>
<pdfrwt beam="2">  1       21 0.37260040E-02 0.12621423E+03</pdfrwt>
<totfact> 0.94041952E+05</totfact>
</mgrwt>
</event>
<event>
 6    1  0.4271609E-002  0.1278405E+03  0.7546771E-02  0.1230696E+00
         21   -1    0    0  504  502  0.00000000000E+00  0.00000000000E+00  0.32880459032E+02  0.32880459032E+02  0.00000000000E+00 0.  1.
         21   -1    0    0  502  503 -0.00000000000E+00 -0.00000000000E+00 -0.19162464050E+03  0.19162464050E+03  0.00000000000E+00 0.  1.
         25    2    1    2    0    0 -0.10368881598E+02 -0.24734120744E+02 -0.14811518612E+03  0.19565607915E+03  0.12499560999E+03 0.  0.
          5    1    3    3  501    0  0.52895551742E+01 -0.73670950088E+02 -0.10613458739E+03  0.12930564149E+03  0.10000000000E+00 0. -1.
         -5    1    3    3    0  501 -0.15658436772E+02  0.48936829344E+02 -0.41980598729E+02  0.66350437662E+02  0.10000000000E+00 0. -1.
         21    1    1    2  504  503  0.10368881598E+02  0.24734120744E+02 -0.10628995346E+02  0.28849020376E+02  0.00000000000E+00 0. -1.
<mgrwt>
<rscale>  1 0.12784050E+03</rscale>
<asrwt>0</asrwt>
<pdfrwt beam="1">  1       21 0.50585322E-02 0.12784050E+03</pdfrwt>
<pdfrwt beam="2">  1       21 0.29480714E-01 0.12784050E+03</pdfrwt>
<totfact> 0.28806369E+06</totfact>
</mgrwt>
</event>
<event>
 6    1  0.4271609E-002  0.1265317E+03  0.7546771E-02  0.1232695E+00
         21   -1    0    0  503  502  0.00000000000E+00  0.00000000000E+00  0.69290011699E+02  0.69290011699E+02  0.00000000000E+00 0.  1.
         21   -1    0    0  504  503 -0.00000000000E+00 -0.00000000000E+00 -0.79145037257E+02  0.79145037257E+02  0.00000000000E+00 0.  1.
         25    2    1    2    0    0  0.16156855505E+02 -0.11154856340E+02 -0.14541171092E+00  0.12653182086E+03  0.12499922299E+03 0.  0.
          5    1    3    3  501    0  0.49699892393E+02 -0.16593958226E+02 -0.45818271140E+02  0.69604329777E+02  0.10000000000E+00 0. -1.
         -5    1    3    3    0  501 -0.33543036889E+02  0.54391018864E+01  0.45672859429E+02  0.56927491087E+02  0.10000000000E+00 0. -1.
         21    1    1    2  504  502 -0.16156855505E+02  0.11154856340E+02 -0.97096138471E+01  0.21903228091E+02  0.00000000000E+00 0. -1.
<mgrwt>
<rscale>  1 0.12653174E+03</rscale>
<asrwt>0</asrwt>
<pdfrwt beam="1">  1       21 0.10660002E-01 0.12653174E+03</pdfrwt>
<pdfrwt beam="2">  1       21 0.12176160E-01 0.12653174E+03</pdfrwt>
<totfact> 0.40848112E+06</totfact>
</mgrwt>
</event>
<event>
 6    1  0.4271609E-002  0.1273224E+03  0.7546771E-02  0.1231484E+00
         21   -1    0    0  503  502  0.00000000000E+00  0.00000000000E+00  0.11216135559E+03  0.11216135559E+03  0.00000000000E+00 0.  1.
         21   -1    0    0  504  503 -0.00000000000E+00 -0.00000000000E+00 -0.11755402424E+03  0.11755402424E+03  0.00000000000E+00 0.  1.
         25    2    1    2    0    0 -0.58553449927E+01 -0.23511200033E+02  0.73617734894E+02  0.14707334778E+03  0.12499574850E+03 0.  0.
          5    1    3    3  501    0 -0.65273353153E+02 -0.12201710979E+02  0.32457734074E+02  0.73912156536E+02  0.10000000000E+00 0.  1.
         -5    1    3    3    0  501  0.59418008160E+02 -0.11309489054E+02  0.41160000820E+02  0.73161191242E+02  0.10000000000E+00 0.  1.
         21    1    1    2  504  502  0.58553449927E+01  0.23511200033E+02 -0.79010403551E+02  0.82642032049E+02  0.00000000000E+00 0.  1.
<mgrwt>
<rscale>  1 0.12732242E+03</rscale>
<asrwt>0</asrwt>
<pdfrwt beam="1">  1       21 0.17255593E-01 0.12732242E+03</pdfrwt>
<pdfrwt beam="2">  1       21 0.18085235E-01 0.12732242E+03</pdfrwt>
<totfact> 0.84685222E+05</totfact>
</mgrwt>
</event>
<event>
 6    1  0.4271609E-002  0.1316099E+03  0.7546771E-02  0.1225086E+00
         21   -1    0    0  503  502  0.00000000000E+00  0.00000000000E+00  0.77568085753E+03  0.77568085753E+03  0.00000000000E+00 0. -1.
         21   -1    0    0  504  503 -0.00000000000E+00 -0.00000000000E+00 -0.15441641740E+02  0.15441641740E+02  0.00000000000E+00 0. -1.
         25    2    1    2    0    0  0.93986780966E+01  0.40093231447E+02  0.72522100746E+03  0.73706625752E+03  0.12500142380E+03 0.  0.
          5    1    3    3  501    0 -0.36276860191E+02  0.54940935462E+02  0.58817093037E+03  0.59184421118E+03  0.10000000000E+00 0.  1.
         -5    1    3    3    0  501  0.45675538287E+02 -0.14847704015E+02  0.13705007709E+03  0.14522204634E+03  0.10000000000E+00 0.  1.
         21    1    1    2  504  502 -0.93986780966E+01 -0.40093231447E+02  0.35018208330E+02  0.54056241753E+02  0.00000000000E+00 0. -1.
<mgrwt>
<rscale>  1 0.13160987E+03</rscale>
<asrwt>0</asrwt>
<pdfrwt beam="1">  1       21 0.11933549E+00 0.13160987E+03</pdfrwt>
<pdfrwt beam="2">  1       21 0.23756378E-02 0.13160987E+03</pdfrwt>
<totfact> 0.50407119E+05</totfact>
</mgrwt>
</event>
<event>
 6    1  0.4271609E-002  0.1295868E+03  0.7546771E-02  0.1228070E+00
         21   -1    0    0  504  502  0.00000000000E+00  0.00000000000E+00  0.39095194335E+02  0.39095194335E+02  0.00000000000E+00 0. -1.
         21   -1    0    0  502  503 -0.00000000000E+00 -0.00000000000E+00 -0.17167741514E+03  0.17167741514E+03  0.00000000000E+00 0. -1.
         25    2    1    2    0    0  0.17795072653E+02  0.29163732382E+02 -0.10786362865E+03  0.16860393988E+03  0.12500215302E+03 0.  0.
          5    1    3    3  501    0 -0.51079019956E+02  0.45206302862E+01 -0.21981997161E+02  0.55791760835E+02  0.10000000000E+00 0. -1.
         -5    1    3    3    0  501  0.68874092609E+02  0.24643102096E+02 -0.85881631492E+02  0.11281217905E+03  0.10000000000E+00 0. -1.
         21    1    1    2  504  503 -0.17795072653E+02 -0.29163732382E+02 -0.24718592147E+02  0.42168669589E+02  0.00000000000E+00 0. -1.
<mgrwt>
<rscale>  1 0.12958675E+03</rscale>
<asrwt>0</asrwt>
<pdfrwt beam="1">  1       21 0.60146454E-02 0.12958675E+03</pdfrwt>
<pdfrwt beam="2">  1       21 0.26411910E-01 0.12958675E+03</pdfrwt>
<totfact> 0.26552888E+06</totfact>
</mgrwt>
</event>
<event>
 6    1  0.4271609E-002  0.1696539E+03  0.7546771E-02  0.1178209E+00
         21   -1    0    0  503  502  0.00000000000E+00  0.00000000000E+00  0.58259998854E+02  0.58259998854E+02  0.00000000000E+00 0.  1.
         21   -1    0    0  504  503 -0.00000000000E+00 -0.00000000000E+00 -0.70533677316E+03  0.70533677316E+03  0.00000000000E+00 0.  1.
         25    2    1    2    0    0  0.20889770882E+02  0.11278966394E+03 -0.84665090294E+02  0.18960653418E+03  0.12499827787E+03 0.  0.
          5    1    3    3  501    0 -0.45946657311E+01  0.39735829205E+02 -0.10265341615E+03  0.11017159762E+03  0.10000000000E+00 0. -1.
         -5    1    3    3    0  501  0.25484436613E+02  0.73053834732E+02  0.17988325854E+02  0.79434936555E+02  0.10000000000E+00 0. -1.
         21    1    1    2  504  502 -0.20889770882E+02 -0.11278966394E+03 -0.56241168401E+03  0.57399023783E+03  0.00000000000E+00 0.  1.
<mgrwt>
<rscale>  1 0.16965394E+03</rscale>
<asrwt>0</asrwt>
<pdfrwt beam="1">  1       21 0.89630759E-02 0.16965394E+03</pdfrwt>
<pdfrwt beam="2">  1       21 0.10851336E+00 0.16965394E+03</pdfrwt>
<totfact> 0.67145874E+04</totfact>
</mgrwt>
</event>
<event>
 6    1  0.4271609E-002  0.1270707E+03  0.7546771E-02  0.1231868E+00
         21   -1    0    0  504  502  0.00000000000E+00  0.00000000000E+00  0.23858098524E+03  0.23858098524E+03  0.00000000000E+00 0. -1.
         21   -1    0    0  502  503 -0.00000000000E+00 -0.00000000000E+00 -0.15289939272E+03  0.15289939272E+03  0.00000000000E+00 0. -1.
         25    2    1    2    0    0  0.22871262261E+02 -0.18440805463E+00  0.22063041105E+03  0.25460703407E+03  0.12499533942E+03 0.  0.
          5    1    3    3  501    0  0.51693650144E+02  0.44189108451E+02  0.16163630025E+03  0.17536024159E+03  0.10000000000E+00 0. -1.
         -5    1    3    3    0  501 -0.28822387884E+02 -0.44373516506E+02  0.58994110803E+02  0.79246792489E+02  0.10000000000E+00 0. -1.
         21    1    1    2  504  503 -0.22871262261E+02  0.18440805463E+00 -0.13494881853E+03  0.13687334388E+03  0.00000000000E+00 0. -1.
<mgrwt>
<rscale>  1 0.12707070E+03</rscale>
<asrwt>0</asrwt>
<pdfrwt beam="1">  1       21 0.36704767E-01 0.12707070E+03</pdfrwt>
<pdfrwt beam="2">  1       21 0.23522984E-01 0.12707070E+03</pdfrwt>
<totfact> 0.12458335E+05</totfact>
</mgrwt>
</event>
<event>
 6    1  0.4271609E-002  0.1453866E+03  0.7546771E-02  0.1206259E+00
         21   -1    0    0  503  502  0.00000000000E+00  0.00000000000E+00  0.10884081826E+04  0.10884081826E+04  0.00000000000E+00 0. -1.
         21   -1    0    0  504  503 -0.00000000000E+00 -0.00000000000E+00 -0.46275739534E+02  0.46275739534E+02  0.00000000000E+00 0. -1.
         25    2    1    2    0    0 -0.52629595993E+02  0.52369865178E+02  0.10500041977E+04  0.10600217385E+04  0.12499917527E+03 0.  0.
          5    1    3    3  501    0 -0.19043779283E+02  0.82724545404E+02  0.42587417512E+03  0.43425204545E+03  0.10000000000E+00 0.  1.
         -5    1    3    3    0  501 -0.33585816711E+02 -0.30354680226E+02  0.62413002253E+03  0.62576969303E+03  0.10000000000E+00 0.  1.
         21    1    1    2  504  502  0.52629595993E+02 -0.52369865178E+02 -0.78717545497E+01  0.74662183687E+02  0.00000000000E+00 0. -1.
<mgrwt>
<rscale>  1 0.14538663E+03</rscale>
<asrwt>0</asrwt>
<pdfrwt beam="1">  1       21 0.16744739E+00 0.14538663E+03</pdfrwt>
<pdfrwt beam="2">  1       21 0.71193454E-02 0.14538663E+03</pdfrwt>
<totfact> 0.33740970E+04</totfact>
</mgrwt>
</event>
<event>
 6    1  0.4271609E-002  0.1263594E+03  0.7546771E-02  0.1232960E+00
         21   -1    0    0  503  502  0.00000000000E+00  0.00000000000E+00  0.72275194987E+03  0.72275194987E+03  0.00000000000E+00 0.  1.
         21   -1    0    0  504  503 -0.00000000000E+00 -0.00000000000E+00 -0.18983663243E+02  0.18983663243E+02  0.00000000000E+00 0.  1.
         25    2    1    2    0    0  0.15045192422E+02 -0.10748971512E+02  0.71080677517E+03  0.72195080772E+03  0.12499919576E+03 0.  0.
          5    1    3    3  501    0  0.45640718098E+02 -0.55588973380E+02  0.38751784133E+03  0.39413613950E+03  0.10000000000E+00 0. -1.
         -5    1    3    3    0  501 -0.30595525676E+02  0.44840001868E+02  0.32328893384E+03  0.32781466822E+03  0.10000000000E+00 0. -1.
         21    1    1    2  504  502 -0.15045192422E+02  0.10748971512E+02 -0.70384885393E+01  0.19784805395E+02  0.00000000000E+00 0.  1.
<mgrwt>
<rscale>  1 0.12635940E+03</rscale>
<asrwt>0</asrwt>
<pdfrwt beam="1">  1       21 0.11119259E+00 0.12635940E+03</pdfrwt>
<pdfrwt beam="2">  1       21 0.29205641E-02 0.12635940E+03</pdfrwt>
<totfact> 0.42715941E+05</totfact>
</mgrwt>
</event>
<event>
 6    1  0.4271609E-002  0.1877746E+03  0.7546771E-02  0.1160484E+00
         21   -1    0    0  503  502  0.00000000000E+00  0.00000000000E+00  0.40582278293E+03  0.40582278293E+03  0.00000000000E+00 0.  1.
         21   -1    0    0  504  503 -0.00000000000E+00 -0.00000000000E+00 -0.76102719062E+02  0.76102719062E+02  0.00000000000E+00 0.  1.
         25    2    1    2    0    0  0.10561726702E+03  0.92078302149E+02  0.27169072246E+03  0.33026527226E+03  0.12500352221E+03 0.  0.
          5    1    3    3  501    0  0.83840047669E+02  0.17887721597E+02  0.22295138810E+03  0.23886493178E+03  0.10000000000E+00 0. -1.
         -5    1    3    3    0  501  0.21777219353E+02  0.74190580552E+02  0.48739334365E+02  0.91400340479E+02  0.10000000000E+00 0. -1.
         21    1    1    2  504  502 -0.10561726702E+03 -0.92078302149E+02  0.58029341402E+02  0.15166022973E+03  0.00000000000E+00 0.  1.
<mgrwt>
<rscale>  1 0.18777460E+03</rscale>
<asrwt>0</asrwt>
<pdfrwt beam="1">  1       21 0.62434273E-01 0.18777460E+03</pdfrwt>
<pdfrwt beam="2">  1       21 0.11708111E-01 0.18777460E+03</pdfrwt>
<totfact> 0.14609093E+05</totfact>
</mgrwt>
</event>
<event>
 6    1  0.4271609E-002  0.1264238E+03  0.7546771E-02  0.1232861E+00
         21   -1    0    0  503  502  0.00000000000E+00  0.00000000000E+00  0.28751666314E+03  0.28751666314E+03  0.00000000000E+00 0.  1.
         21   -1    0    0  504  503 -0.00000000000E+00 -0.00000000000E+00 -0.72478867444E+02  0.72478867444E+02  0.00000000000E+00 0.  1.
         25    2    1    2    0    0 -0.14465168145E+02 -0.12226881858E+02  0.27201185011E+03  0.29995570542E+03  0.12499696352E+03 0.  0.
          5    1    3    3  501    0 -0.41321440376E+02 -0.58954002056E+02  0.16903735071E+03  0.18372988796E+03  0.10000000000E+00 0.  1.
         -5    1    3    3    0  501  0.26856272230E+02  0.46727120198E+02  0.10297449939E+03  0.11622581746E+03  0.10000000000E+00 0.  1.
         21    1    1    2  504  502  0.14465168145E+02  0.12226881858E+02 -0.56974054410E+02  0.60039825161E+02  0.00000000000E+00 0.  1.
<mgrwt>
<rscale>  1 0.12642381E+03</rscale>
<asrwt>0</asrwt>
<pdfrwt beam="1">  1       21 0.44233332E-01 0.12642381E+03</pdfrwt>
<pdfrwt beam="2">  1       21 0.11150595E-01 0.12642381E+03</pdfrwt>
<totfact> 0.33265122E+05</totfact>
</mgrwt>
</event>
<event>
 6    1  0.4271609E-002  0.1265928E+03  0.7546771E-02  0.1232601E+00
         21   -1    0    0  503  502  0.00000000000E+00  0.00000000000E+00  0.27762126622E+03  0.27762126622E+03  0.00000000000E+00 0. -1.
         21   -1    0    0  504  503 -0.00000000000E+00 -0.00000000000E+00 -0.55743693496E+02  0.55743693496E+02  0.00000000000E+00 0. -1.
         25    2    1    2    0    0 -0.13560089824E+02  0.14790820080E+02  0.26061762239E+03  0.28973657627E+03  0.12499237629E+03 0.  0.
          5    1    3    3  501    0 -0.54458461958E+02  0.12668603414E+02  0.23470647792E+03  0.24127444616E+03  0.10000000000E+00 0.  1.
         -5    1    3    3    0  501  0.40898372134E+02  0.21222166659E+01  0.25911144470E+02  0.48462130107E+02  0.10000000000E+00 0.  1.
         21    1    1    2  504  502  0.13560089824E+02 -0.14790820080E+02 -0.38740049664E+02  0.43628383452E+02  0.00000000000E+00 0. -1.
<mgrwt>
<rscale>  1 0.12659281E+03</rscale>
<asrwt>0</asrwt>
<pdfrwt beam="1">  1       21 0.42710963E-01 0.12659281E+03</pdfrwt>
<pdfrwt beam="2">  1       21 0.85759530E-02 0.12659281E+03</pdfrwt>
<totfact> 0.56466221E+05</totfact>
</mgrwt>
</event>
<event>
 6    1  0.4271609E-002  0.1496152E+03  0.7546771E-02  0.1200947E+00
         21   -1    0    0  504  502  0.00000000000E+00  0.00000000000E+00  0.82300520628E+02  0.82300520628E+02  0.00000000000E+00 0.  1.
         21   -1    0    0  502  503 -0.00000000000E+00 -0.00000000000E+00 -0.12269349252E+04  0.12269349252E+04  0.00000000000E+00 0.  1.
         25    2    1    2    0    0 -0.29336534282E+02 -0.76921873400E+02  0.11608942899E+02  0.15006492972E+03  0.12492841440E+03 0.  0.
          5    1    3    3  501    0  0.34823275855E+02  0.64855371357E+01  0.25883779985E+02  0.43871434892E+02  0.10000000000E+00 0.  1.
         -5    1    3    3    0  501 -0.64159810136E+02 -0.83407410535E+02 -0.14274837085E+02  0.10619349482E+03  0.10000000000E+00 0.  1.
         21    1    1    2  504  503  0.29336534282E+02  0.76921873400E+02 -0.11562433474E+04  0.11591705161E+04  0.00000000000E+00 0.  1.
<mgrwt>
<rscale>  1 0.14961523E+03</rscale>
<asrwt>0</asrwt>
<pdfrwt beam="1">  1       21 0.12661618E-01 0.14961523E+03</pdfrwt>
<pdfrwt beam="2">  1       21 0.18875922E+00 0.14961523E+03</pdfrwt>
<totfact> 0.88091503E+03</totfact>
</mgrwt>
</event>
<event>
 6    1  0.4271609E-002  0.1259764E+03  0.7546771E-02  0.1233551E+00
         21   -1    0    0  504  502  0.00000000000E+00  0.00000000000E+00  0.26549610355E+03  0.26549610355E+03  0.00000000000E+00 0. -1.
         21   -1    0    0  502  503 -0.00000000000E+00 -0.00000000000E+00 -0.18935742388E+02  0.18935742388E+02  0.00000000000E+00 0. -1.
         25    2    1    2    0    0  0.26940439139E+01  0.15408496824E+02  0.21445753053E+03  0.24872090389E+03  0.12500150394E+03 0.  0.
          5    1    3    3  501    0 -0.40422990671E+01 -0.40780364846E+02  0.18879758795E+02  0.45120213107E+02  0.10000000000E+00 0. -1.
         -5    1    3    3    0  501  0.67363429810E+01  0.56188861670E+02  0.19557777173E+03  0.20360069079E+03  0.10000000000E+00 0. -1.
         21    1    1    2  504  503 -0.26940439139E+01 -0.15408496824E+02  0.32102830639E+02  0.35710942049E+02  0.00000000000E+00 0. -1.
<mgrwt>
<rscale>  1 0.12597641E+03</rscale>
<asrwt>0</asrwt>
<pdfrwt beam="1">  1       21 0.40845552E-01 0.12597641E+03</pdfrwt>
<pdfrwt beam="2">  1       21 0.29131913E-02 0.12597641E+03</pdfrwt>
<totfact> 0.37903709E+06</totfact>
</mgrwt>
</event>
<event>
 6    1  0.4271609E-002  0.1294410E+03  0.7546771E-02  0.1228288E+00
         21   -1    0    0  504  502  0.00000000000E+00  0.00000000000E+00  0.78610888223E+01  0.78610888223E+01  0.00000000000E+00 0.  1.
         21   -1    0    0  502  503 -0.00000000000E+00 -0.00000000000E+00 -0.14004596339E+04  0.14004596339E+04  0.00000000000E+00 0.  1.
         25    2    1    2    0    0  0.12600616818E+02  0.31164566066E+02 -0.54901849500E+03  0.56407117039E+03  0.12499988677E+03 0.  0.
          5    1    3    3  501    0 -0.19055023083E+02  0.42867405589E+02 -0.51134009675E+03  0.51348750025E+03  0.10000000000E+00 0. -1.
         -5    1    3    3    0  501  0.31655639901E+02 -0.11702839523E+02 -0.37678398249E+02  0.50583670142E+02  0.10000000000E+00 0. -1.
         21    1    1    2  504  503 -0.12600616818E+02 -0.31164566066E+02 -0.84358005012E+03  0.84424955237E+03  0.00000000000E+00 0.  1.
<mgrwt>
<rscale>  1 0.12944102E+03</rscale>
<asrwt>0</asrwt>
<pdfrwt beam="1">  1       21 0.12093985E-02 0.12944102E+03</pdfrwt>
<pdfrwt beam="2">  1       21 0.21545530E+00 0.12944102E+03</pdfrwt>
<totfact> 0.30698131E+05</totfact>
</mgrwt>
</event>
<event>
 6    1  0.4271609E-002  0.1311272E+03  0.7546771E-02  0.1225793E+00
         21   -1    0    0  503  502  0.00000000000E+00  0.00000000000E+00  0.22585396964E+03  0.22585396964E+03  0.00000000000E+00 0.  1.
         21   -1    0    0  504  503 -0.00000000000E+00 -0.00000000000E+00 -0.23970003590E+03  0.23970003590E+03  0.00000000000E+00 0. -1.
         25    2    1    2    0    0  0.33314059664E+02  0.21378403655E+02  0.20489413901E+03  0.24326109041E+03  0.12500994837E+03 0.  0.
          5    1    3    3  501    0  0.57734541263E+02 -0.27631988875E+02  0.57562478494E+02  0.86082826362E+02  0.10000000000E+00 0. -1.
         -5    1    3    3    0  501 -0.24420481599E+02  0.49010392529E+02  0.14733166052E+03  0.15717826405E+03  0.10000000000E+00 0. -1.
         21    1    1    2  504  502 -0.33314059664E+02 -0.21378403655E+02 -0.21874020527E+03  0.22229291513E+03  0.00000000000E+00 0. -1.
<mgrwt>
<rscale>  1 0.13112723E+03</rscale>
<asrwt>0</asrwt>
<pdfrwt beam="1">  1       21 0.34746765E-01 0.13112723E+03</pdfrwt>
<pdfrwt beam="2">  1       21 0.36876929E-01 0.13112723E+03</pdfrwt>
<totfact> 0.58288400E+04</totfact>
</mgrwt>
</event>
<event>
 6    1  0.4271609E-002  0.1272640E+03  0.7546771E-02  0.1231573E+00
         21   -1    0    0  503  502  0.00000000000E+00  0.00000000000E+00  0.15646190046E+03  0.15646190046E+03  0.00000000000E+00 0. -1.
         21   -1    0    0  504  503 -0.00000000000E+00 -0.00000000000E+00 -0.57760058166E+02  0.57760058166E+02  0.00000000000E+00 0. -1.
         25    2    1    2    0    0  0.20200762856E+02 -0.12744784372E+02  0.12521575220E+03  0.17853599825E+03  0.12500247087E+03 0.  0.
          5    1    3    3  501    0 -0.32853288227E+02  0.13100664026E+02  0.11281913046E+03  0.11823337999E+03  0.10000000000E+00 0. -1.
         -5    1    3    3    0  501  0.53054051083E+02 -0.25845448398E+02  0.12396621741E+02  0.60302618267E+02  0.10000000000E+00 0. -1.
         21    1    1    2  504  502 -0.20200762856E+02  0.12744784372E+02 -0.26513909911E+02  0.35685960368E+02  0.00000000000E+00 0. -1.
<mgrwt>
<rscale>  1 0.12726397E+03</rscale>
<asrwt>0</asrwt>
<pdfrwt beam="1">  1       21 0.24071061E-01 0.12726397E+03</pdfrwt>
<pdfrwt beam="2">  1       21 0.88861629E-02 0.12726397E+03</pdfrwt>
<totfact> 0.16196202E+06</totfact>
</mgrwt>
</event>
<event>
 6    1  0.4271609E-002  0.1310351E+03  0.7546771E-02  0.1225928E+00
         21   -1    0    0  504  502  0.00000000000E+00  0.00000000000E+00  0.18329727069E+03  0.18329727069E+03  0.00000000000E+00 0.  1.
         21   -1    0    0  502  503 -0.00000000000E+00 -0.00000000000E+00 -0.40545072944E+02  0.40545072944E+02  0.00000000000E+00 0.  1.
         25    2    1    2    0    0 -0.20222979288E+02 -0.33704802242E+02  0.12354912468E+03  0.18009602264E+03  0.12500083430E+03 0.  0.
          5    1    3    3  501    0 -0.25194474581E+02  0.41990173046E+02  0.76504304090E+02  0.90834215614E+02  0.10000000000E+00 0.  1.
         -5    1    3    3    0  501  0.49714952923E+01 -0.75694975288E+02  0.47044820589E+02  0.89261807026E+02  0.10000000000E+00 0.  1.
         21    1    1    2  504  503  0.20222979288E+02  0.33704802242E+02  0.19203073068E+02  0.43746320996E+02  0.00000000000E+00 0.  1.
<mgrwt>
<rscale>  1 0.13103508E+03</rscale>
<asrwt>0</asrwt>
<pdfrwt beam="1">  1       21 0.28199580E-01 0.13103508E+03</pdfrwt>
<pdfrwt beam="2">  1       21 0.62377036E-02 0.13103508E+03</pdfrwt>
<totfact> 0.22035711E+06</totfact>
</mgrwt>
</event>
<event>
 6    1  0.4271609E-002  0.1311283E+03  0.7546771E-02  0.1225791E+00
         21   -1    0    0  504  502  0.00000000000E+00  0.00000000000E+00  0.24708764385E+02  0.24708764385E+02  0.00000000000E+00 0.  1.
         21   -1    0    0  502  503 -0.00000000000E+00 -0.00000000000E+00 -0.32199158049E+03  0.32199158049E+03  0.00000000000E+00 0.  1.
         25    2    1    2    0    0 -0.17182573606E+01  0.39609844788E+02 -0.17858662345E+03  0.22155771280E+03  0.12499098293E+03 0.  0.
          5    1    3    3  501    0 -0.60761438279E+02  0.21469084120E+01 -0.91759246070E+02  0.11007420605E+03  0.10000000000E+00 0. -1.
         -5    1    3    3    0  501  0.59043180919E+02  0.37462936376E+02 -0.86827377381E+02  0.11148350675E+03  0.10000000000E+00 0. -1.
         21    1    1    2  504  503  0.17182573606E+01 -0.39609844788E+02 -0.11869619265E+03  0.12514263208E+03  0.00000000000E+00 0.  1.
<mgrwt>
<rscale>  1 0.13112833E+03</rscale>
<asrwt>0</asrwt>
<pdfrwt beam="1">  1       21 0.38013487E-02 0.13112833E+03</pdfrwt>
<pdfrwt beam="2">  1       21 0.49537162E-01 0.13112833E+03</pdfrwt>
<totfact> 0.16541402E+06</totfact>
</mgrwt>
</event>
<event>
 6    1  0.4271609E-002  0.1286535E+03  0.7546771E-02  0.1229468E+00
         21   -1    0    0  503  502  0.00000000000E+00  0.00000000000E+00  0.98091813421E+02  0.98091813421E+02  0.00000000000E+00 0.  1.
         21   -1    0    0  504  503 -0.00000000000E+00 -0.00000000000E+00 -0.15177311198E+03  0.15177311198E+03  0.00000000000E+00 0.  1.
         25    2    1    2    0    0 -0.15557547361E+02 -0.26086204314E+02  0.52851967461E+02  0.13908647937E+03  0.12501676265E+03 0.  0.
          5    1    3    3  501    0  0.58458689810E+01 -0.67224701244E+02  0.62208914172E+02  0.91778503169E+02  0.10000000000E+00 0. -1.
         -5    1    3    3    0  501 -0.21403416342E+02  0.41138496930E+02 -0.93569467106E+01  0.47307976203E+02  0.10000000000E+00 0. -1.
         21    1    1    2  504  502  0.15557547361E+02  0.26086204314E+02 -0.10653326603E+03  0.11077844603E+03  0.00000000000E+00 0.  1.
<mgrwt>
<rscale>  1 0.12865348E+03</rscale>
<asrwt>0</asrwt>
<pdfrwt beam="1">  1       21 0.15091048E-01 0.12865348E+03</pdfrwt>
<pdfrwt beam="2">  1       21 0.23349709E-01 0.12865348E+03</pdfrwt>
<totfact> 0.67253968E+05</totfact>
</mgrwt>
</event>
<event>
 6    1  0.4271609E-002  0.1430985E+03  0.7546771E-02  0.1209219E+00
         21   -1    0    0  503  502  0.00000000000E+00  0.00000000000E+00  0.33293909785E+03  0.33293909785E+03  0.00000000000E+00 0. -1.
         21   -1    0    0  504  503 -0.00000000000E+00 -0.00000000000E+00 -0.51767681125E+02  0.51767681125E+02  0.00000000000E+00 0. -1.
         25    2    1    2    0    0  0.19403758296E+02 -0.66901804598E+02  0.28067217291E+03  0.31504612625E+03  0.12499934288E+03 0.  0.
          5    1    3    3  501    0 -0.28071145870E+02 -0.53807358510E+02  0.48443785766E+02  0.77653277069E+02  0.10000000000E+00 0. -1.
         -5    1    3    3    0  501  0.47474904166E+02 -0.13094446088E+02  0.23222838715E+03  0.23739284918E+03  0.10000000000E+00 0. -1.
         21    1    1    2  504  502 -0.19403758296E+02  0.66901804598E+02  0.49924381497E+00  0.69660652731E+02  0.00000000000E+00 0. -1.
<mgrwt>
<rscale>  1 0.14309854E+03</rscale>
<asrwt>0</asrwt>
<pdfrwt beam="1">  1       21 0.51221398E-01 0.14309854E+03</pdfrwt>
<pdfrwt beam="2">  1       21 0.79642589E-02 0.14309854E+03</pdfrwt>
<totfact> 0.44184703E+05</totfact>
</mgrwt>
</event>
<event>
 6    1  0.4271609E-002  0.1270871E+03  0.7546771E-02  0.1231843E+00
         21   -1    0    0  503  502  0.00000000000E+00  0.00000000000E+00  0.42996230486E+01  0.42996230486E+01  0.00000000000E+00 0.  1.
         21   -1    0    0  504  503 -0.00000000000E+00 -0.00000000000E+00 -0.13271913428E+04  0.13271913428E+04  0.00000000000E+00 0.  1.
         25    2    1    2    0    0  0.19185269407E+02  0.12228923822E+02 -0.10528314449E+04  0.10604740417E+04  0.12503407751E+03 0.  0.
          5    1    3    3  501    0 -0.19866431859E+02  0.28749266603E+02 -0.87620577763E+02  0.94332237822E+02  0.10000000000E+00 0.  1.
         -5    1    3    3    0  501  0.39051701266E+02 -0.16520342781E+02 -0.96521086712E+03  0.96614180383E+03  0.10000000000E+00 0.  1.
         21    1    1    2  504  502 -0.19185269407E+02 -0.12228923822E+02 -0.27006027491E+03  0.27101692424E+03  0.00000000000E+00 0. -1.
<mgrwt>
<rscale>  1 0.12708714E+03</rscale>
<asrwt>0</asrwt>
<pdfrwt beam="1">  1       21 0.66147984E-03 0.12708714E+03</pdfrwt>
<pdfrwt beam="2">  1       21 0.20418348E+00 0.12708714E+03</pdfrwt>
<totfact> 0.92945276E+05</totfact>
</mgrwt>
</event>
<event>
 6    1  0.4271609E-002  0.1271741E+03  0.7546771E-02  0.1231710E+00
         21   -1    0    0  503  502  0.00000000000E+00  0.00000000000E+00  0.80054165772E+02  0.80054165772E+02  0.00000000000E+00 0.  1.
         21   -1    0    0  504  503 -0.00000000000E+00 -0.00000000000E+00 -0.93884222728E+03  0.93884222728E+03  0.00000000000E+00 0. -1.
         25    2    1    2    0    0 -0.97617421318E+01  0.21182757912E+02  0.29297062334E+02  0.13050504459E+03  0.12501699068E+03 0.  0.
          5    1    3    3  501    0  0.56903472665E+02  0.39003878708E+00  0.77905264189E+01  0.57435699991E+02  0.10000000000E+00 0. -1.
         -5    1    3    3    0  501 -0.66665214796E+02  0.20792719125E+02  0.21506535915E+02  0.73069344595E+02  0.10000000000E+00 0. -1.
         21    1    1    2  504  502  0.97617421318E+01 -0.21182757912E+02 -0.88808512384E+03  0.88839134846E+03  0.00000000000E+00 0. -1.
<mgrwt>
<rscale>  1 0.12717409E+03</rscale>
<asrwt>0</asrwt>
<pdfrwt beam="1">  1       21 0.12316027E-01 0.12717409E+03</pdfrwt>
<pdfrwt beam="2">  1       21 0.14443725E+00 0.12717409E+03</pdfrwt>
<totfact> 0.19406457E+04</totfact>
</mgrwt>
</event>
<event>
 6    1  0.4271609E-002  0.1311582E+03  0.7546771E-02  0.1225747E+00
         21   -1    0    0  504  502  0.00000000000E+00  0.00000000000E+00  0.38272629292E+02  0.38272629292E+02  0.00000000000E+00 0. -1.
         21   -1    0    0  502  503 -0.00000000000E+00 -0.00000000000E+00 -0.21172946816E+03  0.21172946816E+03  0.00000000000E+00 0. -1.
         25    2    1    2    0    0  0.18966757555E+02  0.34907350326E+02 -0.94636742981E+02  0.16173620078E+03  0.12499689805E+03 0.  0.
          5    1    3    3  501    0  0.54574690191E+02  0.34094365291E+02 -0.41396607666E+01  0.64482318083E+02  0.10000000000E+00 0. -1.
         -5    1    3    3    0  501 -0.35607932637E+02  0.81298503491E+00 -0.90497082214E+02  0.97253882702E+02  0.10000000000E+00 0. -1.
         21    1    1    2  504  503 -0.18966757555E+02 -0.34907350326E+02 -0.78820095886E+02  0.88265896666E+02  0.00000000000E+00 0. -1.
<mgrwt>
<rscale>  1 0.13115825E+03</rscale>
<asrwt>0</asrwt>
<pdfrwt beam="1">  1       21 0.58880970E-02 0.13115825E+03</pdfrwt>
<pdfrwt beam="2">  1       21 0.32573763E-01 0.13115825E+03</pdfrwt>
<totfact> 0.18393002E+06</totfact>
</mgrwt>
</event>
<event>
 6    1  0.4271609E-002  0.1264267E+03  0.7546771E-02  0.1232856E+00
         21   -1    0    0  503  502  0.00000000000E+00  0.00000000000E+00  0.33918238629E+03  0.33918238629E+03  0.00000000000E+00 0.  1.
         21   -1    0    0  504  503 -0.00000000000E+00 -0.00000000000E+00 -0.20227603675E+02  0.20227603675E+02  0.00000000000E+00 0.  1.
         25    2    1    2    0    0  0.18943179524E+02 -0.22013055227E+00  0.31584966520E+03  0.34021274375E+03  0.12499922999E+03 0.  0.
          5    1    3    3  501    0  0.64169741663E+02  0.19740292598E+02  0.24350408857E+03  0.25258995635E+03  0.10000000000E+00 0.  1.
         -5    1    3    3    0  501 -0.45226562139E+02 -0.19960423151E+02  0.72345576630E+02  0.87622787408E+02  0.10000000000E+00 0.  1.
         21    1    1    2  504  502 -0.18943179524E+02  0.22013055227E+00  0.31051174168E+01  0.19197246212E+02  0.00000000000E+00 0.  1.
<mgrwt>
<rscale>  1 0.12642666E+03</rscale>
<asrwt>0</asrwt>
<pdfrwt beam="1">  1       21 0.52181901E-01 0.12642666E+03</pdfrwt>
<pdfrwt beam="2">  1       21 0.31119393E-02 0.12642666E+03</pdfrwt>
<totfact> 0.20648587E+06</totfact>
</mgrwt>
</event>
<event>
 6    1  0.4271609E-002  0.1302882E+03  0.7546771E-02  0.1227029E+00
         21   -1    0    0  503  502  0.00000000000E+00  0.00000000000E+00  0.70525176109E+02  0.70525176109E+02  0.00000000000E+00 0. -1.
         21   -1    0    0  504  503 -0.00000000000E+00 -0.00000000000E+00 -0.10011094642E+03  0.10011094642E+03  0.00000000000E+00 0. -1.
         25    2    1    2    0    0  0.30471333603E+02 -0.20519560199E+02 -0.15153052595E+02  0.13116641436E+03  0.12500183491E+03 0.  0.
          5    1    3    3  501    0  0.43829464024E+02 -0.39148918170E+02  0.40235193322E+02  0.71221769791E+02  0.10000000000E+00 0. -1.
         -5    1    3    3    0  501 -0.13358130421E+02  0.18629357971E+02 -0.55388245918E+02  0.59944644570E+02  0.10000000000E+00 0. -1.
         21    1    1    2  504  502 -0.30471333603E+02  0.20519560199E+02 -0.14432717719E+02  0.39469708171E+02  0.00000000000E+00 0. -1.
<mgrwt>
<rscale>  1 0.13028819E+03</rscale>
<asrwt>0</asrwt>
<pdfrwt beam="1">  1       21 0.10850027E-01 0.13028819E+03</pdfrwt>
<pdfrwt beam="2">  1       21 0.15401684E-01 0.13028819E+03</pdfrwt>
<totfact> 0.26035534E+06</totfact>
</mgrwt>
</event>
<event>
 6    1  0.4271609E-002  0.1293327E+03  0.7546771E-02  0.1228449E+00
         21   -1    0    0  504  502  0.00000000000E+00  0.00000000000E+00  0.12547952484E+04  0.12547952484E+04  0.00000000000E+00 0. -1.
         21   -1    0    0  502  503 -0.00000000000E+00 -0.00000000000E+00 -0.17907095695E+02  0.17907095695E+02  0.00000000000E+00 0.  1.
         25    2    1    2    0    0  0.22209097664E+02 -0.24665971190E+02  0.12324480051E+04  0.12392154950E+04  0.12500121449E+03 0.  0.
          5    1    3    3  501    0  0.57461831901E+02 -0.57338902353E+02  0.79631840820E+03  0.80044526927E+03  0.10000000000E+00 0. -1.
         -5    1    3    3    0  501 -0.35252734236E+02  0.32672931164E+02  0.43612959688E+03  0.43877022572E+03  0.10000000000E+00 0. -1.
         21    1    1    2  504  503 -0.22209097664E+02  0.24665971190E+02  0.44401476459E+01  0.33486849134E+02  0.00000000000E+00 0.  1.
<mgrwt>
<rscale>  1 0.12933274E+03</rscale>
<asrwt>0</asrwt>
<pdfrwt beam="1">  1       21 0.19304535E+00 0.12933274E+03</pdfrwt>
<pdfrwt beam="2">  1       21 0.27549388E-02 0.12933274E+03</pdfrwt>
<totfact> 0.11257194E+05</totfact>
</mgrwt>
</event>
<event>
 6    1  0.4271609E-002  0.1274333E+03  0.7546771E-02  0.1231315E+00
         21   -1    0    0  504  502  0.00000000000E+00  0.00000000000E+00  0.42541786060E+02  0.42541786060E+02  0.00000000000E+00 0. -1.
         21   -1    0    0  502  503 -0.00000000000E+00 -0.00000000000E+00 -0.13752055723E+03  0.13752055723E+03  0.00000000000E+00 0. -1.
         25    2    1    2    0    0 -0.24731614940E+02 -0.16279460662E+01 -0.72564757080E+02  0.14664541624E+03  0.12499972459E+03 0.  0.
          5    1    3    3  501    0 -0.10270075340E+02 -0.63214413687E+02 -0.33215828650E+02  0.72144561945E+02  0.10000000000E+00 0.  1.
         -5    1    3    3    0  501 -0.14461539600E+02  0.61586467621E+02 -0.39348928430E+02  0.74500854292E+02  0.10000000000E+00 0.  1.
         21    1    1    2  504  503  0.24731614940E+02  0.16279460662E+01 -0.22414014085E+02  0.33416927048E+02  0.00000000000E+00 0. -1.
<mgrwt>
<rscale>  1 0.12743325E+03</rscale>
<asrwt>0</asrwt>
<pdfrwt beam="1">  1       21 0.65448902E-02 0.12743325E+03</pdfrwt>
<pdfrwt beam="2">  1       21 0.21157009E-01 0.12743325E+03</pdfrwt>
<totfact> 0.34873375E+06</totfact>
</mgrwt>
</event>
<event>
 6    1  0.4271609E-002  0.1451898E+03  0.7546771E-02  0.1206511E+00
         21   -1    0    0  503  502  0.00000000000E+00  0.00000000000E+00  0.10076314395E+03  0.10076314395E+03  0.00000000000E+00 0.  1.
         21   -1    0    0  504  503 -0.00000000000E+00 -0.00000000000E+00 -0.15599227467E+03  0.15599227467E+03  0.00000000000E+00 0.  1.
         25    2    1    2    0    0 -0.73753890742E+02  0.40096020170E+01 -0.94368817241E+02  0.17316338330E+03  0.12499748133E+03 0.  0.
          5    1    3    3  501    0 -0.76921479589E+02 -0.38516414263E+02 -0.97956993776E+02  0.13036874940E+03  0.10000000000E+00 0.  1.
         -5    1    3    3    0  501  0.31675888467E+01  0.42526016280E+02  0.35881765352E+01  0.42794633900E+02  0.10000000000E+00 0.  1.
         21    1    1    2  504  502  0.73753890742E+02 -0.40096020170E+01  0.39139686529E+02  0.83592035324E+02  0.00000000000E+00 0.  1.
<mgrwt>
<rscale>  1 0.14518982E+03</rscale>
<asrwt>0</asrwt>
<pdfrwt beam="1">  1       21 0.15502022E-01 0.14518982E+03</pdfrwt>
<pdfrwt beam="2">  1       21 0.23998811E-01 0.14518982E+03</pdfrwt>
<totfact> 0.60806389E+05</totfact>
</mgrwt>
</event>
<event>
 6    1  0.4271609E-002  0.1267865E+03  0.7546771E-02  0.1232303E+00
         21   -1    0    0  503  502  0.00000000000E+00  0.00000000000E+00  0.23785902087E+02  0.23785902087E+02  0.00000000000E+00 0. -1.
         21   -1    0    0  504  503 -0.00000000000E+00 -0.00000000000E+00 -0.31143563512E+03  0.31143563512E+03  0.00000000000E+00 0. -1.
         25    2    1    2    0    0  0.21212876686E+02  0.46101426746E+00 -0.15206352688E+03  0.19798517916E+03  0.12499846514E+03 0.  0.
          5    1    3    3  501    0  0.34768285436E+02 -0.52131961662E+02 -0.11875408317E+03  0.13427254883E+03  0.10000000000E+00 0.  1.
         -5    1    3    3    0  501 -0.13555408750E+02  0.52592975929E+02 -0.33309443710E+02  0.63712630331E+02  0.10000000000E+00 0.  1.
         21    1    1    2  504  502 -0.21212876686E+02 -0.46101426746E+00 -0.13558620615E+03  0.13723635805E+03  0.00000000000E+00 0.  1.
<mgrwt>
<rscale>  1 0.12678649E+03</rscale>
<asrwt>0</asrwt>
<pdfrwt beam="1">  1       21 0.36593700E-02 0.12678649E+03</pdfrwt>
<pdfrwt beam="2">  1       21 0.47913169E-01 0.12678649E+03</pdfrwt>
<totfact> 0.18853282E+06</totfact>
</mgrwt>
</event>
<event>
 6    1  0.4271609E-002  0.1275082E+03  0.7546771E-02  0.1231201E+00
         21   -1    0    0  503  502  0.00000000000E+00  0.00000000000E+00  0.28822523860E+03  0.28822523860E+03  0.00000000000E+00 0.  1.
         21   -1    0    0  504  503 -0.00000000000E+00 -0.00000000000E+00 -0.84109808619E+02  0.84109808619E+02  0.00000000000E+00 0. -1.
         25    2    1    2    0    0 -0.63156097602E+00 -0.25185062358E+02  0.27174105370E+03  0.30016918812E+03  0.12499461987E+03 0.  0.
          5    1    3    3  501    0 -0.67818873869E+01  0.50803997576E+02  0.10693353252E+03  0.11858258954E+03  0.10000000000E+00 0. -1.
         -5    1    3    3    0  501  0.61503264109E+01 -0.75989059934E+02  0.16480752118E+03  0.18158659858E+03  0.10000000000E+00 0. -1.
         21    1    1    2  504  502  0.63156097602E+00  0.25185062358E+02 -0.67625623721E+02  0.72165859095E+02  0.00000000000E+00 0. -1.
<mgrwt>
<rscale>  1 0.12750820E+03</rscale>
<asrwt>0</asrwt>
<pdfrwt beam="1">  1       21 0.44342344E-01 0.12750820E+03</pdfrwt>
<pdfrwt beam="2">  1       21 0.12939971E-01 0.12750820E+03</pdfrwt>
<totfact> 0.25425458E+05</totfact>
</mgrwt>
</event>
<event>
 6    1  0.4271609E-002  0.1260823E+03  0.7546771E-02  0.1233388E+00
         21   -1    0    0  504  502  0.00000000000E+00  0.00000000000E+00  0.69336722747E+02  0.69336722747E+02  0.00000000000E+00 0. -1.
         21   -1    0    0  502  503 -0.00000000000E+00 -0.00000000000E+00 -0.75074470613E+02  0.75074470613E+02  0.00000000000E+00 0. -1.
         25    2    1    2    0    0  0.41861270509E+01  0.15955853578E+02 -0.12251002080E+02  0.12667604736E+03  0.12499848399E+03 0.  0.
          5    1    3    3  501    0 -0.55957420317E+02  0.15207772481E+02 -0.28154494079E+02  0.64460800252E+02  0.10000000000E+00 0. -1.
         -5    1    3    3    0  501  0.60143547368E+02  0.74808109708E+00  0.15903491999E+02  0.62215247111E+02  0.10000000000E+00 0. -1.
         21    1    1    2  504  503 -0.41861270509E+01 -0.15955853578E+02  0.65132542140E+01  0.17735145997E+02  0.00000000000E+00 0. -1.
<mgrwt>
<rscale>  1 0.12608225E+03</rscale>
<asrwt>0</asrwt>
<pdfrwt beam="1">  1       21 0.10667188E-01 0.12608225E+03</pdfrwt>
<pdfrwt beam="2">  1       21 0.11549919E-01 0.12608225E+03</pdfrwt>
<totfact> 0.44786675E+06</totfact>
</mgrwt>
</event>
<event>
 6    1  0.4271609E-002  0.1265846E+03  0.7546771E-02  0.1232613E+00
         21   -1    0    0  504  502  0.00000000000E+00  0.00000000000E+00  0.31047839949E+03  0.31047839949E+03  0.00000000000E+00 0. -1.
         21   -1    0    0  502  503 -0.00000000000E+00 -0.00000000000E+00 -0.27229959650E+02  0.27229959650E+02  0.00000000000E+00 0. -1.
         25    2    1    2    0    0  0.29847599033E+01  0.19799159425E+02  0.29012479774E+03  0.31653762926E+03  0.12499102757E+03 0.  0.
          5    1    3    3  501    0  0.54680161932E+02  0.35666126481E+02  0.20967125956E+03  0.21959972625E+03  0.10000000000E+00 0.  1.
         -5    1    3    3    0  501 -0.51695402029E+02 -0.15866967056E+02  0.80453538180E+02  0.96937903011E+02  0.10000000000E+00 0.  1.
         21    1    1    2  504  503 -0.29847599033E+01 -0.19799159425E+02 -0.68763578937E+01  0.21170729876E+02  0.00000000000E+00 0. -1.
<mgrwt>
<rscale>  1 0.12658465E+03</rscale>
<asrwt>0</asrwt>
<pdfrwt beam="1">  1       21 0.47765905E-01 0.12658465E+03</pdfrwt>
<pdfrwt beam="2">  1       21 0.41892248E-02 0.12658465E+03</pdfrwt>
<totfact> 0.15160093E+06</totfact>
</mgrwt>
</event>
<event>
 6    1  0.4271609E-002  0.1296276E+03  0.7546771E-02  0.1228009E+00
         21   -1    0    0  503  502  0.00000000000E+00  0.00000000000E+00  0.69032713246E+02  0.69032713246E+02  0.00000000000E+00 0.  1.
         21   -1    0    0  504  503 -0.00000000000E+00 -0.00000000000E+00 -0.32892645663E+03  0.32892645663E+03  0.00000000000E+00 0. -1.
         25    2    1    2    0    0 -0.34593868307E+02  0.10108901963E+01  0.60541285209E+01  0.12976888632E+03  0.12492219083E+03 0.  0.
          5    1    3    3  501    0  0.25812035295E+02 -0.40673473210E+02  0.24570028554E+02  0.54076694538E+02  0.10000000000E+00 0. -1.
         -5    1    3    3    0  501 -0.60405903602E+02  0.41684363406E+02 -0.18515900033E+02  0.75692191781E+02  0.10000000000E+00 0. -1.
         21    1    1    2  504  502  0.34593868307E+02 -0.10108901963E+01 -0.26594787191E+03  0.26819028356E+03  0.00000000000E+00 0. -1.
<mgrwt>
<rscale>  1 0.12962759E+03</rscale>
<asrwt>0</asrwt>
<pdfrwt beam="1">  1       21 0.10620417E-01 0.12962759E+03</pdfrwt>
<pdfrwt beam="2">  1       21 0.50604071E-01 0.12962759E+03</pdfrwt>
<totfact> 0.27503286E+05</totfact>
</mgrwt>
</event>
<event>
 6    1  0.4271609E-002  0.1298229E+03  0.7546771E-02  0.1227719E+00
         21   -1    0    0  504  502  0.00000000000E+00  0.00000000000E+00  0.61423471673E+02  0.61423471673E+02  0.00000000000E+00 0.  1.
         21   -1    0    0  502  503 -0.00000000000E+00 -0.00000000000E+00 -0.13250968117E+03  0.13250968117E+03  0.00000000000E+00 0.  1.
         25    2    1    2    0    0  0.34635176643E+02  0.53973906347E+01 -0.19081330601E+02  0.13121764666E+03  0.12500098532E+03 0.  0.
          5    1    3    3  501    0 -0.17223973616E+02  0.36309608000E+02 -0.49381063304E+02  0.63667513798E+02  0.10000000000E+00 0.  1.
         -5    1    3    3    0  501  0.51859150258E+02 -0.30912217365E+02  0.30299732702E+02  0.67550132863E+02  0.10000000000E+00 0.  1.
         21    1    1    2  504  503 -0.34635176643E+02 -0.53973906347E+01 -0.52004878897E+02  0.62715506183E+02  0.00000000000E+00 0.  1.
<mgrwt>
<rscale>  1 0.12982285E+03</rscale>
<asrwt>0</asrwt>
<pdfrwt beam="1">  1       21 0.94497649E-02 0.12982285E+03</pdfrwt>
<pdfrwt beam="2">  1       21 0.20386105E-01 0.12982285E+03</pdfrwt>
<totfact> 0.19856600E+06</totfact>
</mgrwt>
</event>
<event>
 6    1  0.4271609E-002  0.1280035E+03  0.7546771E-02  0.1230449E+00
         21   -1    0    0  503  502  0.00000000000E+00  0.00000000000E+00  0.26036870103E+03  0.26036870103E+03  0.00000000000E+00 0. -1.
         21   -1    0    0  504  503 -0.00000000000E+00 -0.00000000000E+00 -0.77589593302E+02  0.77589593302E+02  0.00000000000E+00 0. -1.
         25    2    1    2    0    0  0.24386477800E+02 -0.12751182126E+02  0.24137862610E+03  0.27321884347E+03  0.12501040895E+03 0.  0.
          5    1    3    3  501    0 -0.13405554363E+02 -0.55273117926E+02  0.18329555404E+03  0.19191690021E+03  0.10000000000E+00 0. -1.
         -5    1    3    3    0  501  0.37792032163E+02  0.42521935800E+02  0.58083072056E+02  0.81301943264E+02  0.10000000000E+00 0. -1.
         21    1    1    2  504  502 -0.24386477800E+02  0.12751182126E+02 -0.58599518368E+02  0.64739450863E+02  0.00000000000E+00 0. -1.
<mgrwt>
<rscale>  1 0.12800350E+03</rscale>
<asrwt>0</asrwt>
<pdfrwt beam="1">  1       21 0.40056723E-01 0.12800350E+03</pdfrwt>
<pdfrwt beam="2">  1       21 0.11936861E-01 0.12800350E+03</pdfrwt>
<totfact> 0.36001521E+05</totfact>
</mgrwt>
</event>
<event>
 6    1  0.4271609E-002  0.1337559E+03  0.7546771E-02  0.1221987E+00
         21   -1    0    0  503  502  0.00000000000E+00  0.00000000000E+00  0.26796580623E+04  0.26796580623E+04  0.00000000000E+00 0.  1.
         21   -1    0    0  504  503 -0.00000000000E+00 -0.00000000000E+00 -0.10292030423E+02  0.10292030423E+02  0.00000000000E+00 0. -1.
         25    2    1    2    0    0 -0.16019277451E+02 -0.44819756338E+02  0.26119437060E+04  0.26153662384E+04  0.12500084055E+03 0.  0.
          5    1    3    3  501    0  0.29926654310E+02  0.31893718943E+02  0.97817014614E+03  0.97914741421E+03  0.10000000000E+00 0. -1.
         -5    1    3    3    0  501 -0.45945931761E+02 -0.76713475281E+02  0.16337735598E+04  0.16362188242E+04  0.10000000000E+00 0. -1.
         21    1    1    2  504  502  0.16019277451E+02  0.44819756338E+02  0.57422325879E+02  0.74583854269E+02  0.00000000000E+00 0. -1.
<mgrwt>
<rscale>  1 0.13375589E+03</rscale>
<asrwt>0</asrwt>
<pdfrwt beam="1">  1       21 0.41225453E+00 0.13375589E+03</pdfrwt>
<pdfrwt beam="2">  1       21 0.15833914E-02 0.13375589E+03</pdfrwt>
<totfact> 0.14314018E+04</totfact>
</mgrwt>
</event>
<event>
 6    1  0.4271609E-002  0.1264941E+03  0.7546771E-02  0.1232753E+00
         21   -1    0    0  503  502  0.00000000000E+00  0.00000000000E+00  0.41666606991E+03  0.41666606991E+03  0.00000000000E+00 0.  1.
         21   -1    0    0  504  503 -0.00000000000E+00 -0.00000000000E+00 -0.36764134848E+02  0.36764134848E+02  0.00000000000E+00 0.  1.
         25    2    1    2    0    0  0.17989647876E+02  0.73823492557E+01  0.40349399599E+03  0.42285714718E+03  0.12499054207E+03 0.  0.
          5    1    3    3  501    0  0.10483818195E+02  0.48448505290E+02  0.64727362895E+02  0.81527968306E+02  0.10000000000E+00 0. -1.
         -5    1    3    3    0  501  0.75058296816E+01 -0.41066156034E+02  0.33876663309E+03  0.34132917887E+03  0.10000000000E+00 0. -1.
         21    1    1    2  504  502 -0.17989647876E+02 -0.73823492557E+01 -0.23592060926E+02  0.30573057583E+02  0.00000000000E+00 0.  1.
<mgrwt>
<rscale>  1 0.12649412E+03</rscale>
<asrwt>0</asrwt>
<pdfrwt beam="1">  1       21 0.64102469E-01 0.12649412E+03</pdfrwt>
<pdfrwt beam="2">  1       21 0.56560211E-02 0.12649412E+03</pdfrwt>
<totfact> 0.49478491E+05</totfact>
</mgrwt>
</event>
<event>
 6    1  0.4271609E-002  0.1272762E+03  0.7546771E-02  0.1231554E+00
         21   -1    0    0  503  502  0.00000000000E+00  0.00000000000E+00  0.28502381945E+02  0.28502381945E+02  0.00000000000E+00 0.  1.
         21   -1    0    0  504  503 -0.00000000000E+00 -0.00000000000E+00 -0.22393890464E+03  0.22393890464E+03  0.00000000000E+00 0.  1.
         25    2    1    2    0    0 -0.84779156768E+01  0.22295690162E+02 -0.18877839628E+03  0.22767632139E+03  0.12502100449E+03 0.  0.
          5    1    3    3  501    0 -0.42299396659E+02 -0.26080503838E+02 -0.14750548227E+03  0.15565124136E+03  0.10000000000E+00 0. -1.
         -5    1    3    3    0  501  0.33821480982E+02  0.48376194000E+02 -0.41272914012E+02  0.72025080026E+02  0.10000000000E+00 0. -1.
         21    1    1    2  504  502  0.84779156768E+01 -0.22295690162E+02 -0.66581264184E+01  0.24764965201E+02  0.00000000000E+00 0.  1.
<mgrwt>
<rscale>  1 0.12727617E+03</rscale>
<asrwt>0</asrwt>
<pdfrwt beam="1">  1       21 0.43849817E-02 0.12727617E+03</pdfrwt>
<pdfrwt beam="2">  1       21 0.34452140E-01 0.12727617E+03</pdfrwt>
<totfact> 0.27032399E+06</totfact>
</mgrwt>
</event>
<event>
 6    1  0.4271609E-002  0.1392086E+03  0.7546771E-02  0.1214398E+00
         21   -1    0    0  504  502  0.00000000000E+00  0.00000000000E+00  0.21447421141E+03  0.21447421141E+03  0.00000000000E+00 0.  1.
         21   -1    0    0  502  503 -0.00000000000E+00 -0.00000000000E+00 -0.12440001812E+03  0.12440001812E+03  0.00000000000E+00 0.  1.
         25    2    1    2    0    0  0.27053849647E+02  0.54949284709E+02  0.18155557991E+03  0.22878254607E+03  0.12501076002E+03 0.  0.
          5    1    3    3  501    0 -0.37915396833E+02 -0.17221700997E+02  0.63239810299E+02  0.75719534526E+02  0.10000000000E+00 0.  1.
         -5    1    3    3    0  501  0.64969246480E+02  0.72170985706E+02  0.11831576961E+03  0.15306301155E+03  0.10000000000E+00 0.  1.
         21    1    1    2  504  503 -0.27053849647E+02 -0.54949284709E+02 -0.91481386618E+02  0.11009168347E+03  0.00000000000E+00 0.  1.
<mgrwt>
<rscale>  1 0.13920857E+03</rscale>
<asrwt>0</asrwt>
<pdfrwt beam="1">  1       21 0.32996033E-01 0.13920857E+03</pdfrwt>
<pdfrwt beam="2">  1       21 0.19138464E-01 0.13920857E+03</pdfrwt>
<totfact> 0.22464816E+05</totfact>
</mgrwt>
</event>
<event>
 6    1  0.4271609E-002  0.1290819E+03  0.7546771E-02  0.1228824E+00
         21   -1    0    0  503  502  0.00000000000E+00  0.00000000000E+00  0.68961555590E+03  0.68961555590E+03  0.00000000000E+00 0.  1.
         21   -1    0    0  504  503 -0.00000000000E+00 -0.00000000000E+00 -0.12152131832E+02  0.12152131832E+02  0.00000000000E+00 0.  1.
         25    2    1    2    0    0 -0.25442949746E+02 -0.19746252462E+02  0.63752404393E+03  0.65046064860E+03  0.12499956247E+03 0.  0.
          5    1    3    3  501    0  0.44264128038E+02  0.20181926274E+02  0.25305966568E+03  0.25769328197E+03  0.10000000000E+00 0.  1.
         -5    1    3    3    0  501 -0.69707077784E+02 -0.39928178736E+02  0.38446437824E+03  0.39276736663E+03  0.10000000000E+00 0.  1.
         21    1    1    2  504  502  0.25442949746E+02  0.19746252462E+02  0.39939380141E+02  0.51307039128E+02  0.00000000000E+00 0.  1.
<mgrwt>
<rscale>  1 0.12908195E+03</rscale>
<asrwt>0</asrwt>
<pdfrwt beam="1">  1       21 0.10609467E+00 0.12908195E+03</pdfrwt>
<pdfrwt beam="2">  1       21 0.18695593E-02 0.12908195E+03</pdfrwt>
<totfact> 0.98501183E+05</totfact>
</mgrwt>
</event>
<event>
 6    1  0.4271609E-002  0.1267280E+03  0.7546771E-02  0.1232393E+00
         21   -1    0    0  504  502  0.00000000000E+00  0.00000000000E+00  0.17012402368E+03  0.17012402368E+03  0.00000000000E+00 0. -1.
         21   -1    0    0  502  503 -0.00000000000E+00 -0.00000000000E+00 -0.32018464866E+02  0.32018464866E+02  0.00000000000E+00 0. -1.
         25    2    1    2    0    0  0.80255240638E+01  0.19272709644E+02  0.11909893882E+03  0.17390956491E+03  0.12499653261E+03 0.  0.
          5    1    3    3  501    0 -0.24587153604E+02 -0.46753574469E+02  0.55299736301E+02  0.76475458043E+02  0.10000000000E+00 0. -1.
         -5    1    3    3    0  501  0.32612677668E+02  0.66026284113E+02  0.63799202522E+02  0.97434106867E+02  0.10000000000E+00 0. -1.
         21    1    1    2  504  503 -0.80255240638E+01 -0.19272709644E+02  0.19006619990E+02  0.28232923635E+02  0.00000000000E+00 0. -1.
<mgrwt>
<rscale>  1 0.12672797E+03</rscale>
<asrwt>0</asrwt>
<pdfrwt beam="1">  1       21 0.26172926E-01 0.12672797E+03</pdfrwt>
<pdfrwt beam="2">  1       21 0.49259178E-02 0.12672797E+03</pdfrwt>
<totfact> 0.37800175E+06</totfact>
</mgrwt>
</event>
<event>
 6    1  0.4271609E-002  0.1269404E+03  0.7546771E-02  0.1232068E+00
         21   -1    0    0  504  502  0.00000000000E+00  0.00000000000E+00  0.30769722201E+02  0.30769722201E+02  0.00000000000E+00 0.  1.
         21   -1    0    0  502  503 -0.00000000000E+00 -0.00000000000E+00 -0.26621625768E+03  0.26621625768E+03  0.00000000000E+00 0.  1.
         25    2    1    2    0    0 -0.12018659374E+02 -0.18495785583E+02 -0.10514662603E+03  0.16483224872E+03  0.12500925964E+03 0.  0.
          5    1    3    3  501    0  0.75255559462E+01  0.65982033039E+01 -0.12625956968E+03  0.12665567186E+03  0.10000000000E+00 0.  1.
         -5    1    3    3    0  501 -0.19544215320E+02 -0.25093988887E+02  0.21112943652E+02  0.38176576855E+02  0.10000000000E+00 0.  1.
         21    1    1    2  504  503  0.12018659374E+02  0.18495785583E+02 -0.13029990945E+03  0.13215373116E+03  0.00000000000E+00 0.  1.
<mgrwt>
<rscale>  1 0.12694037E+03</rscale>
<asrwt>0</asrwt>
<pdfrwt beam="1">  1       21 0.47338036E-02 0.12694037E+03</pdfrwt>
<pdfrwt beam="2">  1       21 0.40956345E-01 0.12694037E+03</pdfrwt>
<totfact> 0.16883880E+06</totfact>
</mgrwt>
</event>
<event>
 6    1  0.4271609E-002  0.1364425E+03  0.7546771E-02  0.1218198E+00
         21   -1    0    0  503  502  0.00000000000E+00  0.00000000000E+00  0.24877862040E+03  0.24877862040E+03  0.00000000000E+00 0. -1.
         21   -1    0    0  504  503 -0.00000000000E+00 -0.00000000000E+00 -0.38673138225E+02  0.38673138225E+02  0.00000000000E+00 0. -1.
         25    2    1    2    0    0  0.39906444080E+02 -0.37343748034E+02  0.17724669762E+03  0.22368045224E+03  0.12501789111E+03 0.  0.
          5    1    3    3  501    0 -0.41166948800E+02 -0.64204284808E+01  0.96671782189E+02  0.10526814830E+03  0.10000000000E+00 0.  1.
         -5    1    3    3    0  501  0.81073392880E+02 -0.30923319554E+02  0.80574915435E+02  0.11841230393E+03  0.10000000000E+00 0.  1.
         21    1    1    2  504  502 -0.39906444080E+02  0.37343748034E+02  0.32858784550E+02  0.63771306389E+02  0.00000000000E+00 0. -1.
<mgrwt>
<rscale>  1 0.13644249E+03</rscale>
<asrwt>0</asrwt>
<pdfrwt beam="1">  1       21 0.38273633E-01 0.13644249E+03</pdfrwt>
<pdfrwt beam="2">  1       21 0.59497137E-02 0.13644249E+03</pdfrwt>
<totfact> 0.13164564E+06</totfact>
</mgrwt>
</event>
<event>
 6    1  0.4271609E-002  0.1321821E+03  0.7546771E-02  0.1224253E+00
         21   -1    0    0  504  502  0.00000000000E+00  0.00000000000E+00  0.96661342558E+02  0.96661342558E+02  0.00000000000E+00 0.  1.
         21   -1    0    0  502  503 -0.00000000000E+00 -0.00000000000E+00 -0.84969528713E+02  0.84969528713E+02  0.00000000000E+00 0.  1.
         25    2    1    2    0    0 -0.80452139768E+01 -0.42234246516E+02  0.28928664531E+02  0.13531061578E+03  0.12499455214E+03 0.  0.
          5    1    3    3  501    0  0.34207233587E+02  0.12440764990E+02  0.51103065369E+02  0.62741061143E+02  0.10000000000E+00 0. -1.
         -5    1    3    3    0  501 -0.42252447564E+02 -0.54675011506E+02 -0.22174400838E+02  0.72569554642E+02  0.10000000000E+00 0. -1.
         21    1    1    2  504  503  0.80452139768E+01  0.42234246516E+02 -0.17236850686E+02  0.46320255486E+02  0.00000000000E+00 0.  1.
<mgrwt>
<rscale>  1 0.13218205E+03</rscale>
<asrwt>0</asrwt>
<pdfrwt beam="1">  1       21 0.14870976E-01 0.13218205E+03</pdfrwt>
<pdfrwt beam="2">  1       21 0.13072235E-01 0.13218205E+03</pdfrwt>
<totfact> 0.19948394E+06</totfact>
</mgrwt>
</event>
<event>
 6    1  0.4271609E-002  0.1269245E+03  0.7546771E-02  0.1232092E+00
         21   -1    0    0  504  502  0.00000000000E+00  0.00000000000E+00  0.71646074405E+02  0.71646074405E+02  0.00000000000E+00 0.  1.
         21   -1    0    0  502  503 -0.00000000000E+00 -0.00000000000E+00 -0.11364852454E+03  0.11364852454E+03  0.00000000000E+00 0.  1.
         25    2    1    2    0    0 -0.10762087921E+02 -0.19232307469E+02  0.11486586700E+02  0.12744322689E+03  0.12499652083E+03 0.  0.
          5    1    3    3  501    0 -0.51018925158E+01 -0.69365607869E+02 -0.13955493242E+02  0.70939288507E+02  0.10000000000E+00 0.  1.
         -5    1    3    3    0  501 -0.56601954052E+01  0.50133300400E+02  0.25442079942E+02  0.56503938383E+02  0.10000000000E+00 0.  1.
         21    1    1    2  504  503  0.10762087921E+02  0.19232307469E+02 -0.53489036840E+02  0.57851372059E+02  0.00000000000E+00 0.  1.
<mgrwt>
<rscale>  1 0.12692452E+03</rscale>
<asrwt>0</asrwt>
<pdfrwt beam="1">  1       21 0.11022473E-01 0.12692452E+03</pdfrwt>
<pdfrwt beam="2">  1       21 0.17484388E-01 0.12692452E+03</pdfrwt>
<totfact> 0.20096685E+06</totfact>
</mgrwt>
</event>
<event>
 6    1  0.4271609E-002  0.1272046E+03  0.7546771E-02  0.1231664E+00
         21   -1    0    0  503  502  0.00000000000E+00  0.00000000000E+00  0.25815804094E+03  0.25815804094E+03  0.00000000000E+00 0. -1.
         21   -1    0    0  504  503 -0.00000000000E+00 -0.00000000000E+00 -0.29899885467E+02  0.29899885467E+02  0.00000000000E+00 0. -1.
         25    2    1    2    0    0 -0.23662703111E+02  0.19130187176E+01  0.23145191832E+03  0.26410415259E+03  0.12496971538E+03 0.  0.
          5    1    3    3  501    0  0.29468524948E+02  0.40183782577E+02  0.47490547709E+02  0.68836708714E+02  0.10000000000E+00 0.  1.
         -5    1    3    3    0  501 -0.53131228059E+02 -0.38270763860E+02  0.18396137061E+03  0.19526744388E+03  0.10000000000E+00 0.  1.
         21    1    1    2  504  502  0.23662703111E+02 -0.19130187176E+01 -0.31937628420E+01  0.23953773820E+02  0.00000000000E+00 0. -1.
<mgrwt>
<rscale>  1 0.12720461E+03</rscale>
<asrwt>0</asrwt>
<pdfrwt beam="1">  1       21 0.39716620E-01 0.12720461E+03</pdfrwt>
<pdfrwt beam="2">  1       21 0.45999826E-02 0.12720461E+03</pdfrwt>
<totfact> 0.18838269E+06</totfact>
</mgrwt>
</event>
<event>
 6    1  0.4271609E-002  0.1279746E+03  0.7546771E-02  0.1230492E+00
         21   -1    0    0  504  502  0.00000000000E+00  0.00000000000E+00  0.19780103925E+03  0.19780103925E+03  0.00000000000E+00 0.  1.
         21   -1    0    0  502  503 -0.00000000000E+00 -0.00000000000E+00 -0.30685275175E+02  0.30685275175E+02  0.00000000000E+00 0.  1.
         25    2    1    2    0    0  0.26409141963E+02 -0.71958873252E+01  0.14410472114E+03  0.19272695662E+03  0.12501314163E+03 0.  0.
          5    1    3    3  501    0  0.35498380888E+02  0.28215933109E+02  0.14908559600E+03  0.15582939024E+03  0.10000000000E+00 0. -1.
         -5    1    3    3    0  501 -0.90892389252E+01 -0.35411820434E+02 -0.49808748617E+01  0.36897566384E+02  0.10000000000E+00 0. -1.
         21    1    1    2  504  503 -0.26409141963E+02  0.71958873252E+01  0.23011042943E+02  0.35759357809E+02  0.00000000000E+00 0.  1.
<mgrwt>
<rscale>  1 0.12797464E+03</rscale>
<asrwt>0</asrwt>
<pdfrwt beam="1">  1       21 0.30430928E-01 0.12797464E+03</pdfrwt>
<pdfrwt beam="2">  1       21 0.47208117E-02 0.12797464E+03</pdfrwt>
<totfact> 0.30427987E+06</totfact>
</mgrwt>
</event>
<event>
 6    1  0.4271609E-002  0.1958984E+03  0.7546771E-02  0.1153246E+00
         21   -1    0    0  504  502  0.00000000000E+00  0.00000000000E+00  0.20108844356E+02  0.20108844356E+02  0.00000000000E+00 0. -1.
         21   -1    0    0  502  503 -0.00000000000E+00 -0.00000000000E+00 -0.15075327845E+04  0.15075327845E+04  0.00000000000E+00 0.  1.
         25    2    1    2    0    0 -0.12546771577E+03 -0.83761691058E+02 -0.90892927953E+03  0.92980031133E+03  0.12497205754E+03 0.  0.
          5    1    3    3  501    0 -0.11817088668E+03 -0.10276056913E+03 -0.59667331644E+03  0.61688179547E+03  0.10000000000E+00 0. -1.
         -5    1    3    3    0  501 -0.72968290883E+01  0.18998878069E+02 -0.31225596309E+03  0.31291851586E+03  0.10000000000E+00 0. -1.
         21    1    1    2  504  503  0.12546771577E+03  0.83761691058E+02 -0.57849466064E+03  0.59784131756E+03  0.00000000000E+00 0. -1.
<mgrwt>
<rscale>  1 0.19589840E+03</rscale>
<asrwt>0</asrwt>
<pdfrwt beam="1">  1       21 0.30936690E-02 0.19589840E+03</pdfrwt>
<pdfrwt beam="2">  1       21 0.23192808E+00 0.19589840E+03</pdfrwt>
<totfact> 0.51080030E+04</totfact>
</mgrwt>
</event>
<event>
 6    1  0.4271609E-002  0.1283716E+03  0.7546771E-02  0.1229892E+00
         21   -1    0    0  504  502  0.00000000000E+00  0.00000000000E+00  0.15421749670E+03  0.15421749670E+03  0.00000000000E+00 0.  1.
         21   -1    0    0  502  503 -0.00000000000E+00 -0.00000000000E+00 -0.47663258273E+02  0.47663258273E+02  0.00000000000E+00 0.  1.
         25    2    1    2    0    0  0.40924489458E+01  0.28934686206E+02  0.11404474371E+03  0.17171335744E+03  0.12500123741E+03 0.  0.
          5    1    3    3  501    0  0.63817998738E+02  0.11714639865E+02  0.45902335147E+02  0.79479583052E+02  0.10000000000E+00 0. -1.
         -5    1    3    3    0  501 -0.59725549793E+02  0.17220046341E+02  0.68142408561E+02  0.92233774391E+02  0.10000000000E+00 0. -1.
         21    1    1    2  504  503 -0.40924489458E+01 -0.28934686206E+02 -0.74905052826E+01  0.30167397528E+02  0.00000000000E+00 0.  1.
<mgrwt>
<rscale>  1 0.12837162E+03</rscale>
<asrwt>0</asrwt>
<pdfrwt beam="1">  1       21 0.23725769E-01 0.12837162E+03</pdfrwt>
<pdfrwt beam="2">  1       21 0.73328090E-02 0.12837162E+03</pdfrwt>
<totfact> 0.23186167E+06</totfact>
</mgrwt>
</event>
<event>
 6    1  0.4271609E-002  0.1849247E+03  0.7546771E-02  0.1163120E+00
         21   -1    0    0  504  502  0.00000000000E+00  0.00000000000E+00  0.34656248064E+03  0.34656248064E+03  0.00000000000E+00 0. -1.
         21   -1    0    0  502  503 -0.00000000000E+00 -0.00000000000E+00 -0.10032790273E+04  0.10032790273E+04  0.00000000000E+00 0.  1.
         25    2    1    2    0    0 -0.12124506826E+03 -0.62217083709E+02  0.31680518534E+03  0.36682782810E+03  0.12500319166E+03 0.  0.
          5    1    3    3  501    0 -0.13433493304E+02  0.25253479370E+02  0.10398190608E+02  0.30435658865E+02  0.10000000000E+00 0.  1.
         -5    1    3    3    0  501 -0.10781157495E+03 -0.87470563078E+02  0.30640699474E+03  0.33639216923E+03  0.10000000000E+00 0.  1.
         21    1    1    2  504  503  0.12124506826E+03  0.62217083709E+02 -0.97352173200E+03  0.98301367985E+03  0.00000000000E+00 0.  1.
<mgrwt>
<rscale>  1 0.18492466E+03</rscale>
<asrwt>0</asrwt>
<pdfrwt beam="1">  1       21 0.53317305E-01 0.18492466E+03</pdfrwt>
<pdfrwt beam="2">  1       21 0.15435062E+00 0.18492466E+03</pdfrwt>
<totfact> 0.93084301E+02</totfact>
</mgrwt>
</event>
<event>
 6    1  0.4271609E-002  0.1350077E+03  0.7546771E-02  0.1220209E+00
         21   -1    0    0  504  502  0.00000000000E+00  0.00000000000E+00  0.52977532976E+02  0.52977532976E+02  0.00000000000E+00 0.  1.
         21   -1    0    0  502  503 -0.00000000000E+00 -0.00000000000E+00 -0.21894986971E+03  0.21894986971E+03  0.00000000000E+00 0.  1.
         25    2    1    2    0    0 -0.47747871791E+02 -0.17948413428E+02 -0.47807040511E+02  0.14322215013E+03  0.12500026544E+03 0.  0.
          5    1    3    3  501    0 -0.67215949714E+02 -0.28901096588E+02  0.16622243325E+02  0.75030435512E+02  0.10000000000E+00 0. -1.
         -5    1    3    3    0  501  0.19468077923E+02  0.10952683160E+02 -0.64429283836E+02  0.68191714615E+02  0.10000000000E+00 0. -1.
         21    1    1    2  504  503  0.47747871791E+02  0.17948413428E+02 -0.11816529623E+03  0.12870525256E+03  0.00000000000E+00 0.  1.
<mgrwt>
<rscale>  1 0.13500767E+03</rscale>
<asrwt>0</asrwt>
<pdfrwt beam="1">  1       21 0.81503897E-02 0.13500767E+03</pdfrwt>
<pdfrwt beam="2">  1       21 0.33684595E-01 0.13500767E+03</pdfrwt>
<totfact> 0.98803915E+05</totfact>
</mgrwt>
</event>
<event>
 6    1  0.4271609E-002  0.1285004E+03  0.7546771E-02  0.1229698E+00
         21   -1    0    0  504  502  0.00000000000E+00  0.00000000000E+00  0.72561369811E+02  0.72561369811E+02  0.00000000000E+00 0.  1.
         21   -1    0    0  502  503 -0.00000000000E+00 -0.00000000000E+00 -0.15170662695E+03  0.15170662695E+03  0.00000000000E+00 0.  1.
         25    2    1    2    0    0  0.20372688766E+02 -0.21734135495E+02  0.11345244088E+02  0.12900021676E+03  0.12499968907E+03 0.  0.
          5    1    3    3  501    0  0.60348463443E+02 -0.18676683874E+02  0.44254119435E+02  0.77131009636E+02  0.10000000000E+00 0. -1.
         -5    1    3    3    0  501 -0.39975774677E+02 -0.30574516206E+01 -0.32908875347E+02  0.51869207128E+02  0.10000000000E+00 0. -1.
         21    1    1    2  504  503 -0.20372688766E+02  0.21734135495E+02 -0.90490501232E+02  0.95267780002E+02  0.00000000000E+00 0.  1.
<mgrwt>
<rscale>  1 0.12850036E+03</rscale>
<asrwt>0</asrwt>
<pdfrwt beam="1">  1       21 0.11163288E-01 0.12850036E+03</pdfrwt>
<pdfrwt beam="2">  1       21 0.23339481E-01 0.12850036E+03</pdfrwt>
<totfact> 0.11519334E+06</totfact>
</mgrwt>
</event>
<event>
 6    1  0.4271609E-002  0.1267103E+03  0.7546771E-02  0.1232420E+00
         21   -1    0    0  503  502  0.00000000000E+00  0.00000000000E+00  0.30644986606E+02  0.30644986606E+02  0.00000000000E+00 0. -1.
         21   -1    0    0  504  503 -0.00000000000E+00 -0.00000000000E+00 -0.33232346578E+03  0.33232346578E+03  0.00000000000E+00 0. -1.
         25    2    1    2    0    0  0.20314153922E+02 -0.42447706876E+01 -0.10323007427E+03  0.16343787243E+03  0.12499922793E+03 0.  0.
          5    1    3    3  501    0  0.22694511030E+02  0.48863359208E+02 -0.81285159380E+01  0.54486250333E+02  0.10000000000E+00 0. -1.
         -5    1    3    3    0  501 -0.23803571077E+01 -0.53108129895E+02 -0.95101558335E+02  0.10895162210E+03  0.10000000000E+00 0. -1.
         21    1    1    2  504  502 -0.20314153922E+02  0.42447706876E+01 -0.19844840490E+03  0.19953057995E+03  0.00000000000E+00 0. -1.
<mgrwt>
<rscale>  1 0.12671026E+03</rscale>
<asrwt>0</asrwt>
<pdfrwt beam="1">  1       21 0.47146132E-02 0.12671026E+03</pdfrwt>
<pdfrwt beam="2">  1       21 0.51126689E-01 0.12671026E+03</pdfrwt>
<totfact> 0.10821247E+06</totfact>
</mgrwt>
</event>
<event>
 6    1  0.4271609E-002  0.1378228E+03  0.7546771E-02  0.1216289E+00
         21   -1    0    0  503  502  0.00000000000E+00  0.00000000000E+00  0.43848988111E+03  0.43848988111E+03  0.00000000000E+00 0.  1.
         21   -1    0    0  504  503 -0.00000000000E+00 -0.00000000000E+00 -0.76589785548E+02  0.76589785548E+02  0.00000000000E+00 0.  1.
         25    2    1    2    0    0  0.55741593278E+02  0.16139909580E+02  0.41446587022E+03  0.43678035269E+03  0.12500998765E+03 0.  0.
          5    1    3    3  501    0  0.80921292795E+02  0.44993647946E+02  0.22187314276E+03  0.24041710725E+03  0.10000000000E+00 0.  1.
         -5    1    3    3    0  501 -0.25179699517E+02 -0.28853738366E+02  0.19259272747E+03  0.19636324544E+03  0.10000000000E+00 0.  1.
         21    1    1    2  504  502 -0.55741593278E+02 -0.16139909580E+02 -0.52565774661E+02  0.78299313969E+02  0.00000000000E+00 0.  1.
<mgrwt>
<rscale>  1 0.13782278E+03</rscale>
<asrwt>0</asrwt>
<pdfrwt beam="1">  1       21 0.67459980E-01 0.13782278E+03</pdfrwt>
<pdfrwt beam="2">  1       21 0.11783044E-01 0.13782278E+03</pdfrwt>
<totfact> 0.12428635E+05</totfact>
</mgrwt>
</event>
<event>
 6    1  0.4271609E-002  0.1353270E+03  0.7546771E-02  0.1219759E+00
         21   -1    0    0  503  502  0.00000000000E+00  0.00000000000E+00  0.34821036350E+02  0.34821036350E+02  0.00000000000E+00 0.  1.
         21   -1    0    0  504  503 -0.00000000000E+00 -0.00000000000E+00 -0.41967931947E+03  0.41967931947E+03  0.00000000000E+00 0.  1.
         25    2    1    2    0    0  0.39660327702E+02 -0.33388660280E+02 -0.10886685940E+03  0.17368189098E+03  0.12500264777E+03 0.  0.
          5    1    3    3  501    0 -0.19620284726E+02 -0.32889988720E+02 -0.10778770527E+03  0.11438927545E+03  0.10000000000E+00 0.  1.
         -5    1    3    3    0  501  0.59280612428E+02 -0.49867155989E+00 -0.10791541349E+01  0.59292615534E+02  0.10000000000E+00 0.  1.
         21    1    1    2  504  502 -0.39660327702E+02  0.33388660280E+02 -0.27599142371E+03  0.28081846483E+03  0.00000000000E+00 0.  1.
<mgrwt>
<rscale>  1 0.13532703E+03</rscale>
<asrwt>0</asrwt>
<pdfrwt beam="1">  1       21 0.53570825E-02 0.13532703E+03</pdfrwt>
<pdfrwt beam="2">  1       21 0.64566049E-01 0.13532703E+03</pdfrwt>
<totfact> 0.53350203E+05</totfact>
</mgrwt>
</event>
<event>
 6    1  0.4271609E-002  0.1262185E+03  0.7546771E-02  0.1233177E+00
         21   -1    0    0  504  502  0.00000000000E+00  0.00000000000E+00  0.42779265359E+03  0.42779265359E+03  0.00000000000E+00 0.  1.
         21   -1    0    0  502  503 -0.00000000000E+00 -0.00000000000E+00 -0.12142970718E+02  0.12142970718E+02  0.00000000000E+00 0.  1.
         25    2    1    2    0    0  0.87239501481E+01  0.15179132776E+02  0.35305191408E+03  0.37493567018E+03  0.12499835745E+03 0.  0.
          5    1    3    3  501    0  0.44917247078E+02  0.97758065808E+01  0.32650760967E+03  0.32972769774E+03  0.10000000000E+00 0.  1.
         -5    1    3    3    0  501 -0.36193296930E+02  0.54033261952E+01  0.26544304404E+02  0.45207972448E+02  0.10000000000E+00 0.  1.
         21    1    1    2  504  503 -0.87239501481E+01 -0.15179132776E+02  0.62597768796E+02  0.64999954125E+02  0.00000000000E+00 0.  1.
<mgrwt>
<rscale>  1 0.12621847E+03</rscale>
<asrwt>0</asrwt>
<pdfrwt beam="1">  1       21 0.65814243E-01 0.12621847E+03</pdfrwt>
<pdfrwt beam="2">  1       21 0.18681497E-02 0.12621847E+03</pdfrwt>
<totfact> 0.28960274E+06</totfact>
</mgrwt>
</event>
<event>
 6    1  0.4271609E-002  0.1346044E+03  0.7546771E-02  0.1220779E+00
         21   -1    0    0  504  502  0.00000000000E+00  0.00000000000E+00  0.16671738131E+02  0.16671738131E+02  0.00000000000E+00 0.  1.
         21   -1    0    0  502  503 -0.00000000000E+00 -0.00000000000E+00 -0.67297537280E+03  0.67297537280E+03  0.00000000000E+00 0.  1.
         25    2    1    2    0    0 -0.39739651145E+02 -0.30235896263E+02 -0.28716949749E+03  0.31715085521E+03  0.12499958150E+03 0.  0.
          5    1    3    3  501    0  0.14453432911E+02 -0.17417307661E+02 -0.24808534593E+03  0.24911566228E+03  0.10000000000E+00 0.  1.
         -5    1    3    3    0  501 -0.54193084056E+02 -0.12818588602E+02 -0.39084151558E+02  0.68035192925E+02  0.10000000000E+00 0.  1.
         21    1    1    2  504  503  0.39739651145E+02  0.30235896263E+02 -0.36913413719E+03  0.37249625573E+03  0.00000000000E+00 0.  1.
<mgrwt>
<rscale>  1 0.13460440E+03</rscale>
<asrwt>0</asrwt>
<pdfrwt beam="1">  1       21 0.25648823E-02 0.13460440E+03</pdfrwt>
<pdfrwt beam="2">  1       21 0.10353469E+00 0.13460440E+03</pdfrwt>
<totfact> 0.62506507E+05</totfact>
</mgrwt>
</event>
<event>
 6    1  0.4271609E-002  0.1385670E+03  0.7546771E-02  0.1215270E+00
         21   -1    0    0  503  502  0.00000000000E+00  0.00000000000E+00  0.33895064345E+03  0.33895064345E+03  0.00000000000E+00 0. -1.
         21   -1    0    0  504  503 -0.00000000000E+00 -0.00000000000E+00 -0.31606862328E+02  0.31606862328E+02  0.00000000000E+00 0. -1.
         25    2    1    2    0    0 -0.33796404151E+02  0.49337690310E+02  0.25868368668E+03  0.29345880663E+03  0.12499766725E+03 0.  0.
          5    1    3    3  501    0 -0.10461767187E+01  0.87577022863E+02  0.17747093228E+03  0.19790596561E+03  0.10000000000E+00 0. -1.
         -5    1    3    3    0  501 -0.32750227432E+02 -0.38239332552E+02  0.81212754395E+02  0.95552841022E+02  0.10000000000E+00 0. -1.
         21    1    1    2  504  502  0.33796404151E+02 -0.49337690310E+02  0.48660094448E+02  0.77098699148E+02  0.00000000000E+00 0. -1.
<mgrwt>
<rscale>  1 0.13856703E+03</rscale>
<asrwt>0</asrwt>
<pdfrwt beam="1">  1       21 0.52146250E-01 0.13856703E+03</pdfrwt>
<pdfrwt beam="2">  1       21 0.48625944E-02 0.13856703E+03</pdfrwt>
<totfact> 0.98671697E+05</totfact>
</mgrwt>
</event>
<event>
 6    1  0.4271609E-002  0.1322196E+03  0.7546771E-02  0.1224199E+00
         21   -1    0    0  504  502  0.00000000000E+00  0.00000000000E+00  0.15425269325E+02  0.15425269325E+02  0.00000000000E+00 0. -1.
         21   -1    0    0  502  503 -0.00000000000E+00 -0.00000000000E+00 -0.56109764121E+03  0.56109764121E+03  0.00000000000E+00 0. -1.
         25    2    1    2    0    0 -0.29903273119E+02 -0.31018875432E+02 -0.31117906257E+03  0.33810418541E+03  0.12500261931E+03 0.  0.
          5    1    3    3  501    0  0.42124620647E+02 -0.37015714549E+02 -0.17735457595E+03  0.18600887721E+03  0.10000000000E+00 0. -1.
         -5    1    3    3    0  501 -0.72027893766E+02  0.59968391168E+01 -0.13382448662E+03  0.15209530821E+03  0.10000000000E+00 0. -1.
         21    1    1    2  504  503  0.29903273119E+02  0.31018875432E+02 -0.23449330931E+03  0.23841872512E+03  0.00000000000E+00 0. -1.
<mgrwt>
<rscale>  1 0.13221963E+03</rscale>
<asrwt>0</asrwt>
<pdfrwt beam="1">  1       21 0.23731185E-02 0.13221963E+03</pdfrwt>
<pdfrwt beam="2">  1       21 0.86322707E-01 0.13221963E+03</pdfrwt>
<totfact> 0.10807154E+06</totfact>
</mgrwt>
</event>
<event>
 6    1  0.4271609E-002  0.1300106E+03  0.7546771E-02  0.1227440E+00
         21   -1    0    0  503  502  0.00000000000E+00  0.00000000000E+00  0.50782633165E+02  0.50782633165E+02  0.00000000000E+00 0. -1.
         21   -1    0    0  504  503 -0.00000000000E+00 -0.00000000000E+00 -0.13678193638E+03  0.13678193638E+03  0.00000000000E+00 0. -1.
         25    2    1    2    0    0 -0.34524179197E+02 -0.93068024065E+01 -0.59065036037E+02  0.14279861967E+03  0.12499692707E+03 0.  0.
          5    1    3    3  501    0 -0.37886676767E+02  0.54148530730E+02 -0.24659144919E+02  0.70537557973E+02  0.10000000000E+00 0.  1.
         -5    1    3    3    0  501  0.33624975701E+01 -0.63455333136E+02 -0.34405891117E+02  0.72261061692E+02  0.10000000000E+00 0.  1.
         21    1    1    2  504  502  0.34524179197E+02  0.93068024065E+01 -0.26934267179E+02  0.44765949881E+02  0.00000000000E+00 0. -1.
<mgrwt>
<rscale>  1 0.13001064E+03</rscale>
<asrwt>0</asrwt>
<pdfrwt beam="1">  1       21 0.78127127E-02 0.13001064E+03</pdfrwt>
<pdfrwt beam="2">  1       21 0.21043375E-01 0.13001064E+03</pdfrwt>
<totfact> 0.26029780E+06</totfact>
</mgrwt>
</event>
<event>
 6    1  0.4271609E-002  0.1266513E+03  0.7546771E-02  0.1232511E+00
         21   -1    0    0  503  502  0.00000000000E+00  0.00000000000E+00  0.28843634427E+02  0.28843634427E+02  0.00000000000E+00 0.  1.
         21   -1    0    0  504  503 -0.00000000000E+00 -0.00000000000E+00 -0.20253180571E+03  0.20253180571E+03  0.00000000000E+00 0.  1.
         25    2    1    2    0    0  0.97958283245E+01  0.17814173028E+02 -0.12208799524E+03  0.17591481283E+03  0.12500895880E+03 0.  0.
          5    1    3    3  501    0 -0.42583474254E+02  0.48130889830E+02 -0.77859838257E+02  0.10095592726E+03  0.10000000000E+00 0.  1.
         -5    1    3    3    0  501  0.52379302579E+02 -0.30316716801E+02 -0.44228156980E+02  0.74958885571E+02  0.10000000000E+00 0.  1.
         21    1    1    2  504  502 -0.97958283245E+01 -0.17814173028E+02 -0.51600176049E+02  0.55460627310E+02  0.00000000000E+00 0.  1.
<mgrwt>
<rscale>  1 0.12665126E+03</rscale>
<asrwt>0</asrwt>
<pdfrwt beam="1">  1       21 0.44374821E-02 0.12665126E+03</pdfrwt>
<pdfrwt beam="2">  1       21 0.31158740E-01 0.12665126E+03</pdfrwt>
<totfact> 0.32224423E+06</totfact>
</mgrwt>
</event>
<event>
 6    1  0.4271609E-002  0.1259296E+03  0.7546771E-02  0.1233624E+00
         21   -1    0    0  503  502  0.00000000000E+00  0.00000000000E+00  0.21622383296E+03  0.21622383296E+03  0.00000000000E+00 0. -1.
         21   -1    0    0  504  503 -0.00000000000E+00 -0.00000000000E+00 -0.25552173053E+02  0.25552173053E+02  0.00000000000E+00 0. -1.
         25    2    1    2    0    0 -0.12624897696E+02 -0.85914219484E+01  0.18799088282E+03  0.22627158282E+03  0.12500022638E+03 0.  0.
          5    1    3    3  501    0  0.37299172190E+02 -0.25936885096E+02  0.19061653889E+02  0.49267706497E+02  0.10000000000E+00 0.  1.
         -5    1    3    3    0  501 -0.49924069885E+02  0.17345463147E+02  0.16892922893E+03  0.17700387632E+03  0.10000000000E+00 0.  1.
         21    1    1    2  504  502  0.12624897696E+02  0.85914219484E+01  0.26807770909E+01  0.15504423199E+02  0.00000000000E+00 0. -1.
<mgrwt>
<rscale>  1 0.12592957E+03</rscale>
<asrwt>0</asrwt>
<pdfrwt beam="1">  1       21 0.33265204E-01 0.12592957E+03</pdfrwt>
<pdfrwt beam="2">  1       21 0.39311037E-02 0.12592957E+03</pdfrwt>
<totfact> 0.34707033E+06</totfact>
</mgrwt>
</event>
<event>
 6    1  0.4271609E-002  0.2100187E+03  0.7546771E-02  0.1141551E+00
         21   -1    0    0  504  502  0.00000000000E+00  0.00000000000E+00  0.13595679485E+03  0.13595679485E+03  0.00000000000E+00 0.  1.
         21   -1    0    0  502  503 -0.00000000000E+00 -0.00000000000E+00 -0.27154292703E+03  0.27154292703E+03  0.00000000000E+00 0.  1.
         25    2    1    2    0    0 -0.53368126117E+02  0.16011026164E+03 -0.10909328129E+03  0.23666259501E+03  0.12499754831E+03 0.  0.
          5    1    3    3  501    0 -0.25419494536E+02 -0.16241294539E+02 -0.25551876547E+02  0.39532755354E+02  0.10000000000E+00 0. -1.
         -5    1    3    3    0  501 -0.27948631581E+02  0.17635155618E+03 -0.83541404742E+02  0.19712983965E+03  0.10000000000E+00 0. -1.
         21    1    1    2  504  503  0.53368126117E+02 -0.16011026164E+03 -0.26492850898E+02  0.17083712687E+03  0.00000000000E+00 0.  1.
<mgrwt>
<rscale>  1 0.21001867E+03</rscale>
<asrwt>0</asrwt>
<pdfrwt beam="1">  1       21 0.20916430E-01 0.21001867E+03</pdfrwt>
<pdfrwt beam="2">  1       21 0.41775835E-01 0.21001867E+03</pdfrwt>
<totfact> 0.11630761E+05</totfact>
</mgrwt>
</event>
<event>
 6    1  0.4271609E-002  0.1311977E+03  0.7546771E-02  0.1225689E+00
         21   -1    0    0  503  502  0.00000000000E+00  0.00000000000E+00  0.12438588573E+03  0.12438588573E+03  0.00000000000E+00 0. -1.
         21   -1    0    0  504  503 -0.00000000000E+00 -0.00000000000E+00 -0.62690821053E+02  0.62690821053E+02  0.00000000000E+00 0. -1.
         25    2    1    2    0    0  0.31351958370E+02 -0.24588816146E+02  0.66245050030E+02  0.14697362037E+03  0.12500113303E+03 0.  0.
          5    1    3    3  501    0  0.32854165939E+02 -0.50236101136E+02 -0.14909493456E+02  0.61849535746E+02  0.10000000000E+00 0.  1.
         -5    1    3    3    0  501 -0.15022075695E+01  0.25647284990E+02  0.81154543486E+02  0.85124084626E+02  0.10000000000E+00 0.  1.
         21    1    1    2  504  502 -0.31351958370E+02  0.24588816146E+02 -0.45499853530E+01  0.40103086412E+02  0.00000000000E+00 0. -1.
<mgrwt>
<rscale>  1 0.13119771E+03</rscale>
<asrwt>0</asrwt>
<pdfrwt beam="1">  1       21 0.19136290E-01 0.13119771E+03</pdfrwt>
<pdfrwt beam="2">  1       21 0.96447417E-02 0.13119771E+03</pdfrwt>
<totfact> 0.21544046E+06</totfact>
</mgrwt>
</event>
<event>
 6    1  0.4271609E-002  0.1279253E+03  0.7546771E-02  0.1230567E+00
         21   -1    0    0  503  502  0.00000000000E+00  0.00000000000E+00  0.41223805784E+03  0.41223805784E+03  0.00000000000E+00 0. -1.
         21   -1    0    0  504  503 -0.00000000000E+00 -0.00000000000E+00 -0.55629999652E+02  0.55629999652E+02  0.00000000000E+00 0. -1.
         25    2    1    2    0    0 -0.22700033575E+02 -0.15053766786E+02  0.39814789258E+03  0.41819447035E+03  0.12499185270E+03 0.  0.
          5    1    3    3  501    0  0.35072078333E-01  0.22213488664E+02  0.51806538263E+01  0.22809854948E+02  0.10000000000E+00 0. -1.
         -5    1    3    3    0  501 -0.22735105653E+02 -0.37267255449E+02  0.39296723876E+03  0.39538461540E+03  0.10000000000E+00 0. -1.
         21    1    1    2  504  502  0.22700033575E+02  0.15053766786E+02 -0.41539834394E+02  0.49673587148E+02  0.00000000000E+00 0. -1.
<mgrwt>
<rscale>  1 0.12792525E+03</rscale>
<asrwt>0</asrwt>
<pdfrwt beam="1">  1       21 0.63421238E-01 0.12792525E+03</pdfrwt>
<pdfrwt beam="2">  1       21 0.85584618E-02 0.12792525E+03</pdfrwt>
<totfact> 0.24930359E+05</totfact>
</mgrwt>
</event>
<event>
 6    1  0.4271609E-002  0.1287894E+03  0.7546771E-02  0.1229263E+00
         21   -1    0    0  503  502  0.00000000000E+00  0.00000000000E+00  0.98432472337E+01  0.98432472337E+01  0.00000000000E+00 0. -1.
         21   -1    0    0  504  503 -0.00000000000E+00 -0.00000000000E+00 -0.64880955344E+03  0.64880955344E+03  0.00000000000E+00 0. -1.
         25    2    1    2    0    0  0.25176693747E+02 -0.18090286288E+02 -0.50918903182E+03  0.52522392332E+03  0.12500230050E+03 0.  0.
          5    1    3    3  501    0  0.97187323842E+01 -0.44802537122E+02 -0.48175289761E+03  0.48392931865E+03  0.10000000000E+00 0.  1.
         -5    1    3    3    0  501  0.15457961363E+02  0.26712250834E+02 -0.27436134207E+02  0.41294604664E+02  0.10000000000E+00 0.  1.
         21    1    1    2  504  502 -0.25176693747E+02  0.18090286288E+02 -0.12977727438E+03  0.13342887735E+03  0.00000000000E+00 0. -1.
<mgrwt>
<rscale>  1 0.12878936E+03</rscale>
<asrwt>0</asrwt>
<pdfrwt beam="1">  1       21 0.15143457E-02 0.12878936E+03</pdfrwt>
<pdfrwt beam="2">  1       21 0.99816856E-01 0.12878936E+03</pdfrwt>
<totfact> 0.15948136E+06</totfact>
</mgrwt>
</event>
<event>
 6    1  0.4271609E-002  0.1291183E+03  0.7546771E-02  0.1228770E+00
         21   -1    0    0  503  502  0.00000000000E+00  0.00000000000E+00  0.42726267691E+03  0.42726267691E+03  0.00000000000E+00 0.  1.
         21   -1    0    0  504  503 -0.00000000000E+00 -0.00000000000E+00 -0.86078904156E+03  0.86078904156E+03  0.00000000000E+00 0. -1.
         25    2    1    2    0    0  0.29707972257E+02 -0.12795076477E+02  0.41719344404E+03  0.43671719521E+03  0.12500104497E+03 0.  0.
          5    1    3    3  501    0  0.20126951027E+02 -0.45356689444E+02  0.39022020347E+03  0.39336260706E+03  0.10000000000E+00 0.  1.
         -5    1    3    3    0  501  0.95810212309E+01  0.32561612967E+02  0.26973240564E+02  0.43354588146E+02  0.10000000000E+00 0.  1.
         21    1    1    2  504  502 -0.29707972257E+02  0.12795076477E+02 -0.85071980869E+03  0.85133452326E+03  0.00000000000E+00 0. -1.
<mgrwt>
<rscale>  1 0.12911831E+03</rscale>
<asrwt>0</asrwt>
<pdfrwt beam="1">  1       21 0.65732720E-01 0.12911831E+03</pdfrwt>
<pdfrwt beam="2">  1       21 0.13242908E+00 0.12911831E+03</pdfrwt>
<totfact> 0.94777708E+02</totfact>
</mgrwt>
</event>
<event>
 6    1  0.4271609E-002  0.1291384E+03  0.7546771E-02  0.1228740E+00
         21   -1    0    0  503  502  0.00000000000E+00  0.00000000000E+00  0.49132542623E+01  0.49132542623E+01  0.00000000000E+00 0.  1.
         21   -1    0    0  504  503 -0.00000000000E+00 -0.00000000000E+00 -0.15073232184E+04  0.15073232184E+04  0.00000000000E+00 0. -1.
         25    2    1    2    0    0  0.47488297813E+01  0.32147738565E+02 -0.93233480891E+03  0.94123585000E+03  0.12498280254E+03 0.  0.
          5    1    3    3  501    0 -0.86273659924E+01 -0.39711336874E+02 -0.57875634563E+03  0.58018129867E+03  0.10000000000E+00 0.  1.
         -5    1    3    3    0  501  0.13376195774E+02  0.71859075439E+02 -0.35357846329E+03  0.36105455133E+03  0.10000000000E+00 0.  1.
         21    1    1    2  504  502 -0.47488297813E+01 -0.32147738565E+02 -0.57007515523E+03  0.57100062267E+03  0.00000000000E+00 0. -1.
<mgrwt>
<rscale>  1 0.12913841E+03</rscale>
<asrwt>0</asrwt>
<pdfrwt beam="1">  1       21 0.75588526E-03 0.12913841E+03</pdfrwt>
<pdfrwt beam="2">  1       21 0.23189588E+00 0.12913841E+03</pdfrwt>
<totfact> 0.51333781E+05</totfact>
</mgrwt>
</event>
<event>
 6    1  0.4271609E-002  0.1271180E+03  0.7546771E-02  0.1231796E+00
         21   -1    0    0  503  502  0.00000000000E+00  0.00000000000E+00  0.10949629716E+03  0.10949629716E+03  0.00000000000E+00 0. -1.
         21   -1    0    0  504  503 -0.00000000000E+00 -0.00000000000E+00 -0.53417886068E+02  0.53417886068E+02  0.00000000000E+00 0. -1.
         25    2    1    2    0    0  0.20934818241E+02  0.98267694264E+01  0.57966640031E+02  0.13971079079E+03  0.12499656673E+03 0.  0.
          5    1    3    3  501    0 -0.13841774273E+02  0.35174127162E+02 -0.25642537808E+02  0.45676730201E+02  0.10000000000E+00 0.  1.
         -5    1    3    3    0  501  0.34776592514E+02 -0.25347357736E+02  0.83609177840E+02  0.94034060585E+02  0.10000000000E+00 0.  1.
         21    1    1    2  504  502 -0.20934818241E+02 -0.98267694264E+01 -0.18882289418E+01  0.23203392439E+02  0.00000000000E+00 0. -1.
<mgrwt>
<rscale>  1 0.12711795E+03</rscale>
<asrwt>0</asrwt>
<pdfrwt beam="1">  1       21 0.16845584E-01 0.12711795E+03</pdfrwt>
<pdfrwt beam="2">  1       21 0.82181364E-02 0.12711795E+03</pdfrwt>
<totfact> 0.35879125E+06</totfact>
</mgrwt>
</event>
<event>
 6    1  0.4271609E-002  0.1276856E+03  0.7546771E-02  0.1230931E+00
         21   -1    0    0  503  502  0.00000000000E+00  0.00000000000E+00  0.25859934097E+03  0.25859934097E+03  0.00000000000E+00 0. -1.
         21   -1    0    0  504  503 -0.00000000000E+00 -0.00000000000E+00 -0.90561515809E+02  0.90561515809E+02  0.00000000000E+00 0. -1.
         25    2    1    2    0    0 -0.17034400915E+02  0.19656255798E+02  0.24043319991E+03  0.27223472669E+03  0.12500833410E+03 0.  0.
          5    1    3    3  501    0 -0.60140180388E+02  0.18018212960E+01  0.56714084969E+02  0.82683645849E+02  0.10000000000E+00 0.  1.
         -5    1    3    3    0  501  0.43105779473E+02  0.17854434502E+02  0.18371911494E+03  0.18955108084E+03  0.10000000000E+00 0.  1.
         21    1    1    2  504  502  0.17034400915E+02 -0.19656255798E+02 -0.72395374742E+02  0.76926130089E+02  0.00000000000E+00 0. -1.
<mgrwt>
<rscale>  1 0.12768564E+03</rscale>
<asrwt>0</asrwt>
<pdfrwt beam="1">  1       21 0.39784514E-01 0.12768564E+03</pdfrwt>
<pdfrwt beam="2">  1       21 0.13932541E-01 0.12768564E+03</pdfrwt>
<totfact> 0.27713259E+05</totfact>
</mgrwt>
</event>
<event>
 6    1  0.4271609E-002  0.1259724E+03  0.7546771E-02  0.1233557E+00
         21   -1    0    0  504  502  0.00000000000E+00  0.00000000000E+00  0.45007472666E+03  0.45007472666E+03  0.00000000000E+00 0.  1.
         21   -1    0    0  502  503 -0.00000000000E+00 -0.00000000000E+00 -0.52246312035E+02  0.52246312035E+02  0.00000000000E+00 0. -1.
         25    2    1    2    0    0  0.13331773461E+02  0.80151846927E+01  0.43983892132E+03  0.45752302488E+03  0.12500824859E+03 0.  0.
          5    1    3    3  501    0  0.39646304635E+02 -0.49104779495E+01  0.42051784242E+03  0.42241118364E+03  0.10000000000E+00 0. -1.
         -5    1    3    3    0  501 -0.26314531174E+02  0.12925662642E+02  0.19321078897E+02  0.35111841242E+02  0.10000000000E+00 0. -1.
         21    1    1    2  504  503 -0.13331773461E+02 -0.80151846927E+01 -0.42010506695E+02  0.44798013818E+02  0.00000000000E+00 0. -1.
<mgrwt>
<rscale>  1 0.12597238E+03</rscale>
<asrwt>0</asrwt>
<pdfrwt beam="1">  1       21 0.69242263E-01 0.12597238E+03</pdfrwt>
<pdfrwt beam="2">  1       21 0.80378945E-02 0.12597238E+03</pdfrwt>
<totfact> 0.22997517E+05</totfact>
</mgrwt>
</event>
<event>
 6    1  0.4271609E-002  0.1262932E+03  0.7546771E-02  0.1233062E+00
         21   -1    0    0  503  502  0.00000000000E+00  0.00000000000E+00  0.10641966073E+02  0.10641966073E+02  0.00000000000E+00 0. -1.
         21   -1    0    0  504  503 -0.00000000000E+00 -0.00000000000E+00 -0.50661012146E+03  0.50661012146E+03  0.00000000000E+00 0. -1.
         25    2    1    2    0    0  0.16154038378E+01 -0.17929815861E+02 -0.46011752837E+03  0.47713531693E+03  0.12500353163E+03 0.  0.
          5    1    3    3  501    0 -0.38439769332E+02  0.28716156348E+02 -0.32703867638E+03  0.33053976970E+03  0.10000000000E+00 0.  1.
         -5    1    3    3    0  501  0.40055173170E+02 -0.46645972209E+02 -0.13307885199E+03  0.14659554723E+03  0.10000000000E+00 0.  1.
         21    1    1    2  504  502 -0.16154038378E+01  0.17929815861E+02 -0.35850627019E+02  0.40116770608E+02  0.00000000000E+00 0. -1.
<mgrwt>
<rscale>  1 0.12629319E+03</rscale>
<asrwt>0</asrwt>
<pdfrwt beam="1">  1       21 0.16372259E-02 0.12629319E+03</pdfrwt>
<pdfrwt beam="2">  1       21 0.77940004E-01 0.12629319E+03</pdfrwt>
<totfact> 0.24721337E+06</totfact>
</mgrwt>
</event>
<event>
 6    1  0.4271609E-002  0.1275945E+03  0.7546771E-02  0.1231069E+00
         21   -1    0    0  503  502  0.00000000000E+00  0.00000000000E+00  0.11470732652E+03  0.11470732652E+03  0.00000000000E+00 0.  1.
         21   -1    0    0  504  503 -0.00000000000E+00 -0.00000000000E+00 -0.70460607482E+02  0.70460607482E+02  0.00000000000E+00 0.  1.
         25    2    1    2    0    0 -0.25433467020E+02  0.30078972173E+01  0.72727177401E+02  0.14686590797E+03  0.12499777558E+03 0.  0.
          5    1    3    3  501    0  0.23680524011E+02  0.23833197376E+02  0.85626179631E+02  0.91981743584E+02  0.10000000000E+00 0. -1.
         -5    1    3    3    0  501 -0.49113991030E+02 -0.20825300159E+02 -0.12899002230E+02  0.54884164384E+02  0.10000000000E+00 0. -1.
         21    1    1    2  504  502  0.25433467020E+02 -0.30078972173E+01 -0.28480458359E+02  0.38302026038E+02  0.00000000000E+00 0.  1.
<mgrwt>
<rscale>  1 0.12759448E+03</rscale>
<asrwt>0</asrwt>
<pdfrwt beam="1">  1       21 0.17647281E-01 0.12759448E+03</pdfrwt>
<pdfrwt beam="2">  1       21 0.10840093E-01 0.12759448E+03</pdfrwt>
<totfact> 0.20350981E+06</totfact>
</mgrwt>
</event>
<event>
 6    1  0.4271609E-002  0.1278722E+03  0.7546771E-02  0.1230648E+00
         21   -1    0    0  503  502  0.00000000000E+00  0.00000000000E+00  0.45322613360E+02  0.45322613360E+02  0.00000000000E+00 0.  1.
         21   -1    0    0  504  503 -0.00000000000E+00 -0.00000000000E+00 -0.96971190751E+03  0.96971190751E+03  0.00000000000E+00 0.  1.
         25    2    1    2    0    0  0.25501497793E+02 -0.86975857473E+01 -0.45490503414E+02  0.13572282486E+03  0.12500129959E+03 0.  0.
          5    1    3    3  501    0 -0.42831496863E+01 -0.15275699255E+02 -0.84628279339E+02  0.86102543649E+02  0.10000000000E+00 0. -1.
         -5    1    3    3    0  501  0.29784647479E+02  0.65781135076E+01  0.39137775925E+02  0.49620281208E+02  0.10000000000E+00 0. -1.
         21    1    1    2  504  502 -0.25501497793E+02  0.86975857473E+01 -0.87889879074E+03  0.87931169601E+03  0.00000000000E+00 0.  1.
<mgrwt>
<rscale>  1 0.12787220E+03</rscale>
<asrwt>0</asrwt>
<pdfrwt beam="1">  1       21 0.69727103E-02 0.12787220E+03</pdfrwt>
<pdfrwt beam="2">  1       21 0.14918643E+00 0.12787220E+03</pdfrwt>
<totfact> 0.48038999E+04</totfact>
</mgrwt>
</event>
<event>
 6    1  0.4271609E-002  0.1267220E+03  0.7546771E-02  0.1232402E+00
         21   -1    0    0  504  502  0.00000000000E+00  0.00000000000E+00  0.24472587180E+02  0.24472587180E+02  0.00000000000E+00 0.  1.
         21   -1    0    0  502  503 -0.00000000000E+00 -0.00000000000E+00 -0.23118134578E+03  0.23118134578E+03  0.00000000000E+00 0.  1.
         25    2    1    2    0    0  0.18826312022E+02 -0.89072237357E+01 -0.15701738342E+03  0.20177442455E+03  0.12499876419E+03 0.  0.
          5    1    3    3  501    0 -0.25433875727E+02  0.33517515067E+02 -0.12645231638E+03  0.13326854156E+03  0.10000000000E+00 0.  1.
         -5    1    3    3    0  501  0.44260187749E+02 -0.42424738802E+02 -0.30565067042E+02  0.68505882998E+02  0.10000000000E+00 0.  1.
         21    1    1    2  504  503 -0.18826312022E+02  0.89072237357E+01 -0.49691375181E+02  0.53879508409E+02  0.00000000000E+00 0.  1.
<mgrwt>
<rscale>  1 0.12672198E+03</rscale>
<asrwt>0</asrwt>
<pdfrwt beam="1">  1       21 0.37650132E-02 0.12672198E+03</pdfrwt>
<pdfrwt beam="2">  1       21 0.35566363E-01 0.12672198E+03</pdfrwt>
<totfact> 0.32710267E+06</totfact>
</mgrwt>
</event>
<event>
 6    1  0.4271609E-002  0.1425376E+03  0.7546771E-02  0.1209955E+00
         21   -1    0    0  504  502  0.00000000000E+00  0.00000000000E+00  0.14346720901E+02  0.14346720901E+02  0.00000000000E+00 0. -1.
         21   -1    0    0  502  503 -0.00000000000E+00 -0.00000000000E+00 -0.89224589491E+03  0.89224589491E+03  0.00000000000E+00 0. -1.
         25    2    1    2    0    0 -0.34900285944E+02  0.58925516476E+02 -0.41828740121E+03  0.44190645489E+03  0.12500687347E+03 0.  0.
          5    1    3    3  501    0 -0.13648933002E+02  0.16479232330E+02 -0.47191047486E+00  0.21403064495E+02  0.10000000000E+00 0. -1.
         -5    1    3    3    0  501 -0.21251352942E+02  0.42446284145E+02 -0.41781549073E+03  0.42050339040E+03  0.10000000000E+00 0. -1.
         21    1    1    2  504  503  0.34900285944E+02 -0.58925516476E+02 -0.45961177280E+03  0.46468616092E+03  0.00000000000E+00 0. -1.
<mgrwt>
<rscale>  1 0.14253759E+03</rscale>
<asrwt>0</asrwt>
<pdfrwt beam="1">  1       21 0.22071876E-02 0.14253759E+03</pdfrwt>
<pdfrwt beam="2">  1       21 0.13726862E+00 0.14253759E+03</pdfrwt>
<totfact> 0.40017359E+05</totfact>
</mgrwt>
</event>
<event>
 6    1  0.4271609E-002  0.1260462E+03  0.7546771E-02  0.1233443E+00
         21   -1    0    0  504  502  0.00000000000E+00  0.00000000000E+00  0.20014937794E+02  0.20014937794E+02  0.00000000000E+00 0. -1.
         21   -1    0    0  502  503 -0.00000000000E+00 -0.00000000000E+00 -0.27768087551E+03  0.27768087551E+03  0.00000000000E+00 0. -1.
         25    2    1    2    0    0  0.34171108512E+01  0.15806241499E+02 -0.24960821983E+03  0.27962814233E+03  0.12500448256E+03 0.  0.
          5    1    3    3  501    0 -0.36649621462E+02  0.55641173807E+02 -0.10477667728E+03  0.12416640882E+03  0.10000000000E+00 0.  1.
         -5    1    3    3    0  501  0.40066732313E+02 -0.39834932308E+02 -0.14483154255E+03  0.15546173352E+03  0.10000000000E+00 0.  1.
         21    1    1    2  504  503 -0.34171108512E+01 -0.15806241499E+02 -0.80577178859E+01  0.18067670974E+02  0.00000000000E+00 0. -1.
<mgrwt>
<rscale>  1 0.12604616E+03</rscale>
<asrwt>0</asrwt>
<pdfrwt beam="1">  1       21 0.30792216E-02 0.12604616E+03</pdfrwt>
<pdfrwt beam="2">  1       21 0.42720130E-01 0.12604616E+03</pdfrwt>
<totfact> 0.31627485E+06</totfact>
</mgrwt>
</event>
<event>
 6    1  0.4271609E-002  0.1265561E+03  0.7546771E-02  0.1232657E+00
         21   -1    0    0  503  502  0.00000000000E+00  0.00000000000E+00  0.40097488600E+03  0.40097488600E+03  0.00000000000E+00 0.  1.
         21   -1    0    0  504  503 -0.00000000000E+00 -0.00000000000E+00 -0.50147173143E+03  0.50147173143E+03  0.00000000000E+00 0. -1.
         25    2    1    2    0    0  0.15997824429E+02 -0.11648173142E+02  0.39078478314E+03  0.41076659049E+03  0.12499933920E+03 0.  0.
          5    1    3    3  501    0  0.50735929259E+02  0.39795420586E+02  0.19987096046E+03  0.21001481103E+03  0.10000000000E+00 0.  1.
         -5    1    3    3    0  501 -0.34738104830E+02 -0.51443593728E+02  0.19091382269E+03  0.20075177946E+03  0.10000000000E+00 0.  1.
         21    1    1    2  504  502 -0.15997824429E+02  0.11648173142E+02 -0.49128162857E+03  0.49168002694E+03  0.00000000000E+00 0. -1.
<mgrwt>
<rscale>  1 0.12655609E+03</rscale>
<asrwt>0</asrwt>
<pdfrwt beam="1">  1       21 0.61688444E-01 0.12655609E+03</pdfrwt>
<pdfrwt beam="2">  1       21 0.77149497E-01 0.12655609E+03</pdfrwt>
<totfact> 0.38767735E+03</totfact>
</mgrwt>
</event>
<event>
 6    1  0.4271609E-002  0.1269277E+03  0.7546771E-02  0.1232087E+00
         21   -1    0    0  503  502  0.00000000000E+00  0.00000000000E+00  0.67196782234E+02  0.67196782234E+02  0.00000000000E+00 0. -1.
         21   -1    0    0  504  503 -0.00000000000E+00 -0.00000000000E+00 -0.87014403055E+02  0.87014403055E+02  0.00000000000E+00 0. -1.
         25    2    1    2    0    0  0.10693670231E+01  0.21988883348E+02 -0.37977362849E+01  0.12698452120E+03  0.12500396509E+03 0.  0.
          5    1    3    3  501    0 -0.50905459141E+02  0.33655845476E+02 -0.29566694425E+02  0.67810626928E+02  0.10000000000E+00 0. -1.
         -5    1    3    3    0  501  0.51974826164E+02 -0.11666962128E+02  0.25768958140E+02  0.59173894275E+02  0.10000000000E+00 0. -1.
         21    1    1    2  504  502 -0.10693670231E+01 -0.21988883348E+02 -0.16019884536E+02  0.27226664087E+02  0.00000000000E+00 0.  1.
<mgrwt>
<rscale>  1 0.12692772E+03</rscale>
<asrwt>0</asrwt>
<pdfrwt beam="1">  1       21 0.10337966E-01 0.12692772E+03</pdfrwt>
<pdfrwt beam="2">  1       21 0.13386831E-01 0.12692772E+03</pdfrwt>
<totfact> 0.36422147E+06</totfact>
</mgrwt>
</event>
<event>
 6    1  0.4271609E-002  0.1272054E+03  0.7546771E-02  0.1231662E+00
         21   -1    0    0  503  502  0.00000000000E+00  0.00000000000E+00  0.74709516166E+03  0.74709516166E+03  0.00000000000E+00 0. -1.
         21   -1    0    0  504  503 -0.00000000000E+00 -0.00000000000E+00 -0.12240340501E+03  0.12240340501E+03  0.00000000000E+00 0. -1.
         25    2    1    2    0    0  0.12364097187E+02  0.20082132205E+02  0.74048324004E+03  0.75132991365E+03  0.12500018971E+03 0.  0.
          5    1    3    3  501    0  0.33735768857E+02 -0.19141958093E+02  0.75804438300E+02  0.85151861553E+02  0.10000000000E+00 0. -1.
         -5    1    3    3    0  501 -0.21371671670E+02  0.39224090298E+02  0.66467880174E+03  0.66617805209E+03  0.10000000000E+00 0. -1.
         21    1    1    2  504  502 -0.12364097187E+02 -0.20082132205E+02 -0.11579148339E+03  0.11816865303E+03  0.00000000000E+00 0. -1.
<mgrwt>
<rscale>  1 0.12720539E+03</rscale>
<asrwt>0</asrwt>
<pdfrwt beam="1">  1       21 0.11493771E+00 0.12720539E+03</pdfrwt>
<pdfrwt beam="2">  1       21 0.18831293E-01 0.12720539E+03</pdfrwt>
<totfact> 0.15903712E+04</totfact>
</mgrwt>
</event>
<event>
 6    1  0.4271609E-002  0.1277417E+03  0.7546771E-02  0.1230846E+00
         21   -1    0    0  503  502  0.00000000000E+00  0.00000000000E+00  0.37083400354E+03  0.37083400354E+03  0.00000000000E+00 0. -1.
         21   -1    0    0  504  503 -0.00000000000E+00 -0.00000000000E+00 -0.17393149869E+02  0.17393149869E+02  0.00000000000E+00 0. -1.
         25    2    1    2    0    0  0.26150703870E+02  0.30491497913E+01  0.32630541654E+03  0.35041857534E+03  0.12499918581E+03 0.  0.
          5    1    3    3  501    0 -0.22637820202E+02  0.13596567881E+02  0.71153931275E+01  0.27349156861E+02  0.10000000000E+00 0. -1.
         -5    1    3    3    0  501  0.48788524072E+02 -0.10547418090E+02  0.31919002341E+03  0.32306941848E+03  0.10000000000E+00 0. -1.
         21    1    1    2  504  502 -0.26150703870E+02 -0.30491497913E+01  0.27135437129E+02  0.37808578068E+02  0.00000000000E+00 0. -1.
<mgrwt>
<rscale>  1 0.12774174E+03</rscale>
<asrwt>0</asrwt>
<pdfrwt beam="1">  1       21 0.57051379E-01 0.12774174E+03</pdfrwt>
<pdfrwt beam="2">  1       21 0.26758695E-02 0.12774174E+03</pdfrwt>
<totfact> 0.21945586E+06</totfact>
</mgrwt>
</event>
<event>
 6    1  0.4271609E-002  0.1517729E+03  0.7546771E-02  0.1198311E+00
         21   -1    0    0  504  502  0.00000000000E+00  0.00000000000E+00  0.53757066945E+03  0.53757066945E+03  0.00000000000E+00 0.  1.
         21   -1    0    0  502  503 -0.00000000000E+00 -0.00000000000E+00 -0.21079719411E+03  0.21079719411E+03  0.00000000000E+00 0. -1.
         25    2    1    2    0    0 -0.62121760925E+02  0.59587597711E+02  0.51740318522E+03  0.53920409693E+03  0.12500082836E+03 0.  0.
          5    1    3    3  501    0  0.37567512654E+02  0.10265574682E+02  0.17118465816E+03  0.17555881413E+03  0.10000000000E+00 0. -1.
         -5    1    3    3    0  501 -0.99689273579E+02  0.49322023029E+02  0.34621852706E+03  0.36364528280E+03  0.10000000000E+00 0. -1.
         21    1    1    2  504  503  0.62121760925E+02 -0.59587597711E+02 -0.19062970988E+03  0.20916376663E+03  0.00000000000E+00 0. -1.
<mgrwt>
<rscale>  1 0.15177286E+03</rscale>
<asrwt>0</asrwt>
<pdfrwt beam="1">  1       21 0.82703179E-01 0.15177286E+03</pdfrwt>
<pdfrwt beam="2">  1       21 0.32430338E-01 0.15177286E+03</pdfrwt>
<totfact> 0.12015293E+04</totfact>
</mgrwt>
</event>
<event>
 6    1  0.4271609E-002  0.1284172E+03  0.7546771E-02  0.1229823E+00
         21   -1    0    0  504  502  0.00000000000E+00  0.00000000000E+00  0.15854930145E+04  0.15854930145E+04  0.00000000000E+00 0. -1.
         21   -1    0    0  502  503 -0.00000000000E+00 -0.00000000000E+00 -0.14598245091E+02  0.14598245091E+02  0.00000000000E+00 0. -1.
         25    2    1    2    0    0  0.22041677316E+02  0.19515819334E+02  0.15647579771E+04  0.15700186315E+04  0.12499709356E+03 0.  0.
          5    1    3    3  501    0  0.68079176314E+02  0.28858994358E+02  0.67867083433E+03  0.68268713711E+03  0.10000000000E+00 0. -1.
         -5    1    3    3    0  501 -0.46037498998E+02 -0.93431750243E+01  0.88608714280E+03  0.88733149435E+03  0.10000000000E+00 0. -1.
         21    1    1    2  504  503 -0.22041677316E+02 -0.19515819334E+02  0.61367922785E+01  0.30072628130E+02  0.00000000000E+00 0. -1.
<mgrwt>
<rscale>  1 0.12841720E+03</rscale>
<asrwt>0</asrwt>
<pdfrwt beam="1">  1       21 0.24392187E+00 0.12841720E+03</pdfrwt>
<pdfrwt beam="2">  1       21 0.22458851E-02 0.12841720E+03</pdfrwt>
<totfact> 0.77380863E+04</totfact>
</mgrwt>
</event>
<event>
 6    1  0.4271609E-002  0.1372968E+03  0.7546771E-02  0.1217013E+00
         21   -1    0    0  504  502  0.00000000000E+00  0.00000000000E+00  0.30763268923E+02  0.30763268923E+02  0.00000000000E+00 0. -1.
         21   -1    0    0  502  503 -0.00000000000E+00 -0.00000000000E+00 -0.98182457488E+03  0.98182457488E+03  0.00000000000E+00 0. -1.
         25    2    1    2    0    0  0.96132935374E+01 -0.55975078633E+02 -0.12844100556E+03  0.18800929481E+03  0.12499911273E+03 0.  0.
          5    1    3    3  501    0 -0.35466551466E+02 -0.12313811136E+02 -0.11870558001E+03  0.12450112828E+03  0.10000000000E+00 0. -1.
         -5    1    3    3    0  501  0.45079845003E+02 -0.43661267497E+02 -0.97354255508E+01  0.63508166527E+02  0.10000000000E+00 0. -1.
         21    1    1    2  504  503 -0.96132935374E+01  0.55975078633E+02 -0.82262030039E+03  0.82457854899E+03  0.00000000000E+00 0. -1.
<mgrwt>
<rscale>  1 0.13729677E+03</rscale>
<asrwt>0</asrwt>
<pdfrwt beam="1">  1       21 0.47328106E-02 0.13729677E+03</pdfrwt>
<pdfrwt beam="2">  1       21 0.15104993E+00 0.13729677E+03</pdfrwt>
<totfact> 0.89128735E+04</totfact>
</mgrwt>
</event>
<event>
 6    1  0.4271609E-002  0.1262714E+03  0.7546771E-02  0.1233096E+00
         21   -1    0    0  503  502  0.00000000000E+00  0.00000000000E+00  0.10608973893E+03  0.10608973893E+03  0.00000000000E+00 0. -1.
         21   -1    0    0  504  503 -0.00000000000E+00 -0.00000000000E+00 -0.53179627618E+02  0.53179627618E+02  0.00000000000E+00 0. -1.
         25    2    1    2    0    0 -0.14274917660E+02  0.11230076352E+02  0.59962513000E+02  0.13978541781E+03  0.12495828175E+03 0.  0.
          5    1    3    3  501    0  0.16032220589E+02 -0.23915098453E+02 -0.28107089293E+02  0.40236581609E+02  0.10000000000E+00 0. -1.
         -5    1    3    3    0  501 -0.30307138249E+02  0.35145174805E+02  0.88069602293E+02  0.99548836201E+02  0.10000000000E+00 0. -1.
         21    1    1    2  504  502  0.14274917660E+02 -0.11230076352E+02 -0.70524016834E+01  0.19483948742E+02  0.00000000000E+00 0. -1.
<mgrwt>
<rscale>  1 0.12627137E+03</rscale>
<asrwt>0</asrwt>
<pdfrwt beam="1">  1       21 0.16321498E-01 0.12627137E+03</pdfrwt>
<pdfrwt beam="2">  1       21 0.81814812E-02 0.12627137E+03</pdfrwt>
<totfact> 0.38282379E+06</totfact>
</mgrwt>
</event>
<event>
 6    1  0.4271609E-002  0.1437198E+03  0.7546771E-02  0.1208410E+00
         21   -1    0    0  504  502  0.00000000000E+00  0.00000000000E+00  0.37851049619E+02  0.37851049619E+02  0.00000000000E+00 0. -1.
         21   -1    0    0  502  503 -0.00000000000E+00 -0.00000000000E+00 -0.31509227274E+03  0.31509227274E+03  0.00000000000E+00 0. -1.
         25    2    1    2    0    0  0.65363799150E+02 -0.27523389311E+02 -0.15322108457E+03  0.21007639839E+03  0.12500171681E+03 0.  0.
          5    1    3    3  501    0  0.82992440136E+02 -0.33789003755E+02 -0.45040825397E+02  0.10029021810E+03  0.10000000000E+00 0. -1.
         -5    1    3    3    0  501 -0.17628640987E+02  0.62656144442E+01 -0.10818025917E+03  0.10978618029E+03  0.10000000000E+00 0. -1.
         21    1    1    2  504  503 -0.65363799150E+02  0.27523389311E+02 -0.12402013856E+03  0.14286692398E+03  0.00000000000E+00 0. -1.
<mgrwt>
<rscale>  1 0.14371984E+03</rscale>
<asrwt>0</asrwt>
<pdfrwt beam="1">  1       21 0.58232381E-02 0.14371984E+03</pdfrwt>
<pdfrwt beam="2">  1       21 0.48475737E-01 0.14371984E+03</pdfrwt>
<totfact> 0.84645127E+05</totfact>
</mgrwt>
</event>
<event>
 6    1  0.4271609E-002  0.1262676E+03  0.7546771E-02  0.1233101E+00
         21   -1    0    0  503  502  0.00000000000E+00  0.00000000000E+00  0.50453669116E+02  0.50453669116E+02  0.00000000000E+00 0. -1.
         21   -1    0    0  504  503 -0.00000000000E+00 -0.00000000000E+00 -0.10701869224E+03  0.10701869224E+03  0.00000000000E+00 0. -1.
         25    2    1    2    0    0  0.12835413639E+02  0.12432368665E+02 -0.38367258386E+02  0.13196804260E+03  0.12499682443E+03 0.  0.
          5    1    3    3  501    0 -0.42949831237E+02  0.52589284414E+01  0.22768616571E+02  0.48895441835E+02  0.10000000000E+00 0.  1.
         -5    1    3    3    0  501  0.55785244876E+02  0.71734402233E+01 -0.61135874957E+02  0.83072600762E+02  0.10000000000E+00 0.  1.
         21    1    1    2  504  502 -0.12835413639E+02 -0.12432368665E+02 -0.18197764736E+02  0.25504318757E+02  0.00000000000E+00 0. -1.
<mgrwt>
<rscale>  1 0.12626764E+03</rscale>
<asrwt>0</asrwt>
<pdfrwt beam="1">  1       21 0.77621030E-02 0.12626764E+03</pdfrwt>
<pdfrwt beam="2">  1       21 0.16464414E-01 0.12626764E+03</pdfrwt>
<totfact> 0.41256803E+06</totfact>
</mgrwt>
</event>
<event>
 6    1  0.4271609E-002  0.1322446E+03  0.7546771E-02  0.1224163E+00
         21   -1    0    0  504  502  0.00000000000E+00  0.00000000000E+00  0.16539060828E+04  0.16539060828E+04  0.00000000000E+00 0.  1.
         21   -1    0    0  502  503 -0.00000000000E+00 -0.00000000000E+00 -0.98983381397E+02  0.98983381397E+02  0.00000000000E+00 0. -1.
         25    2    1    2    0    0 -0.33334354891E+02 -0.27428671906E+02  0.16464186325E+04  0.16517212050E+04  0.12500045648E+03 0.  0.
          5    1    3    3  501    0  0.38848402988E+02  0.96130438871E+01  0.27407941099E+03  0.27698581653E+03  0.10000000000E+00 0.  1.
         -5    1    3    3    0  501 -0.72182757878E+02 -0.37041715793E+02  0.13723392215E+04  0.13747353884E+04  0.10000000000E+00 0.  1.
         21    1    1    2  504  503  0.33334354891E+02  0.27428671906E+02 -0.91495931140E+02  0.10116825922E+03  0.00000000000E+00 0. -1.
<mgrwt>
<rscale>  1 0.13224457E+03</rscale>
<asrwt>0</asrwt>
<pdfrwt beam="1">  1       21 0.25444707E+00 0.13224457E+03</pdfrwt>
<pdfrwt beam="2">  1       21 0.15228214E-01 0.13224457E+03</pdfrwt>
<totfact> 0.25865385E+03</totfact>
</mgrwt>
</event>
<event>
 6    1  0.4271609E-002  0.1282023E+03  0.7546771E-02  0.1230148E+00
         21   -1    0    0  504  502  0.00000000000E+00  0.00000000000E+00  0.27757617538E+02  0.27757617538E+02  0.00000000000E+00 0.  1.
         21   -1    0    0  502  503 -0.00000000000E+00 -0.00000000000E+00 -0.22770956519E+03  0.22770956519E+03  0.00000000000E+00 0.  1.
         25    2    1    2    0    0  0.23647236650E+02  0.15894960347E+02 -0.14485876342E+03  0.19344218362E+03  0.12499590193E+03 0.  0.
          5    1    3    3  501    0 -0.45064447073E+02  0.12296276516E+02 -0.10250189694E+03  0.11264391542E+03  0.10000000000E+00 0. -1.
         -5    1    3    3    0  501  0.68711683723E+02  0.35986838311E+01 -0.42356866483E+02  0.80798268197E+02  0.10000000000E+00 0. -1.
         21    1    1    2  504  503 -0.23647236650E+02 -0.15894960347E+02 -0.55093184232E+02  0.62024999109E+02  0.00000000000E+00 0. -1.
<mgrwt>
<rscale>  1 0.12820225E+03</rscale>
<asrwt>0</asrwt>
<pdfrwt beam="1">  1       21 0.42704028E-02 0.12820225E+03</pdfrwt>
<pdfrwt beam="2">  1       21 0.35032240E-01 0.12820225E+03</pdfrwt>
<totfact> 0.27348673E+06</totfact>
</mgrwt>
</event>
<event>
 6    1  0.4271609E-002  0.1287608E+03  0.7546771E-02  0.1229306E+00
         21   -1    0    0  503  502  0.00000000000E+00  0.00000000000E+00  0.49765543910E+02  0.49765543910E+02  0.00000000000E+00 0. -1.
         21   -1    0    0  504  503 -0.00000000000E+00 -0.00000000000E+00 -0.17097779387E+03  0.17097779387E+03  0.00000000000E+00 0. -1.
         25    2    1    2    0    0  0.21834295740E+02 -0.22076108355E+02 -0.41637997121E+02  0.13532581765E+03  0.12496104628E+03 0.  0.
          5    1    3    3  501    0  0.68663382879E+02 -0.21326743338E+02  0.11204978803E+01  0.71907966494E+02  0.10000000000E+00 0. -1.
         -5    1    3    3    0  501 -0.46829087139E+02 -0.74936501716E+00 -0.42758495001E+02  0.63417851154E+02  0.10000000000E+00 0. -1.
         21    1    1    2  504  502 -0.21834295740E+02  0.22076108355E+02 -0.79574252836E+02  0.85417520129E+02  0.00000000000E+00 0. -1.
<mgrwt>
<rscale>  1 0.12876084E+03</rscale>
<asrwt>0</asrwt>
<pdfrwt beam="1">  1       21 0.76562375E-02 0.12876084E+03</pdfrwt>
<pdfrwt beam="2">  1       21 0.26304276E-01 0.12876084E+03</pdfrwt>
<totfact> 0.17718104E+06</totfact>
</mgrwt>
</event>
<event>
 6    1  0.4271609E-002  0.1372836E+03  0.7546771E-02  0.1217032E+00
         21   -1    0    0  503  502  0.00000000000E+00  0.00000000000E+00  0.35568101320E+03  0.35568101320E+03  0.00000000000E+00 0.  1.
         21   -1    0    0  504  503 -0.00000000000E+00 -0.00000000000E+00 -0.12523875187E+03  0.12523875187E+03  0.00000000000E+00 0.  1.
         25    2    1    2    0    0 -0.29289329436E+01 -0.56682004911E+02  0.33495114272E+03  0.36199317167E+03  0.12500143996E+03 0.  0.
          5    1    3    3  501    0 -0.39503103777E+01  0.18094655767E+02  0.24193274732E+03  0.24264065147E+03  0.10000000000E+00 0. -1.
         -5    1    3    3    0  501  0.10213774341E+01 -0.74776660678E+02  0.93018395400E+02  0.11935252019E+03  0.10000000000E+00 0. -1.
         21    1    1    2  504  502  0.29289329436E+01  0.56682004911E+02 -0.10450888139E+03  0.11892659340E+03  0.00000000000E+00 0.  1.
<mgrwt>
<rscale>  1 0.13728361E+03</rscale>
<asrwt>0</asrwt>
<pdfrwt beam="1">  1       21 0.54720156E-01 0.13728361E+03</pdfrwt>
<pdfrwt beam="2">  1       21 0.19267500E-01 0.13728361E+03</pdfrwt>
<totfact> 0.79874057E+04</totfact>
</mgrwt>
</event>
<event>
 6    1  0.4271609E-002  0.1292180E+03  0.7546771E-02  0.1228621E+00
         21   -1    0    0  503  502  0.00000000000E+00  0.00000000000E+00  0.18418505133E+03  0.18418505133E+03  0.00000000000E+00 0.  1.
         21   -1    0    0  504  503 -0.00000000000E+00 -0.00000000000E+00 -0.41684424768E+02  0.41684424768E+02  0.00000000000E+00 0.  1.
         25    2    1    2    0    0  0.20916798687E+02 -0.25246036120E+02  0.14345340328E+03  0.19307035125E+03  0.12498962681E+03 0.  0.
          5    1    3    3  501    0 -0.42419131982E+01  0.66467056690E+01 -0.21650924642E+02  0.23042245153E+02  0.10000000000E+00 0. -1.
         -5    1    3    3    0  501  0.25158711885E+02 -0.31892741789E+02  0.16510432793E+03  0.17002810610E+03  0.10000000000E+00 0. -1.
         21    1    1    2  504  502 -0.20916798687E+02  0.25246036120E+02 -0.95277672618E+00  0.32799124844E+02  0.00000000000E+00 0.  1.
<mgrwt>
<rscale>  1 0.12921796E+03</rscale>
<asrwt>0</asrwt>
<pdfrwt beam="1">  1       21 0.28336161E-01 0.12921796E+03</pdfrwt>
<pdfrwt beam="2">  1       21 0.64129886E-02 0.12921796E+03</pdfrwt>
<totfact> 0.20818625E+06</totfact>
</mgrwt>
</event>
<event>
 6    1  0.4271609E-002  0.1378714E+03  0.7546771E-02  0.1216222E+00
         21   -1    0    0  504  502  0.00000000000E+00  0.00000000000E+00  0.31290629146E+02  0.31290629146E+02  0.00000000000E+00 0.  1.
         21   -1    0    0  502  503 -0.00000000000E+00 -0.00000000000E+00 -0.37918573197E+03  0.37918573197E+03  0.00000000000E+00 0.  1.
         25    2    1    2    0    0  0.22075522612E+02 -0.53783444300E+02 -0.14786868565E+03  0.20217236416E+03  0.12501411543E+03 0.  0.
          5    1    3    3  501    0 -0.31652049407E+02 -0.59310379565E+02 -0.12807748629E+03  0.14464932025E+03  0.10000000000E+00 0. -1.
         -5    1    3    3    0  501  0.53727572019E+02  0.55269352645E+01 -0.19791199362E+02  0.57523043910E+02  0.10000000000E+00 0. -1.
         21    1    1    2  504  503 -0.22075522612E+02  0.53783444300E+02 -0.20002641718E+03  0.20830399696E+03  0.00000000000E+00 0.  1.
<mgrwt>
<rscale>  1 0.13787138E+03</rscale>
<asrwt>0</asrwt>
<pdfrwt beam="1">  1       21 0.48139431E-02 0.13787138E+03</pdfrwt>
<pdfrwt beam="2">  1       21 0.58336265E-01 0.13787138E+03</pdfrwt>
<totfact> 0.79306507E+05</totfact>
</mgrwt>
</event>
<event>
 6    1  0.4271609E-002  0.1274253E+03  0.7546771E-02  0.1231327E+00
         21   -1    0    0  504  502  0.00000000000E+00  0.00000000000E+00  0.23591261693E+02  0.23591261693E+02  0.00000000000E+00 0.  1.
         21   -1    0    0  502  503 -0.00000000000E+00 -0.00000000000E+00 -0.31023420187E+03  0.31023420187E+03  0.00000000000E+00 0.  1.
         25    2    1    2    0    0  0.24700661260E+02 -0.18099954689E+01 -0.15879273898E+03  0.20359845908E+03  0.12499519926E+03 0.  0.
          5    1    3    3  501    0 -0.22372894680E+01  0.34984167659E+01 -0.17274890090E+03  0.17279883433E+03  0.10000000000E+00 0. -1.
         -5    1    3    3    0  501  0.26937950728E+02 -0.53084122348E+01  0.13956161912E+02  0.30799624757E+02  0.10000000000E+00 0. -1.
         21    1    1    2  504  503 -0.24700661260E+02  0.18099954689E+01 -0.12785020119E+03  0.13022700448E+03  0.00000000000E+00 0.  1.
<mgrwt>
<rscale>  1 0.12742527E+03</rscale>
<asrwt>0</asrwt>
<pdfrwt beam="1">  1       21 0.36294251E-02 0.12742527E+03</pdfrwt>
<pdfrwt beam="2">  1       21 0.47728336E-01 0.12742527E+03</pdfrwt>
<totfact> 0.19265349E+06</totfact>
</mgrwt>
</event>
<event>
 6    1  0.4271609E-002  0.1364061E+03  0.7546771E-02  0.1218248E+00
         21   -1    0    0  503  502  0.00000000000E+00  0.00000000000E+00  0.83822347036E+03  0.83822347036E+03  0.00000000000E+00 0. -1.
         21   -1    0    0  504  503 -0.00000000000E+00 -0.00000000000E+00 -0.11399370689E+02  0.11399370689E+02  0.00000000000E+00 0. -1.
         25    2    1    2    0    0 -0.32260147782E+02 -0.44046441115E+02  0.66472065702E+03  0.67857216952E+03  0.12500332506E+03 0.  0.
          5    1    3    3  501    0  0.24663184797E+02 -0.64972222019E+02  0.45433830523E+03  0.45962263643E+03  0.10000000000E+00 0. -1.
         -5    1    3    3    0  501 -0.56923332579E+02  0.20925780904E+02  0.21038235179E+03  0.21894953309E+03  0.10000000000E+00 0. -1.
         21    1    1    2  504  502  0.32260147782E+02  0.44046441115E+02  0.16210344265E+03  0.17105067153E+03  0.00000000000E+00 0. -1.
<mgrwt>
<rscale>  1 0.13640615E+03</rscale>
<asrwt>0</asrwt>
<pdfrwt beam="1">  1       21 0.12895741E+00 0.13640615E+03</pdfrwt>
<pdfrwt beam="2">  1       21 0.17537500E-02 0.13640615E+03</pdfrwt>
<totfact> 0.67940607E+05</totfact>
</mgrwt>
</event>
<event>
 6    1  0.4271609E-002  0.1554134E+03  0.7546771E-02  0.1193975E+00
         21   -1    0    0  504  502  0.00000000000E+00  0.00000000000E+00  0.68512859715E+03  0.68512859715E+03  0.00000000000E+00 0.  1.
         21   -1    0    0  502  503 -0.00000000000E+00 -0.00000000000E+00 -0.26577325408E+02  0.26577325408E+02  0.00000000000E+00 0.  1.
         25    2    1    2    0    0 -0.41415919821E+02 -0.82550142450E+02  0.53706571527E+03  0.55910007449E+03  0.12499402523E+03 0.  0.
          5    1    3    3  501    0 -0.83060385288E+02 -0.55439836570E+02  0.27999127998E+03  0.29726710203E+03  0.10000000000E+00 0. -1.
         -5    1    3    3    0  501  0.41644465467E+02 -0.27110305881E+02  0.25707443529E+03  0.26183297246E+03  0.10000000000E+00 0. -1.
         21    1    1    2  504  503  0.41415919821E+02  0.82550142450E+02  0.12148555647E+03  0.15260584807E+03  0.00000000000E+00 0.  1.
<mgrwt>
<rscale>  1 0.15541335E+03</rscale>
<asrwt>0</asrwt>
<pdfrwt beam="1">  1       21 0.10540439E+00 0.15541335E+03</pdfrwt>
<pdfrwt beam="2">  1       21 0.40888198E-02 0.15541335E+03</pdfrwt>
<totfact> 0.27642460E+05</totfact>
</mgrwt>
</event>
<event>
 6    1  0.4271609E-002  0.1276203E+03  0.7546771E-02  0.1231030E+00
         21   -1    0    0  504  502  0.00000000000E+00  0.00000000000E+00  0.49758744343E+02  0.49758744343E+02  0.00000000000E+00 0. -1.
         21   -1    0    0  502  503 -0.00000000000E+00 -0.00000000000E+00 -0.75283070078E+03  0.75283070078E+03  0.00000000000E+00 0.  1.
         25    2    1    2    0    0  0.16849341926E+02  0.19454905953E+02 -0.32725905895E+02  0.13174950806E+03  0.12499821706E+03 0.  0.
          5    1    3    3  501    0  0.54730818994E+02  0.30429296125E+02 -0.57631491180E+02  0.85104661365E+02  0.10000000000E+00 0.  1.
         -5    1    3    3    0  501 -0.37881477067E+02 -0.10974390172E+02  0.24905585284E+02  0.46644846691E+02  0.10000000000E+00 0.  1.
         21    1    1    2  504  503 -0.16849341926E+02 -0.19454905953E+02 -0.67034605054E+03  0.67083993707E+03  0.00000000000E+00 0.  1.
<mgrwt>
<rscale>  1 0.12762033E+03</rscale>
<asrwt>0</asrwt>
<pdfrwt beam="1">  1       21 0.76551917E-02 0.12762033E+03</pdfrwt>
<pdfrwt beam="2">  1       21 0.11582010E+00 0.12762033E+03</pdfrwt>
<totfact> 0.77040828E+04</totfact>
</mgrwt>
</event>
<event>
 6    1  0.4271609E-002  0.1331185E+03  0.7546771E-02  0.1222900E+00
         21   -1    0    0  503  502  0.00000000000E+00  0.00000000000E+00  0.31105259722E+02  0.31105259722E+02  0.00000000000E+00 0. -1.
         21   -1    0    0  504  503 -0.00000000000E+00 -0.00000000000E+00 -0.26882085432E+03  0.26882085432E+03  0.00000000000E+00 0.  1.
         25    2    1    2    0    0  0.39410751894E+02  0.23274719831E+02 -0.14699277251E+03  0.19831139859E+03  0.12500246275E+03 0.  0.
          5    1    3    3  501    0  0.46050112932E+02 -0.45018337669E+02 -0.67252607090E+02  0.93113837790E+02  0.10000000000E+00 0.  1.
         -5    1    3    3    0  501 -0.66393610381E+01  0.68293057501E+02 -0.79740165417E+02  0.10519756080E+03  0.10000000000E+00 0.  1.
         21    1    1    2  504  502 -0.39410751894E+02 -0.23274719831E+02 -0.90722822088E+02  0.10161471545E+03  0.00000000000E+00 0.  1.
<mgrwt>
<rscale>  1 0.13311850E+03</rscale>
<asrwt>0</asrwt>
<pdfrwt beam="1">  1       21 0.47854245E-02 0.13311850E+03</pdfrwt>
<pdfrwt beam="2">  1       21 0.41357055E-01 0.13311850E+03</pdfrwt>
<totfact> 0.16274580E+06</totfact>
</mgrwt>
</event>
<event>
 6    1  0.4271609E-002  0.1331412E+03  0.7546771E-02  0.1222868E+00
         21   -1    0    0  503  502  0.00000000000E+00  0.00000000000E+00  0.37844300568E+03  0.37844300568E+03  0.00000000000E+00 0.  1.
         21   -1    0    0  504  503 -0.00000000000E+00 -0.00000000000E+00 -0.30075384741E+02  0.30075384741E+02  0.00000000000E+00 0.  1.
         25    2    1    2    0    0  0.38398734704E+02 -0.25035986169E+02  0.33543072175E+03  0.36088828659E+03  0.12500129149E+03 0.  0.
          5    1    3    3  501    0 -0.13841450529E+02 -0.21857653344E+02  0.29124984557E+03  0.29239669169E+03  0.10000000000E+00 0.  1.
         -5    1    3    3    0  501  0.52240185233E+02 -0.31783328247E+01  0.44180876172E+02  0.68491594901E+02  0.10000000000E+00 0.  1.
         21    1    1    2  504  502 -0.38398734704E+02  0.25035986169E+02  0.12936899190E+02  0.47630103831E+02  0.00000000000E+00 0.  1.
<mgrwt>
<rscale>  1 0.13314123E+03</rscale>
<asrwt>0</asrwt>
<pdfrwt beam="1">  1       21 0.58221998E-01 0.13314123E+03</pdfrwt>
<pdfrwt beam="2">  1       21 0.46269825E-02 0.13314123E+03</pdfrwt>
<totfact> 0.85113701E+05</totfact>
</mgrwt>
</event>
<event>
 6    1  0.4271609E-002  0.1260636E+03  0.7546771E-02  0.1233416E+00
         21   -1    0    0  503  502  0.00000000000E+00  0.00000000000E+00  0.29421536258E+03  0.29421536258E+03  0.00000000000E+00 0.  1.
         21   -1    0    0  504  503 -0.00000000000E+00 -0.00000000000E+00 -0.53968159170E+02  0.53968159170E+02  0.00000000000E+00 0.  1.
         25    2    1    2    0    0  0.73521484061E+01 -0.14604423399E+02  0.27898040136E+03  0.30614064016E+03  0.12499873579E+03 0.  0.
          5    1    3    3  501    0  0.49913721533E+02  0.32533953144E+02  0.16827555043E+03  0.17851192839E+03  0.10000000000E+00 0. -1.
         -5    1    3    3    0  501 -0.42561573127E+02 -0.47138376543E+02  0.11070485093E+03  0.12762871177E+03  0.10000000000E+00 0. -1.
         21    1    1    2  504  502 -0.73521484061E+01  0.14604423399E+02 -0.38733197947E+02  0.42042881588E+02  0.00000000000E+00 0.  1.
<mgrwt>
<rscale>  1 0.12606358E+03</rscale>
<asrwt>0</asrwt>
<pdfrwt beam="1">  1       21 0.45263901E-01 0.12606358E+03</pdfrwt>
<pdfrwt beam="2">  1       21 0.83027938E-02 0.12606358E+03</pdfrwt>
<totfact> 0.53096745E+05</totfact>
</mgrwt>
</event>
<event>
 6    1  0.4271609E-002  0.1286147E+03  0.7546771E-02  0.1229526E+00
         21   -1    0    0  504  502  0.00000000000E+00  0.00000000000E+00  0.12799170599E+04  0.12799170599E+04  0.00000000000E+00 0. -1.
         21   -1    0    0  502  503 -0.00000000000E+00 -0.00000000000E+00 -0.98654268037E+02  0.98654268037E+02  0.00000000000E+00 0. -1.
         25    2    1    2    0    0 -0.27686500581E+02  0.12261139840E+02  0.12742776799E+04  0.12807518654E+04  0.12499942954E+03 0.  0.
          5    1    3    3  501    0  0.39696042278E+02  0.20771032404E+02  0.23342307493E+03  0.23768372571E+03  0.10000000000E+00 0. -1.
         -5    1    3    3    0  501 -0.67382542859E+02 -0.85098925639E+01  0.10408546050E+04  0.10430681397E+04  0.10000000000E+00 0. -1.
         21    1    1    2  504  503  0.27686500581E+02 -0.12261139840E+02 -0.93014888007E+02  0.97819462560E+02  0.00000000000E+00 0. -1.
<mgrwt>
<rscale>  1 0.12861468E+03</rscale>
<asrwt>0</asrwt>
<pdfrwt beam="1">  1       21 0.19691031E+00 0.12861468E+03</pdfrwt>
<pdfrwt beam="2">  1       21 0.15177581E-01 0.12861468E+03</pdfrwt>
<totfact> 0.57697117E+03</totfact>
</mgrwt>
</event>
<event>
 6    1  0.4271609E-002  0.1292066E+03  0.7546771E-02  0.1228638E+00
         21   -1    0    0  504  502  0.00000000000E+00  0.00000000000E+00  0.11759660955E+02  0.11759660955E+02  0.00000000000E+00 0. -1.
         21   -1    0    0  502  503 -0.00000000000E+00 -0.00000000000E+00 -0.55749423115E+03  0.55749423115E+03  0.00000000000E+00 0. -1.
         25    2    1    2    0    0  0.17595345509E+02 -0.27573462912E+02 -0.43919436550E+03  0.45780566531E+03  0.12499777781E+03 0.  0.
          5    1    3    3  501    0 -0.85876598816E+01  0.86372187291E+01 -0.39421406087E+03  0.39440218716E+03  0.10000000000E+00 0.  1.
         -5    1    3    3    0  501  0.26183005391E+02 -0.36210681641E+02 -0.44980304634E+02  0.63403478148E+02  0.10000000000E+00 0.  1.
         21    1    1    2  504  503 -0.17595345509E+02  0.27573462912E+02 -0.10654020469E+03  0.11144822679E+03  0.00000000000E+00 0. -1.
<mgrwt>
<rscale>  1 0.12920657E+03</rscale>
<asrwt>0</asrwt>
<pdfrwt beam="1">  1       21 0.18091790E-02 0.12920657E+03</pdfrwt>
<pdfrwt beam="2">  1       21 0.85768326E-01 0.12920657E+03</pdfrwt>
<totfact> 0.16999645E+06</totfact>
</mgrwt>
</event>
<event>
 6    1  0.4271609E-002  0.1268560E+03  0.7546771E-02  0.1232197E+00
         21   -1    0    0  504  502  0.00000000000E+00  0.00000000000E+00  0.19467515266E+03  0.19467515266E+03  0.00000000000E+00 0. -1.
         21   -1    0    0  502  503 -0.00000000000E+00 -0.00000000000E+00 -0.15003204985E+03  0.15003204985E+03  0.00000000000E+00 0. -1.
         25    2    1    2    0    0  0.18911219560E+02  0.10435478752E+02  0.17301091519E+03  0.21453489862E+03  0.12500364999E+03 0.  0.
          5    1    3    3  501    0 -0.35279532237E+02 -0.10637553716E+02  0.55462900053E+01  0.37263578421E+02  0.10000000000E+00 0. -1.
         -5    1    3    3    0  501  0.54190751797E+02  0.21073032468E+02  0.16746462518E+03  0.17727132020E+03  0.10000000000E+00 0. -1.
         21    1    1    2  504  503 -0.18911219560E+02 -0.10435478752E+02 -0.12836781239E+03  0.13017230389E+03  0.00000000000E+00 0. -1.
<mgrwt>
<rscale>  1 0.12685600E+03</rscale>
<asrwt>0</asrwt>
<pdfrwt beam="1">  1       21 0.29950023E-01 0.12685600E+03</pdfrwt>
<pdfrwt beam="2">  1       21 0.23081854E-01 0.12685600E+03</pdfrwt>
<totfact> 0.19196672E+05</totfact>
</mgrwt>
</event>
<event>
 6    1  0.4271609E-002  0.1286704E+03  0.7546771E-02  0.1229442E+00
         21   -1    0    0  504  502  0.00000000000E+00  0.00000000000E+00  0.25791054874E+02  0.25791054874E+02  0.00000000000E+00 0.  1.
         21   -1    0    0  502  503 -0.00000000000E+00 -0.00000000000E+00 -0.29946192368E+03  0.29946192368E+03  0.00000000000E+00 0.  1.
         25    2    1    2    0    0  0.28161039674E+02 -0.11791633641E+02 -0.26321579903E+03  0.29298232217E+03  0.12499598979E+03 0.  0.
          5    1    3    3  501    0 -0.56738606628E+01  0.50553468750E+02 -0.65548874129E+02  0.82972952202E+02  0.10000000000E+00 0. -1.
         -5    1    3    3    0  501  0.33834900336E+02 -0.62345102391E+02 -0.19766692490E+03  0.21000936997E+03  0.10000000000E+00 0. -1.
         21    1    1    2  504  503 -0.28161039674E+02  0.11791633641E+02 -0.10455069769E+02  0.32270656382E+02  0.00000000000E+00 0.  1.
<mgrwt>
<rscale>  1 0.12867045E+03</rscale>
<asrwt>0</asrwt>
<pdfrwt beam="1">  1       21 0.39678544E-02 0.12867045E+03</pdfrwt>
<pdfrwt beam="2">  1       21 0.46071067E-01 0.12867045E+03</pdfrwt>
<totfact> 0.17868563E+06</totfact>
</mgrwt>
</event>
<event>
 6    1  0.4271609E-002  0.1260533E+03  0.7546771E-02  0.1233432E+00
         21   -1    0    0  503  502  0.00000000000E+00  0.00000000000E+00  0.19629442863E+03  0.19629442863E+03  0.00000000000E+00 0. -1.
         21   -1    0    0  504  503 -0.00000000000E+00 -0.00000000000E+00 -0.13389607911E+03  0.13389607911E+03  0.00000000000E+00 0. -1.
         25    2    1    2    0    0  0.99305840414E+01  0.13138257699E+02  0.17539905425E+03  0.21599598255E+03  0.12497282077E+03 0.  0.
          5    1    3    3  501    0  0.26773092411E+02 -0.12506813974E+02  0.18219089583E+03  0.18457180553E+03  0.10000000000E+00 0. -1.
         -5    1    3    3    0  501 -0.16842508369E+02  0.25645071673E+02 -0.67918415786E+01  0.31424177019E+02  0.10000000000E+00 0. -1.
         21    1    1    2  504  502 -0.99305840414E+01 -0.13138257699E+02 -0.11300070473E+03  0.11419452519E+03  0.00000000000E+00 0. -1.
<mgrwt>
<rscale>  1 0.12605331E+03</rscale>
<asrwt>0</asrwt>
<pdfrwt beam="1">  1       21 0.30199143E-01 0.12605331E+03</pdfrwt>
<pdfrwt beam="2">  1       21 0.20599397E-01 0.12605331E+03</pdfrwt>
<totfact> 0.23358676E+05</totfact>
</mgrwt>
</event>
<event>
 6    1  0.4271609E-002  0.1286622E+03  0.7546771E-02  0.1229454E+00
         21   -1    0    0  504  502  0.00000000000E+00  0.00000000000E+00  0.42870396885E+03  0.42870396885E+03  0.00000000000E+00 0.  1.
         21   -1    0    0  502  503 -0.00000000000E+00 -0.00000000000E+00 -0.15055442801E+02  0.15055442801E+02  0.00000000000E+00 0.  1.
         25    2    1    2    0    0 -0.29179183333E+02 -0.88048112268E+01  0.35623088335E+03  0.37875375702E+03  0.12500006706E+03 0.  0.
          5    1    3    3  501    0 -0.44157496866E+02 -0.77309319693E+01  0.34231556333E+02  0.56404443863E+02  0.10000000000E+00 0. -1.
         -5    1    3    3    0  501  0.14978313533E+02 -0.10738792575E+01  0.32199932702E+03  0.32234931316E+03  0.10000000000E+00 0. -1.
         21    1    1    2  504  503  0.29179183333E+02  0.88048112268E+01  0.57417642695E+02  0.65005654626E+02  0.00000000000E+00 0.  1.
<mgrwt>
<rscale>  1 0.12866222E+03</rscale>
<asrwt>0</asrwt>
<pdfrwt beam="1">  1       21 0.65954447E-01 0.12866222E+03</pdfrwt>
<pdfrwt beam="2">  1       21 0.23162223E-02 0.12866222E+03</pdfrwt>
<totfact> 0.20378801E+06</totfact>
</mgrwt>
</event>
<event>
 6    1  0.4271609E-002  0.1302924E+03  0.7546771E-02  0.1227022E+00
         21   -1    0    0  503  502  0.00000000000E+00  0.00000000000E+00  0.48172410947E+02  0.48172410947E+02  0.00000000000E+00 0. -1.
         21   -1    0    0  504  503 -0.00000000000E+00 -0.00000000000E+00 -0.78358671358E+03  0.78358671358E+03  0.00000000000E+00 0. -1.
         25    2    1    2    0    0  0.23481133038E+02 -0.28211837407E+02 -0.41309167054E+02  0.13668415690E+03  0.12501535941E+03 0.  0.
          5    1    3    3  501    0  0.43825345157E+02  0.26840247394E+02 -0.56178774232E+02  0.76138849693E+02  0.10000000000E+00 0.  1.
         -5    1    3    3    0  501 -0.20344212119E+02 -0.55052084801E+02  0.14869607178E+02  0.60545307211E+02  0.10000000000E+00 0.  1.
         21    1    1    2  504  502 -0.23481133038E+02  0.28211837407E+02 -0.69410513558E+03  0.69507496762E+03  0.00000000000E+00 0. -1.
<mgrwt>
<rscale>  1 0.13029241E+03</rscale>
<asrwt>0</asrwt>
<pdfrwt beam="1">  1       21 0.74111407E-02 0.13029241E+03</pdfrwt>
<pdfrwt beam="2">  1       21 0.12055179E+00 0.13029241E+03</pdfrwt>
<totfact> 0.73800819E+04</totfact>
</mgrwt>
</event>
<event>
 6    1  0.4271609E-002  0.1262379E+03  0.7546771E-02  0.1233147E+00
         21   -1    0    0  503  502  0.00000000000E+00  0.00000000000E+00  0.18558315951E+03  0.18558315951E+03  0.00000000000E+00 0.  1.
         21   -1    0    0  504  503 -0.00000000000E+00 -0.00000000000E+00 -0.28254246705E+02  0.28254246705E+02  0.00000000000E+00 0.  1.
         25    2    1    2    0    0 -0.16289935717E+02  0.68217244127E+01  0.14525061746E+03  0.19244153867E+03  0.12499642396E+03 0.  0.
          5    1    3    3  501    0 -0.11031059070E+02 -0.34315070870E+02 -0.51655572027E+01  0.36412928120E+02  0.10000000000E+00 0.  1.
         -5    1    3    3    0  501 -0.52588766472E+01  0.41136795283E+02  0.15041617466E+03  0.15602861055E+03  0.10000000000E+00 0.  1.
         21    1    1    2  504  502  0.16289935717E+02 -0.68217244127E+01  0.12078295348E+02  0.21395867548E+02  0.00000000000E+00 0. -1.
<mgrwt>
<rscale>  1 0.12623789E+03</rscale>
<asrwt>0</asrwt>
<pdfrwt beam="1">  1       21 0.28551255E-01 0.12623789E+03</pdfrwt>
<pdfrwt beam="2">  1       21 0.43468073E-02 0.12623789E+03</pdfrwt>
<totfact> 0.39464596E+06</totfact>
</mgrwt>
</event>
<event>
 6    1  0.4271609E-002  0.1259352E+03  0.7546771E-02  0.1233615E+00
         21   -1    0    0  503  502  0.00000000000E+00  0.00000000000E+00  0.45152643620E+03  0.45152643620E+03  0.00000000000E+00 0.  1.
         21   -1    0    0  504  503 -0.00000000000E+00 -0.00000000000E+00 -0.16026652252E+02  0.16026652252E+02  0.00000000000E+00 0.  1.
         25    2    1    2    0    0 -0.11458701886E+02  0.10179760485E+02  0.43428682049E+03  0.45217776235E+03  0.12499902776E+03 0.  0.
          5    1    3    3  501    0  0.32298988171E+02  0.20820821625E+02  0.37867107224E+03  0.38061597734E+03  0.10000000000E+00 0.  1.
         -5    1    3    3    0  501 -0.43757690057E+02 -0.10641061140E+02  0.55615748247E+02  0.71561785014E+02  0.10000000000E+00 0.  1.
         21    1    1    2  504  502  0.11458701886E+02 -0.10179760485E+02  0.12129634585E+01  0.15375326103E+02  0.00000000000E+00 0.  1.
<mgrwt>
<rscale>  1 0.12593525E+03</rscale>
<asrwt>0</asrwt>
<pdfrwt beam="1">  1       21 0.69465596E-01 0.12593525E+03</pdfrwt>
<pdfrwt beam="2">  1       21 0.24656391E-02 0.12593525E+03</pdfrwt>
<totfact> 0.16447597E+06</totfact>
</mgrwt>
</event>
<event>
 6    1  0.4271609E-002  0.1791197E+03  0.7546771E-02  0.1168658E+00
         21   -1    0    0  504  502  0.00000000000E+00  0.00000000000E+00  0.35657321474E+02  0.35657321474E+02  0.00000000000E+00 0.  1.
         21   -1    0    0  502  503 -0.00000000000E+00 -0.00000000000E+00 -0.66330228018E+03  0.66330228018E+03  0.00000000000E+00 0.  1.
         25    2    1    2    0    0  0.86527611170E+02  0.94707177263E+02 -0.37741662051E+03  0.41776447695E+03  0.12500950302E+03 0.  0.
          5    1    3    3  501    0  0.11256823646E+03  0.72813320530E+02 -0.34748532370E+03  0.37245059765E+03  0.10000000000E+00 0. -1.
         -5    1    3    3    0  501 -0.26040625292E+02  0.21893856733E+02 -0.29931296816E+02  0.45313879301E+02  0.10000000000E+00 0. -1.
         21    1    1    2  504  503 -0.86527611170E+02 -0.94707177263E+02 -0.25022833819E+03  0.28119512470E+03  0.00000000000E+00 0.  1.
<mgrwt>
<rscale>  1 0.17911966E+03</rscale>
<asrwt>0</asrwt>
<pdfrwt beam="1">  1       21 0.54857414E-02 0.17911966E+03</pdfrwt>
<pdfrwt beam="2">  1       21 0.10204651E+00 0.17911966E+03</pdfrwt>
<totfact> 0.18057960E+05</totfact>
</mgrwt>
</event>
<event>
 6    1  0.4271609E-002  0.1260590E+03  0.7546771E-02  0.1233423E+00
         21   -1    0    0  503  502  0.00000000000E+00  0.00000000000E+00  0.45631249913E+02  0.45631249913E+02  0.00000000000E+00 0.  1.
         21   -1    0    0  504  503 -0.00000000000E+00 -0.00000000000E+00 -0.93697243593E+03  0.93697243593E+03  0.00000000000E+00 0.  1.
         25    2    1    2    0    0 -0.15786288199E+02  0.31253115134E+01 -0.41651910726E+02  0.13276203059E+03  0.12502759948E+03 0.  0.
          5    1    3    3  501    0 -0.25566331083E+02  0.53904603356E+02  0.90472583295E+01  0.60342409890E+02  0.10000000000E+00 0.  1.
         -5    1    3    3    0  501  0.97800428836E+01 -0.50779291843E+02 -0.50699169055E+02  0.72419620696E+02  0.10000000000E+00 0.  1.
         21    1    1    2  504  502  0.15786288199E+02 -0.31253115134E+01 -0.84968927529E+03  0.84984165526E+03  0.00000000000E+00 0.  1.
<mgrwt>
<rscale>  1 0.12605901E+03</rscale>
<asrwt>0</asrwt>
<pdfrwt beam="1">  1       21 0.70201922E-02 0.12605901E+03</pdfrwt>
<pdfrwt beam="2">  1       21 0.14414961E+00 0.12605901E+03</pdfrwt>
<totfact> 0.51935650E+04</totfact>
</mgrwt>
</event>
<event>
 6    1  0.4271609E-002  0.1511621E+03  0.7546771E-02  0.1199052E+00
         21   -1    0    0  503  502  0.00000000000E+00  0.00000000000E+00  0.74521829809E+02  0.74521829809E+02  0.00000000000E+00 0.  1.
         21   -1    0    0  504  503 -0.00000000000E+00 -0.00000000000E+00 -0.80765800029E+03  0.80765800029E+03  0.00000000000E+00 0.  1.
         25    2    1    2    0    0  0.63837509097E+01 -0.84761129309E+02 -0.72522232285E+01  0.15133599849E+03  0.12499915352E+03 0.  0.
          5    1    3    3  501    0  0.19458930634E+02 -0.11423016255E+03 -0.18183065450E+02  0.11729370779E+03  0.10000000000E+00 0. -1.
         -5    1    3    3    0  501 -0.13075179724E+02  0.29469033239E+02  0.10930842222E+02  0.34042290706E+02  0.10000000000E+00 0. -1.
         21    1    1    2  504  502 -0.63837509097E+01  0.84761129309E+02 -0.72588394725E+03  0.73084383160E+03  0.00000000000E+00 0.  1.
<mgrwt>
<rscale>  1 0.15116213E+03</rscale>
<asrwt>0</asrwt>
<pdfrwt beam="1">  1       21 0.11464896E-01 0.15116213E+03</pdfrwt>
<pdfrwt beam="2">  1       21 0.12425508E+00 0.15116213E+03</pdfrwt>
<totfact> 0.31618808E+04</totfact>
</mgrwt>
</event>
<event>
 6    1  0.4271609E-002  0.1280524E+03  0.7546771E-02  0.1230375E+00
         21   -1    0    0  504  502  0.00000000000E+00  0.00000000000E+00  0.17921005319E+02  0.17921005319E+02  0.00000000000E+00 0.  1.
         21   -1    0    0  502  503 -0.00000000000E+00 -0.00000000000E+00 -0.35795867126E+03  0.35795867126E+03  0.00000000000E+00 0.  1.
         25    2    1    2    0    0 -0.73227466735E+01  0.26803308410E+02 -0.23962857687E+03  0.27169702386E+03  0.12500151182E+03 0.  0.
          5    1    3    3  501    0 -0.14259816130E+02 -0.25601864455E+02 -0.32563057583E+01  0.29485782113E+02  0.10000000000E+00 0. -1.
         -5    1    3    3    0  501  0.69370694561E+01  0.52405172865E+02 -0.23637227112E+03  0.24221124175E+03  0.10000000000E+00 0. -1.
         21    1    1    2  504  503  0.73227466735E+01 -0.26803308410E+02 -0.10040908907E+03  0.10418265272E+03  0.00000000000E+00 0.  1.
<mgrwt>
<rscale>  1 0.12805240E+03</rscale>
<asrwt>0</asrwt>
<pdfrwt beam="1">  1       21 0.27570779E-02 0.12805240E+03</pdfrwt>
<pdfrwt beam="2">  1       21 0.55070562E-01 0.12805240E+03</pdfrwt>
<totfact> 0.22510445E+06</totfact>
</mgrwt>
</event>
<event>
 6    1  0.4271609E-002  0.1554034E+03  0.7546771E-02  0.1193986E+00
         21   -1    0    0  504  502  0.00000000000E+00  0.00000000000E+00  0.57166215813E+02  0.57166215813E+02  0.00000000000E+00 0. -1.
         21   -1    0    0  502  503 -0.00000000000E+00 -0.00000000000E+00 -0.16892002745E+04  0.16892002745E+04  0.00000000000E+00 0. -1.
         25    2    1    2    0    0 -0.73151175025E+02  0.56396441319E+02 -0.52349518718E+02  0.16398382521E+03  0.12497427663E+03 0.  0.
          5    1    3    3  501    0 -0.45559731928E+02  0.40822250724E+02 -0.93693525630E+02  0.11189563027E+03  0.10000000000E+00 0. -1.
         -5    1    3    3    0  501 -0.27591443097E+02  0.15574190595E+02  0.41344006913E+02  0.52088194944E+02  0.10000000000E+00 0. -1.
         21    1    1    2  504  503  0.73151175025E+02 -0.56396441319E+02 -0.15796845400E+04  0.15823826651E+04  0.00000000000E+00 0. -1.
<mgrwt>
<rscale>  1 0.15540342E+03</rscale>
<asrwt>0</asrwt>
<pdfrwt beam="1">  1       21 0.87948033E-02 0.15540342E+03</pdfrwt>
<pdfrwt beam="2">  1       21 0.25987694E+00 0.15540342E+03</pdfrwt>
<totfact> 0.61741374E+03</totfact>
</mgrwt>
</event>
<event>
 6    1  0.4271609E-002  0.1293945E+03  0.7546771E-02  0.1228357E+00
         21   -1    0    0  504  502  0.00000000000E+00  0.00000000000E+00  0.89032869297E+03  0.89032869297E+03  0.00000000000E+00 0. -1.
         21   -1    0    0  502  503 -0.00000000000E+00 -0.00000000000E+00 -0.49710329672E+02  0.49710329672E+02  0.00000000000E+00 0. -1.
         25    2    1    2    0    0  0.30873307009E+02 -0.12604121405E+02  0.87941329086E+03  0.88888170286E+03  0.12502368008E+03 0.  0.
          5    1    3    3  501    0 -0.12428983343E+02  0.50873602226E+02  0.33342133142E+03  0.33750910696E+03  0.10000000000E+00 0.  1.
         -5    1    3    3    0  501  0.43302290352E+02 -0.63477723631E+02  0.54599195944E+03  0.55137259591E+03  0.10000000000E+00 0.  1.
         21    1    1    2  504  503 -0.30873307009E+02  0.12604121405E+02 -0.38794927564E+02  0.51157319777E+02  0.00000000000E+00 0. -1.
<mgrwt>
<rscale>  1 0.12939453E+03</rscale>
<asrwt>0</asrwt>
<pdfrwt beam="1">  1       21 0.13697363E+00 0.12939453E+03</pdfrwt>
<pdfrwt beam="2">  1       21 0.76477437E-02 0.12939453E+03</pdfrwt>
<totfact> 0.50955970E+04</totfact>
</mgrwt>
</event>
<event>
 6    1  0.4271609E-002  0.1295500E+03  0.7546771E-02  0.1228125E+00
         21   -1    0    0  504  502  0.00000000000E+00  0.00000000000E+00  0.78754212521E+02  0.78754212521E+02  0.00000000000E+00 0. -1.
         21   -1    0    0  502  503 -0.00000000000E+00 -0.00000000000E+00 -0.13374964616E+03  0.13374964616E+03  0.00000000000E+00 0. -1.
         25    2    1    2    0    0 -0.30907490122E+01 -0.33838299404E+02  0.19136317266E+02  0.13095571506E+03  0.12501446889E+03 0.  0.
          5    1    3    3  501    0 -0.21899731855E+02  0.25918547007E+02  0.50543102040E+02  0.60876797699E+02  0.10000000000E+00 0. -1.
         -5    1    3    3    0  501  0.18808982843E+02 -0.59756846410E+02 -0.31406784774E+02  0.70078917360E+02  0.10000000000E+00 0. -1.
         21    1    1    2  504  503  0.30907490122E+01  0.33838299404E+02 -0.74131750908E+02  0.81548143625E+02  0.00000000000E+00 0. -1.
<mgrwt>
<rscale>  1 0.12954999E+03</rscale>
<asrwt>0</asrwt>
<pdfrwt beam="1">  1       21 0.12116033E-01 0.12954999E+03</pdfrwt>
<pdfrwt beam="2">  1       21 0.20576869E-01 0.12954999E+03</pdfrwt>
<totfact> 0.12608336E+06</totfact>
</mgrwt>
</event>
<event>
 6    1  0.4271609E-002  0.1306418E+03  0.7546771E-02  0.1226506E+00
         21   -1    0    0  503  502  0.00000000000E+00  0.00000000000E+00  0.17349429349E+03  0.17349429349E+03  0.00000000000E+00 0. -1.
         21   -1    0    0  504  503 -0.00000000000E+00 -0.00000000000E+00 -0.42714423436E+02  0.42714423436E+02  0.00000000000E+00 0. -1.
         25    2    1    2    0    0  0.27630547499E+02  0.26059185575E+02  0.11825989928E+03  0.17621774324E+03  0.12499904379E+03 0.  0.
          5    1    3    3  501    0 -0.38989130985E+02 -0.13023680154E+02  0.80179359558E+02  0.90102765102E+02  0.10000000000E+00 0.  1.
         -5    1    3    3    0  501  0.66619678485E+02  0.39082865729E+02  0.38080539719E+02  0.86114978141E+02  0.10000000000E+00 0.  1.
         21    1    1    2  504  502 -0.27630547499E+02 -0.26059185575E+02  0.12519970778E+02  0.39990973684E+02  0.00000000000E+00 0. -1.
<mgrwt>
<rscale>  1 0.13064184E+03</rscale>
<asrwt>0</asrwt>
<pdfrwt beam="1">  1       21 0.26691430E-01 0.13064184E+03</pdfrwt>
<pdfrwt beam="2">  1       21 0.65714498E-02 0.13064184E+03</pdfrwt>
<totfact> 0.22394352E+06</totfact>
</mgrwt>
</event>
<event>
 6    1  0.4271609E-002  0.1265330E+03  0.7546771E-02  0.1232693E+00
         21   -1    0    0  504  502  0.00000000000E+00  0.00000000000E+00  0.96720621443E+03  0.96720621443E+03  0.00000000000E+00 0. -1.
         21   -1    0    0  502  503 -0.00000000000E+00 -0.00000000000E+00 -0.11437722182E+03  0.11437722182E+03  0.00000000000E+00 0.  1.
         25    2    1    2    0    0 -0.15707070565E+02  0.11800471540E+02  0.96218878817E+03  0.97047300433E+03  0.12499849943E+03 0.  0.
          5    1    3    3  501    0 -0.55887442020E+02  0.25251236684E+02  0.81506932741E+03  0.81737326211E+03  0.10000000000E+00 0. -1.
         -5    1    3    3    0  501  0.40180371455E+02 -0.13450765144E+02  0.14711946076E+03  0.15309974222E+03  0.10000000000E+00 0. -1.
         21    1    1    2  504  503  0.15707070565E+02 -0.11800471540E+02 -0.10935979556E+03  0.11111043191E+03  0.00000000000E+00 0.  1.
<mgrwt>
<rscale>  1 0.12653295E+03</rscale>
<asrwt>0</asrwt>
<pdfrwt beam="1">  1       21 0.14880095E+00 0.12653295E+03</pdfrwt>
<pdfrwt beam="2">  1       21 0.17596496E-01 0.12653295E+03</pdfrwt>
<totfact> 0.94649118E+03</totfact>
</mgrwt>
</event>
<event>
 6    1  0.4271609E-002  0.1267474E+03  0.7546771E-02  0.1232363E+00
         21   -1    0    0  503  502  0.00000000000E+00  0.00000000000E+00  0.32654923161E+02  0.32654923161E+02  0.00000000000E+00 0.  1.
         21   -1    0    0  504  503 -0.00000000000E+00 -0.00000000000E+00 -0.16736515712E+03  0.16736515712E+03  0.00000000000E+00 0.  1.
         25    2    1    2    0    0  0.18266582001E+02 -0.10165235934E+02 -0.11184381138E+03  0.16903825785E+03  0.12501157720E+03 0.  0.
          5    1    3    3  501    0  0.66510769270E+02  0.53025065927E+01 -0.30860601190E+02  0.73513166921E+02  0.10000000000E+00 0. -1.
         -5    1    3    3    0  501 -0.48244187268E+02 -0.15467742527E+02 -0.80983210195E+02  0.95525090931E+02  0.10000000000E+00 0. -1.
         21    1    1    2  504  502 -0.18266582001E+02  0.10165235934E+02 -0.22866422572E+02  0.30981822426E+02  0.00000000000E+00 0.  1.
<mgrwt>
<rscale>  1 0.12674736E+03</rscale>
<asrwt>0</asrwt>
<pdfrwt beam="1">  1       21 0.50238342E-02 0.12674736E+03</pdfrwt>
<pdfrwt beam="2">  1       21 0.25748486E-01 0.12674736E+03</pdfrwt>
<totfact> 0.37723668E+06</totfact>
</mgrwt>
</event>
<event>
 6    1  0.4271609E-002  0.1282209E+03  0.7546771E-02  0.1230120E+00
         21   -1    0    0  504  502  0.00000000000E+00  0.00000000000E+00  0.14011657214E+03  0.14011657214E+03  0.00000000000E+00 0.  1.
         21   -1    0    0  502  503 -0.00000000000E+00 -0.00000000000E+00 -0.10334263374E+03  0.10334263374E+03  0.00000000000E+00 0.  1.
         25    2    1    2    0    0 -0.28104832224E+02  0.51091770289E+01  0.10741063827E+03  0.16726518608E+03  0.12499844790E+03 0.  0.
          5    1    3    3  501    0  0.11638572503E+01  0.46157286481E+02 -0.26080461622E+01  0.46245665351E+02  0.10000000000E+00 0. -1.
         -5    1    3    3    0  501 -0.29268689474E+02 -0.41048109452E+02  0.11001868443E+03  0.12101952073E+03  0.10000000000E+00 0. -1.
         21    1    1    2  504  503  0.28104832224E+02 -0.51091770289E+01 -0.70636699869E+02  0.76194019795E+02  0.00000000000E+00 0.  1.
<mgrwt>
<rscale>  1 0.12822089E+03</rscale>
<asrwt>0</asrwt>
<pdfrwt beam="1">  1       21 0.21556396E-01 0.12822089E+03</pdfrwt>
<pdfrwt beam="2">  1       21 0.15898867E-01 0.12822089E+03</pdfrwt>
<totfact> 0.71065429E+05</totfact>
</mgrwt>
</event>
<event>
 6    1  0.4271609E-002  0.2081520E+03  0.7546771E-02  0.1143038E+00
         21   -1    0    0  503  502  0.00000000000E+00  0.00000000000E+00  0.14428681119E+03  0.14428681119E+03  0.00000000000E+00 0. -1.
         21   -1    0    0  504  503 -0.00000000000E+00 -0.00000000000E+00 -0.70817425656E+03  0.70817425656E+03  0.00000000000E+00 0.  1.
         25    2    1    2    0    0 -0.16626512557E+03  0.78780251743E+01  0.51940484069E+02  0.21453458771E+03  0.12498447976E+03 0.  0.
          5    1    3    3  501    0 -0.18421158884E+03  0.11758541534E+02  0.31844224965E+02  0.18731320676E+03  0.10000000000E+00 0.  1.
         -5    1    3    3    0  501  0.17946463273E+02 -0.38805163600E+01  0.20096259104E+02  0.27221380957E+02  0.10000000000E+00 0.  1.
         21    1    1    2  504  502  0.16626512557E+03 -0.78780251743E+01 -0.61582792944E+03  0.63792648004E+03  0.00000000000E+00 0.  1.
<mgrwt>
<rscale>  1 0.20815205E+03</rscale>
<asrwt>0</asrwt>
<pdfrwt beam="1">  1       21 0.22197971E-01 0.20815205E+03</pdfrwt>
<pdfrwt beam="2">  1       21 0.10894989E+00 0.20815205E+03</pdfrwt>
<totfact> 0.12553934E+04</totfact>
</mgrwt>
</event>
<event>
 6    1  0.4271609E-002  0.1276939E+03  0.7546771E-02  0.1230918E+00
         21   -1    0    0  503  502  0.00000000000E+00  0.00000000000E+00  0.17734635098E+03  0.17734635098E+03  0.00000000000E+00 0.  1.
         21   -1    0    0  504  503 -0.00000000000E+00 -0.00000000000E+00 -0.42554229184E+03  0.42554229184E+03  0.00000000000E+00 0. -1.
         25    2    1    2    0    0  0.24893577266E+02  0.77928742519E+01  0.15388310739E+03  0.19996435699E+03  0.12500125698E+03 0.  0.
          5    1    3    3  501    0  0.10089009088E+02  0.66391052559E+02  0.77011763931E+02  0.10217818626E+03  0.10000000000E+00 0.  1.
         -5    1    3    3    0  501  0.14804568177E+02 -0.58598178307E+02  0.76871343457E+02  0.97786170723E+02  0.10000000000E+00 0.  1.
         21    1    1    2  504  502 -0.24893577266E+02 -0.77928742519E+01 -0.40207904825E+03  0.40292428584E+03  0.00000000000E+00 0. -1.
<mgrwt>
<rscale>  1 0.12769390E+03</rscale>
<asrwt>0</asrwt>
<pdfrwt beam="1">  1       21 0.27284054E-01 0.12769390E+03</pdfrwt>
<pdfrwt beam="2">  1       21 0.65468045E-01 0.12769390E+03</pdfrwt>
<totfact> 0.28572485E+04</totfact>
</mgrwt>
</event>
<event>
 6    1  0.4271609E-002  0.1263561E+03  0.7546771E-02  0.1232965E+00
         21   -1    0    0  503  502  0.00000000000E+00  0.00000000000E+00  0.50635376902E+03  0.50635376902E+03  0.00000000000E+00 0.  1.
         21   -1    0    0  504  503 -0.00000000000E+00 -0.00000000000E+00 -0.10707085317E+03  0.10707085317E+03  0.00000000000E+00 0. -1.
         25    2    1    2    0    0 -0.15410426757E+02  0.99675605535E+01  0.49760867465E+03  0.51340068326E+03  0.12501613882E+03 0.  0.
          5    1    3    3  501    0 -0.40633419555E+02  0.18609447464E+02  0.59168615750E+02  0.74150666952E+02  0.10000000000E+00 0. -1.
         -5    1    3    3    0  501  0.25222992798E+02 -0.86418869101E+01  0.43844005890E+03  0.43925001630E+03  0.10000000000E+00 0. -1.
         21    1    1    2  504  502  0.15410426757E+02 -0.99675605535E+01 -0.98325758796E+02  0.10002393893E+03  0.00000000000E+00 0. -1.
<mgrwt>
<rscale>  1 0.12635612E+03</rscale>
<asrwt>0</asrwt>
<pdfrwt beam="1">  1       21 0.77900579E-01 0.12635612E+03</pdfrwt>
<pdfrwt beam="2">  1       21 0.16472439E-01 0.12635612E+03</pdfrwt>
<totfact> 0.49955347E+04</totfact>
</mgrwt>
</event>
<event>
 6    1  0.4271609E-002  0.1303263E+03  0.7546771E-02  0.1226972E+00
         21   -1    0    0  504  502  0.00000000000E+00  0.00000000000E+00  0.52685013813E+02  0.52685013813E+02  0.00000000000E+00 0.  1.
         21   -1    0    0  502  503 -0.00000000000E+00 -0.00000000000E+00 -0.21303358444E+03  0.21303358444E+03  0.00000000000E+00 0.  1.
         25    2    1    2    0    0  0.35851723735E+02  0.85721964350E+01 -0.34831611405E+02  0.13490064957E+03  0.12500446173E+03 0.  0.
          5    1    3    3  501    0  0.63937111611E+02 -0.37361196210E+02 -0.72483003729E+01  0.74406727395E+02  0.10000000000E+00 0. -1.
         -5    1    3    3    0  501 -0.28085387876E+02  0.45933392645E+02 -0.27583311032E+02  0.60493922170E+02  0.10000000000E+00 0. -1.
         21    1    1    2  504  503 -0.35851723735E+02 -0.85721964350E+01 -0.12551695922E+03  0.13081794869E+03  0.00000000000E+00 0.  1.
<mgrwt>
<rscale>  1 0.13032630E+03</rscale>
<asrwt>0</asrwt>
<pdfrwt beam="1">  1       21 0.81053866E-02 0.13032630E+03</pdfrwt>
<pdfrwt beam="2">  1       21 0.32774398E-01 0.13032630E+03</pdfrwt>
<totfact> 0.10520943E+06</totfact>
</mgrwt>
</event>
<event>
 6    1  0.4271609E-002  0.1263140E+03  0.7546771E-02  0.1233030E+00
         21   -1    0    0  504  502  0.00000000000E+00  0.00000000000E+00  0.60087384589E+02  0.60087384589E+02  0.00000000000E+00 0. -1.
         21   -1    0    0  502  503 -0.00000000000E+00 -0.00000000000E+00 -0.90246699415E+02  0.90246699415E+02  0.00000000000E+00 0. -1.
         25    2    1    2    0    0  0.18136717742E+02 -0.10653175666E+01 -0.16047454618E+02  0.12732930123E+03  0.12500061888E+03 0.  0.
          5    1    3    3  501    0  0.16704509281E+02 -0.98662608381E+01 -0.70003080458E+02  0.72641758010E+02  0.10000000000E+00 0.  1.
         -5    1    3    3    0  501  0.14322084605E+01  0.88009432714E+01  0.53955625840E+02  0.54687543219E+02  0.10000000000E+00 0.  1.
         21    1    1    2  504  503 -0.18136717742E+02  0.10653175666E+01 -0.14111860208E+02  0.23004782774E+02  0.00000000000E+00 0. -1.
<mgrwt>
<rscale>  1 0.12631401E+03</rscale>
<asrwt>0</asrwt>
<pdfrwt beam="1">  1       21 0.92442130E-02 0.12631401E+03</pdfrwt>
<pdfrwt beam="2">  1       21 0.13884108E-01 0.12631401E+03</pdfrwt>
<totfact> 0.41469765E+06</totfact>
</mgrwt>
</event>
<event>
 6    1  0.4271609E-002  0.1278268E+03  0.7546771E-02  0.1230716E+00
         21   -1    0    0  504  502  0.00000000000E+00  0.00000000000E+00  0.10094891739E+03  0.10094891739E+03  0.00000000000E+00 0. -1.
         21   -1    0    0  502  503 -0.00000000000E+00 -0.00000000000E+00 -0.13959429998E+03  0.13959429998E+03  0.00000000000E+00 0.  1.
         25    2    1    2    0    0 -0.21072061623E+02 -0.16440394932E+02  0.57927744200E+02  0.14033998797E+03  0.12500148122E+03 0.  0.
          5    1    3    3  501    0 -0.36415536133E+02  0.14792831002E+02 -0.27583981131E+02  0.48018799818E+02  0.10000000000E+00 0.  1.
         -5    1    3    3    0  501  0.15343474510E+02 -0.31233225934E+02  0.85511725331E+02  0.92321188150E+02  0.10000000000E+00 0.  1.
         21    1    1    2  504  503  0.21072061623E+02  0.16440394932E+02 -0.96573126786E+02  0.10020322941E+03  0.00000000000E+00 0.  1.
<mgrwt>
<rscale>  1 0.12782679E+03</rscale>
<asrwt>0</asrwt>
<pdfrwt beam="1">  1       21 0.15530603E-01 0.12782679E+03</pdfrwt>
<pdfrwt beam="2">  1       21 0.21476046E-01 0.12782679E+03</pdfrwt>
<totfact> 0.74659990E+05</totfact>
</mgrwt>
</event>
<event>
 6    1  0.4271609E-002  0.1261292E+03  0.7546771E-02  0.1233315E+00
         21   -1    0    0  503  502  0.00000000000E+00  0.00000000000E+00  0.42156527883E+02  0.42156527883E+02  0.00000000000E+00 0. -1.
         21   -1    0    0  504  503 -0.00000000000E+00 -0.00000000000E+00 -0.12341161826E+03  0.12341161826E+03  0.00000000000E+00 0. -1.
         25    2    1    2    0    0 -0.15859307495E+02  0.56632318335E+01 -0.78338590253E+02  0.14847733569E+03  0.12499997865E+03 0.  0.
          5    1    3    3  501    0  0.26426596435E+02  0.21630405696E+02  0.20473907396E+02  0.39817462673E+02  0.10000000000E+00 0. -1.
         -5    1    3    3    0  501 -0.42285903930E+02 -0.15967173862E+02 -0.98812497649E+02  0.10865987302E+03  0.10000000000E+00 0. -1.
         21    1    1    2  504  502  0.15859307495E+02 -0.56632318335E+01 -0.29165001254E+01  0.17090810455E+02  0.00000000000E+00 0. -1.
<mgrwt>
<rscale>  1 0.12612924E+03</rscale>
<asrwt>0</asrwt>
<pdfrwt beam="1">  1       21 0.64856196E-02 0.12612924E+03</pdfrwt>
<pdfrwt beam="2">  1       21 0.18986403E-01 0.12612924E+03</pdfrwt>
<totfact> 0.43243729E+06</totfact>
</mgrwt>
</event>
<event>
 6    1  0.4271609E-002  0.1264721E+03  0.7546771E-02  0.1232786E+00
         21   -1    0    0  503  502  0.00000000000E+00  0.00000000000E+00  0.33480679415E+02  0.33480679415E+02  0.00000000000E+00 0.  1.
         21   -1    0    0  504  503 -0.00000000000E+00 -0.00000000000E+00 -0.15860117577E+03  0.15860117577E+03  0.00000000000E+00 0.  1.
         25    2    1    2    0    0  0.26358512432E+01  0.19051750376E+02 -0.10715365408E+03  0.16576219855E+03  0.12500113592E+03 0.  0.
          5    1    3    3  501    0  0.26116777208E+02 -0.26336217435E+02 -0.10847719042E+03  0.11464289442E+03  0.10000000000E+00 0.  1.
         -5    1    3    3    0  501 -0.23480925964E+02  0.45387967811E+02  0.13235363354E+01  0.51119304129E+02  0.10000000000E+00 0.  1.
         21    1    1    2  504  502 -0.26358512432E+01 -0.19051750376E+02 -0.17966842279E+02  0.26319656640E+02  0.00000000000E+00 0.  1.
<mgrwt>
<rscale>  1 0.12647213E+03</rscale>
<asrwt>0</asrwt>
<pdfrwt beam="1">  1       21 0.51508736E-02 0.12647213E+03</pdfrwt>
<pdfrwt beam="2">  1       21 0.24400182E-01 0.12647213E+03</pdfrwt>
<totfact> 0.40038683E+06</totfact>
</mgrwt>
</event>
<event>
 6    1  0.4271609E-002  0.1340513E+03  0.7546771E-02  0.1221565E+00
         21   -1    0    0  504  502  0.00000000000E+00  0.00000000000E+00  0.26730684404E+03  0.26730684404E+03  0.00000000000E+00 0. -1.
         21   -1    0    0  502  503 -0.00000000000E+00 -0.00000000000E+00 -0.35225674817E+02  0.35225674817E+02  0.00000000000E+00 0. -1.
         25    2    1    2    0    0  0.46574952437E+02 -0.13296513647E+02  0.21037771839E+03  0.24945650499E+03  0.12499495997E+03 0.  0.
          5    1    3    3  501    0 -0.28455979856E+02 -0.11665212871E+02  0.15004237524E+03  0.15316182406E+03  0.10000000000E+00 0.  1.
         -5    1    3    3    0  501  0.75030932293E+02 -0.16313007759E+01  0.60335343144E+02  0.96294680930E+02  0.10000000000E+00 0.  1.
         21    1    1    2  504  503 -0.46574952437E+02  0.13296513647E+02  0.21703450835E+02  0.53076013865E+02  0.00000000000E+00 0. -1.
<mgrwt>
<rscale>  1 0.13405135E+03</rscale>
<asrwt>0</asrwt>
<pdfrwt beam="1">  1       21 0.41124129E-01 0.13405135E+03</pdfrwt>
<pdfrwt beam="2">  1       21 0.54193348E-02 0.13405135E+03</pdfrwt>
<totfact> 0.13352998E+06</totfact>
</mgrwt>
</event>
<event>
 6    1  0.4271609E-002  0.1274452E+03  0.7546771E-02  0.1231297E+00
         21   -1    0    0  504  502  0.00000000000E+00  0.00000000000E+00  0.92300084665E+02  0.92300084665E+02  0.00000000000E+00 0. -1.
         21   -1    0    0  502  503 -0.00000000000E+00 -0.00000000000E+00 -0.95380874828E+02  0.95380874828E+02  0.00000000000E+00 0. -1.
         25    2    1    2    0    0 -0.68438398410E+01 -0.23825079013E+02  0.43707583901E+02  0.13473169622E+03  0.12501121766E+03 0.  0.
          5    1    3    3  501    0 -0.53910066312E+02  0.85295472970E+00 -0.14580560505E+02  0.55853607996E+02  0.10000000000E+00 0.  1.
         -5    1    3    3    0  501  0.47066226471E+02 -0.24678033742E+02  0.58288144406E+02  0.78878088224E+02  0.10000000000E+00 0.  1.
         21    1    1    2  504  503  0.68438398410E+01  0.23825079013E+02 -0.46788374063E+02  0.52949263274E+02  0.00000000000E+00 0. -1.
<mgrwt>
<rscale>  1 0.12744519E+03</rscale>
<asrwt>0</asrwt>
<pdfrwt beam="1">  1       21 0.14200013E-01 0.12744519E+03</pdfrwt>
<pdfrwt beam="2">  1       21 0.14673981E-01 0.12744519E+03</pdfrwt>
<totfact> 0.17603313E+06</totfact>
</mgrwt>
</event>
<event>
 6    1  0.4271609E-002  0.1312437E+03  0.7546771E-02  0.1225622E+00
         21   -1    0    0  503  502  0.00000000000E+00  0.00000000000E+00  0.10391370705E+03  0.10391370705E+03  0.00000000000E+00 0. -1.
         21   -1    0    0  504  503 -0.00000000000E+00 -0.00000000000E+00 -0.70679059539E+02  0.70679059539E+02  0.00000000000E+00 0. -1.
         25    2    1    2    0    0 -0.11837719660E+01 -0.39959010478E+02  0.28843267407E+02  0.13437575460E+03  0.12500714185E+03 0.  0.
          5    1    3    3  501    0  0.35653948798E+02 -0.44995125575E+02  0.62043800259E+02  0.84529335387E+02  0.10000000000E+00 0. -1.
         -5    1    3    3    0  501 -0.36837720764E+02  0.50361150967E+01 -0.33200532851E+02  0.49846419209E+02  0.10000000000E+00 0. -1.
         21    1    1    2  504  502  0.11837719660E+01  0.39959010478E+02  0.43913801044E+01  0.40217011994E+02  0.00000000000E+00 0. -1.
<mgrwt>
<rscale>  1 0.13124370E+03</rscale>
<asrwt>0</asrwt>
<pdfrwt beam="1">  1       21 0.15986724E-01 0.13124370E+03</pdfrwt>
<pdfrwt beam="2">  1       21 0.10873701E-01 0.13124370E+03</pdfrwt>
<totfact> 0.24249633E+06</totfact>
</mgrwt>
</event>
<event>
 6    1  0.4271609E-002  0.1765318E+03  0.7546771E-02  0.1171202E+00
         21   -1    0    0  503  502  0.00000000000E+00  0.00000000000E+00  0.23951647624E+03  0.23951647624E+03  0.00000000000E+00 0. -1.
         21   -1    0    0  504  503 -0.00000000000E+00 -0.00000000000E+00 -0.96901049710E+02  0.96901049710E+02  0.00000000000E+00 0. -1.
         25    2    1    2    0    0  0.94153628442E+02 -0.81690768814E+02  0.10838951070E+03  0.20715151815E+03  0.12500071194E+03 0.  0.
          5    1    3    3  501    0  0.36467179035E+02  0.23776787766E+02 -0.24984729368E+01  0.43605540362E+02  0.10000000000E+00 0. -1.
         -5    1    3    3    0  501  0.57686449406E+02 -0.10546755658E+03  0.11088798364E+03  0.16354597779E+03  0.10000000000E+00 0. -1.
         21    1    1    2  504  502 -0.94153628442E+02  0.81690768814E+02  0.34225915832E+02  0.12926600780E+03  0.00000000000E+00 0. -1.
<mgrwt>
<rscale>  1 0.17653177E+03</rscale>
<asrwt>0</asrwt>
<pdfrwt beam="1">  1       21 0.36848689E-01 0.17653177E+03</pdfrwt>
<pdfrwt beam="2">  1       21 0.14907854E-01 0.17653177E+03</pdfrwt>
<totfact> 0.28286197E+05</totfact>
</mgrwt>
</event>
<event>
 6    1  0.4271609E-002  0.1674110E+03  0.7546771E-02  0.1180575E+00
         21   -1    0    0  503  502  0.00000000000E+00  0.00000000000E+00  0.16257631904E+03  0.16257631904E+03  0.00000000000E+00 0.  1.
         21   -1    0    0  504  503 -0.00000000000E+00 -0.00000000000E+00 -0.11968952152E+03  0.11968952152E+03  0.00000000000E+00 0.  1.
         25    2    1    2    0    0  0.27269306289E+02  0.10797299697E+03  0.20327500825E+02  0.16864055725E+03  0.12499858847E+03 0.  0.
          5    1    3    3  501    0 -0.20622684652E+01  0.36233591428E+02  0.68404524037E+02  0.77435876748E+02  0.10000000000E+00 0.  1.
         -5    1    3    3    0  501  0.29331574754E+02  0.71739405539E+02 -0.48077023213E+02  0.91204680503E+02  0.10000000000E+00 0.  1.
         21    1    1    2  504  502 -0.27269306289E+02 -0.10797299697E+03  0.22559296704E+02  0.11362528331E+03  0.00000000000E+00 0.  1.
<mgrwt>
<rscale>  1 0.16741096E+03</rscale>
<asrwt>0</asrwt>
<pdfrwt beam="1">  1       21 0.25011741E-01 0.16741096E+03</pdfrwt>
<pdfrwt beam="2">  1       21 0.18413773E-01 0.16741096E+03</pdfrwt>
<totfact> 0.40933866E+05</totfact>
</mgrwt>
</event>
<event>
 6    1  0.4271609E-002  0.1266851E+03  0.7546771E-02  0.1232459E+00
         21   -1    0    0  504  502  0.00000000000E+00  0.00000000000E+00  0.71923880176E+01  0.71923880176E+01  0.00000000000E+00 0.  1.
         21   -1    0    0  502  503 -0.00000000000E+00 -0.00000000000E+00 -0.75948811782E+03  0.75948811782E+03  0.00000000000E+00 0.  1.
         25    2    1    2    0    0  0.14923051620E+02  0.14251750131E+02 -0.62320756881E+03  0.63595344988E+03  0.12499322677E+03 0.  0.
          5    1    3    3  501    0  0.67415329609E+02  0.25637888807E+02 -0.39289177989E+03  0.39945724266E+03  0.10000000000E+00 0.  1.
         -5    1    3    3    0  501 -0.52492277989E+02 -0.11386138677E+02 -0.23031578892E+03  0.23649620722E+03  0.10000000000E+00 0.  1.
         21    1    1    2  504  503 -0.14923051620E+02 -0.14251750131E+02 -0.12908816099E+03  0.13072705595E+03  0.00000000000E+00 0.  1.
<mgrwt>
<rscale>  1 0.12668511E+03</rscale>
<asrwt>0</asrwt>
<pdfrwt beam="1">  1       21 0.11065219E-02 0.12668511E+03</pdfrwt>
<pdfrwt beam="2">  1       21 0.11684426E+00 0.12668511E+03</pdfrwt>
<totfact> 0.18044314E+06</totfact>
</mgrwt>
</event>
<event>
 6    1  0.4271609E-002  0.1265658E+03  0.7546771E-02  0.1232642E+00
         21   -1    0    0  504  502  0.00000000000E+00  0.00000000000E+00  0.52676387231E+02  0.52676387231E+02  0.00000000000E+00 0.  1.
         21   -1    0    0  502  503 -0.00000000000E+00 -0.00000000000E+00 -0.10229938518E+03  0.10229938518E+03  0.00000000000E+00 0.  1.
         25    2    1    2    0    0  0.19724628373E+02 -0.18890215892E+01 -0.38702954680E+02  0.13235107988E+03  0.12500504101E+03 0.  0.
          5    1    3    3  501    0  0.52278142512E+02  0.17264649890E+02 -0.65852902536E+02  0.85835232235E+02  0.10000000000E+00 0. -1.
         -5    1    3    3    0  501 -0.32553514140E+02 -0.19153671479E+02  0.27149947856E+02  0.46515847649E+02  0.10000000000E+00 0. -1.
         21    1    1    2  504  503 -0.19724628373E+02  0.18890215892E+01 -0.10920043270E+02  0.22624692529E+02  0.00000000000E+00 0.  1.
<mgrwt>
<rscale>  1 0.12656575E+03</rscale>
<asrwt>0</asrwt>
<pdfrwt beam="1">  1       21 0.81040597E-02 0.12656575E+03</pdfrwt>
<pdfrwt beam="2">  1       21 0.15738367E-01 0.12656575E+03</pdfrwt>
<totfact> 0.41571078E+06</totfact>
</mgrwt>
</event>
<event>
 6    1  0.4271609E-002  0.1380263E+03  0.7546771E-02  0.1216010E+00
         21   -1    0    0  504  502  0.00000000000E+00  0.00000000000E+00  0.17379212620E+03  0.17379212620E+03  0.00000000000E+00 0.  1.
         21   -1    0    0  502  503 -0.00000000000E+00 -0.00000000000E+00 -0.69106472109E+02  0.69106472109E+02  0.00000000000E+00 0.  1.
         25    2    1    2    0    0 -0.38873108441E+02 -0.43767244291E+02  0.11943992388E+03  0.18252990849E+03  0.12499832737E+03 0.  0.
          5    1    3    3  501    0 -0.16290405480E+02 -0.71022416136E+02  0.12692279860E+03  0.14635220432E+03  0.10000000000E+00 0.  1.
         -5    1    3    3    0  501 -0.22582702961E+02  0.27255171845E+02 -0.74828747204E+01  0.36177704176E+02  0.10000000000E+00 0.  1.
         21    1    1    2  504  503  0.38873108441E+02  0.43767244291E+02 -0.14754269790E+02  0.60368689813E+02  0.00000000000E+00 0.  1.
<mgrwt>
<rscale>  1 0.13802635E+03</rscale>
<asrwt>0</asrwt>
<pdfrwt beam="1">  1       21 0.26737250E-01 0.13802635E+03</pdfrwt>
<pdfrwt beam="2">  1       21 0.10631765E-01 0.13802635E+03</pdfrwt>
<totfact> 0.97135374E+05</totfact>
</mgrwt>
</event>
<event>
 6    1  0.4271609E-002  0.1528411E+03  0.7546771E-02  0.1197025E+00
         21   -1    0    0  504  502  0.00000000000E+00  0.00000000000E+00  0.21056220690E+04  0.21056220690E+04  0.00000000000E+00 0. -1.
         21   -1    0    0  502  503 -0.00000000000E+00 -0.00000000000E+00 -0.85855396341E+01  0.85855396341E+01  0.00000000000E+00 0. -1.
         25    2    1    2    0    0  0.39812142900E+02 -0.78429072567E+02  0.81841231257E+03  0.83256178629E+03  0.12499715390E+03 0.  0.
          5    1    3    3  501    0 -0.28140277593E+02 -0.80041965072E+02  0.46184668842E+03  0.46957530280E+03  0.10000000000E+00 0. -1.
         -5    1    3    3    0  501  0.67952420493E+02  0.16128925052E+01  0.35656562415E+03  0.36298648349E+03  0.10000000000E+00 0. -1.
         21    1    1    2  504  503 -0.39812142900E+02  0.78429072567E+02  0.12786242168E+04  0.12816458223E+04  0.00000000000E+00 0. -1.
<mgrwt>
<rscale>  1 0.15284114E+03</rscale>
<asrwt>0</asrwt>
<pdfrwt beam="1">  1       21 0.32394145E+00 0.15284114E+03</pdfrwt>
<pdfrwt beam="2">  1       21 0.13208539E-02 0.15284114E+03</pdfrwt>
<totfact> 0.62213677E+04</totfact>
</mgrwt>
</event>
<event>
 6    1  0.4271609E-002  0.1273038E+03  0.7546771E-02  0.1231512E+00
         21   -1    0    0  503  502  0.00000000000E+00  0.00000000000E+00  0.34923530769E+02  0.34923530769E+02  0.00000000000E+00 0.  1.
         21   -1    0    0  504  503 -0.00000000000E+00 -0.00000000000E+00 -0.16919185043E+03  0.16919185043E+03  0.00000000000E+00 0.  1.
         25    2    1    2    0    0 -0.19527847589E+02  0.14136330919E+02 -0.98407484671E+02  0.16090459355E+03  0.12500033001E+03 0.  0.
          5    1    3    3  501    0 -0.49570177870E+02  0.55620680673E+02 -0.70512295379E+02  0.10258097510E+03  0.10000000000E+00 0.  1.
         -5    1    3    3    0  501  0.30042330281E+02 -0.41484349754E+02 -0.27895189292E+02  0.58323618448E+02  0.10000000000E+00 0.  1.
         21    1    1    2  504  502  0.19527847589E+02 -0.14136330919E+02 -0.35860834990E+02  0.43210787652E+02  0.00000000000E+00 0.  1.
<mgrwt>
<rscale>  1 0.12730379E+03</rscale>
<asrwt>0</asrwt>
<pdfrwt beam="1">  1       21 0.53728509E-02 0.12730379E+03</pdfrwt>
<pdfrwt beam="2">  1       21 0.26029515E-01 0.12730379E+03</pdfrwt>
<totfact> 0.33013289E+06</totfact>
</mgrwt>
</event>
<event>
 6    1  0.4271609E-002  0.1364096E+03  0.7546771E-02  0.1218243E+00
         21   -1    0    0  503  502  0.00000000000E+00  0.00000000000E+00  0.55429979197E+02  0.55429979197E+02  0.00000000000E+00 0.  1.
         21   -1    0    0  504  503 -0.00000000000E+00 -0.00000000000E+00 -0.20018236539E+03  0.20018236539E+03  0.00000000000E+00 0.  1.
         25    2    1    2    0    0 -0.54629082581E+02  0.91491797656E+00 -0.48203519280E+02  0.14467606810E+03  0.12498964626E+03 0.  0.
          5    1    3    3  501    0 -0.46547551683E+02  0.59435356206E+02 -0.38719729729E+02  0.84843759967E+02  0.10000000000E+00 0. -1.
         -5    1    3    3    0  501 -0.80815308976E+01 -0.58520438230E+02 -0.94837895515E+01  0.59832308133E+02  0.10000000000E+00 0. -1.
         21    1    1    2  504  502  0.54629082581E+02 -0.91491797656E+00 -0.96548866915E+02  0.11093627649E+03  0.00000000000E+00 0.  1.
<mgrwt>
<rscale>  1 0.13640962E+03</rscale>
<asrwt>0</asrwt>
<pdfrwt beam="1">  1       21 0.85276890E-02 0.13640962E+03</pdfrwt>
<pdfrwt beam="2">  1       21 0.30797287E-01 0.13640962E+03</pdfrwt>
<totfact> 0.10878897E+06</totfact>
</mgrwt>
</event>
<event>
 6    1  0.4271609E-002  0.1327206E+03  0.7546771E-02  0.1223474E+00
         21   -1    0    0  503  502  0.00000000000E+00  0.00000000000E+00  0.59611857413E+03  0.59611857413E+03  0.00000000000E+00 0. -1.
         21   -1    0    0  504  503 -0.00000000000E+00 -0.00000000000E+00 -0.14062114291E+02  0.14062114291E+02  0.00000000000E+00 0. -1.
         25    2    1    2    0    0 -0.35394551867E+02 -0.27146416144E+02  0.49335206796E+03  0.51089236408E+03  0.12500017003E+03 0.  0.
          5    1    3    3  501    0  0.33108405276E+02  0.21505078910E+02  0.81521572552E+02  0.90578207701E+02  0.10000000000E+00 0.  1.
         -5    1    3    3    0  501 -0.68502957143E+02 -0.48651495054E+02  0.41183049540E+03  0.42031415638E+03  0.10000000000E+00 0.  1.
         21    1    1    2  504  502  0.35394551867E+02  0.27146416144E+02  0.88704391887E+02  0.99288324346E+02  0.00000000000E+00 0. -1.
<mgrwt>
<rscale>  1 0.13272055E+03</rscale>
<asrwt>0</asrwt>
<pdfrwt beam="1">  1       21 0.91710530E-01 0.13272055E+03</pdfrwt>
<pdfrwt beam="2">  1       21 0.21634027E-02 0.13272055E+03</pdfrwt>
<totfact> 0.10936249E+06</totfact>
</mgrwt>
</event>
<event>
 6    1  0.4271609E-002  0.1261203E+03  0.7546771E-02  0.1233329E+00
         21   -1    0    0  504  502  0.00000000000E+00  0.00000000000E+00  0.31426148086E+03  0.31426148086E+03  0.00000000000E+00 0. -1.
         21   -1    0    0  502  503 -0.00000000000E+00 -0.00000000000E+00 -0.75009249199E+02  0.75009249199E+02  0.00000000000E+00 0. -1.
         25    2    1    2    0    0 -0.10015991484E+00  0.16754336882E+02  0.30043593812E+03  0.32583443308E+03  0.12500242810E+03 0.  0.
          5    1    3    3  501    0  0.57194978684E+02  0.23684948771E+02  0.20656091723E+03  0.21563780956E+03  0.10000000000E+00 0. -1.
         -5    1    3    3    0  501 -0.57295138599E+02 -0.69306118896E+01  0.93875020890E+02  0.11019662352E+03  0.10000000000E+00 0. -1.
         21    1    1    2  504  503  0.10015991484E+00 -0.16754336882E+02 -0.61183706467E+02  0.63436296971E+02  0.00000000000E+00 0. -1.
<mgrwt>
<rscale>  1 0.12612028E+03</rscale>
<asrwt>0</asrwt>
<pdfrwt beam="1">  1       21 0.48347920E-01 0.12612028E+03</pdfrwt>
<pdfrwt beam="2">  1       21 0.11539885E-01 0.12612028E+03</pdfrwt>
<totfact> 0.26120554E+05</totfact>
</mgrwt>
</event>
<event>
 6    1  0.4271609E-002  0.1279756E+03  0.7546771E-02  0.1230491E+00
         21   -1    0    0  504  502  0.00000000000E+00  0.00000000000E+00  0.73806917516E+01  0.73806917516E+01  0.00000000000E+00 0.  1.
         21   -1    0    0  502  503 -0.00000000000E+00 -0.00000000000E+00 -0.82022710539E+03  0.82022710539E+03  0.00000000000E+00 0.  1.
         25    2    1    2    0    0  0.10345617838E+02  0.25399537123E+02 -0.68514255336E+03  0.69699216169E+03  0.12500234693E+03 0.  0.
          5    1    3    3  501    0  0.67757838214E+02  0.10110785746E+02 -0.37703777385E+03  0.38321122836E+03  0.10000000000E+00 0.  1.
         -5    1    3    3    0  501 -0.57412220376E+02  0.15288751377E+02 -0.30810477950E+03  0.31378093333E+03  0.10000000000E+00 0.  1.
         21    1    1    2  504  503 -0.10345617838E+02 -0.25399537123E+02 -0.12770386028E+03  0.13061563546E+03  0.00000000000E+00 0.  1.
<mgrwt>
<rscale>  1 0.12797560E+03</rscale>
<asrwt>0</asrwt>
<pdfrwt beam="1">  1       21 0.11354908E-02 0.12797560E+03</pdfrwt>
<pdfrwt beam="2">  1       21 0.12618881E+00 0.12797560E+03</pdfrwt>
<totfact> 0.14349200E+06</totfact>
</mgrwt>
</event>
<event>
 6    1  0.4271609E-002  0.1276625E+03  0.7546771E-02  0.1230966E+00
         21   -1    0    0  504  502  0.00000000000E+00  0.00000000000E+00  0.39891118936E+03  0.39891118936E+03  0.00000000000E+00 0.  1.
         21   -1    0    0  502  503 -0.00000000000E+00 -0.00000000000E+00 -0.15296882798E+02  0.15296882798E+02  0.00000000000E+00 0.  1.
         25    2    1    2    0    0  0.81317339308E+01  0.24615010700E+02  0.34340109676E+03  0.36636325958E+03  0.12500280341E+03 0.  0.
          5    1    3    3  501    0 -0.34796790834E+02 -0.33581992368E+02  0.19994805700E+03  0.20571291248E+03  0.10000000000E+00 0. -1.
         -5    1    3    3    0  501  0.42928524765E+02  0.58197003067E+02  0.14345303976E+03  0.16065034710E+03  0.10000000000E+00 0. -1.
         21    1    1    2  504  503 -0.81317339308E+01 -0.24615010700E+02  0.40213209794E+02  0.47844812575E+02  0.00000000000E+00 0.  1.
<mgrwt>
<rscale>  1 0.12766254E+03</rscale>
<asrwt>0</asrwt>
<pdfrwt beam="1">  1       21 0.61370944E-01 0.12766254E+03</pdfrwt>
<pdfrwt beam="2">  1       21 0.23533669E-02 0.12766254E+03</pdfrwt>
<totfact> 0.23171995E+06</totfact>
</mgrwt>
</event>
<event>
 6    1  0.4271609E-002  0.1774721E+03  0.7546771E-02  0.1170272E+00
         21   -1    0    0  503  502  0.00000000000E+00  0.00000000000E+00  0.10737823735E+04  0.10737823735E+04  0.00000000000E+00 0.  1.
         21   -1    0    0  504  503 -0.00000000000E+00 -0.00000000000E+00 -0.84528024263E+03  0.84528024263E+03  0.00000000000E+00 0. -1.
         25    2    1    2    0    0 -0.12234552365E+03 -0.30140930147E+02  0.10616798138E+04  0.10764108765E+04  0.12497777900E+03 0.  0.
          5    1    3    3  501    0 -0.14664755426E+03 -0.38620366771E+02  0.89551068045E+03  0.90826010960E+03  0.10000000000E+00 0. -1.
         -5    1    3    3    0  501  0.24302030610E+02  0.84794366239E+01  0.16616913336E+03  0.16815076693E+03  0.10000000000E+00 0. -1.
         21    1    1    2  504  502  0.12234552365E+03  0.30140930147E+02 -0.83317768295E+03  0.84265173957E+03  0.00000000000E+00 0. -1.
<mgrwt>
<rscale>  1 0.17747211E+03</rscale>
<asrwt>0</asrwt>
<pdfrwt beam="1">  1       21 0.16519729E+00 0.17747211E+03</pdfrwt>
<pdfrwt beam="2">  1       21 0.13004311E+00 0.17747211E+03</pdfrwt>
<totfact> 0.10193238E+02</totfact>
</mgrwt>
</event>
<event>
 6    1  0.4271609E-002  0.1420648E+03  0.7546771E-02  0.1210577E+00
         21   -1    0    0  504  502  0.00000000000E+00  0.00000000000E+00  0.19614800650E+03  0.19614800650E+03  0.00000000000E+00 0. -1.
         21   -1    0    0  502  503 -0.00000000000E+00 -0.00000000000E+00 -0.82728338526E+02  0.82728338526E+02  0.00000000000E+00 0. -1.
         25    2    1    2    0    0 -0.62334953950E+02  0.25923588137E+02  0.14617676275E+03  0.20383831358E+03  0.12499893284E+03 0.  0.
          5    1    3    3  501    0  0.31254192997E+02  0.11770009999E+02  0.48569028446E+01  0.33748440268E+02  0.10000000000E+00 0.  1.
         -5    1    3    3    0  501 -0.93589146948E+02  0.14153578138E+02  0.14131985990E+03  0.17008987331E+03  0.10000000000E+00 0.  1.
         21    1    1    2  504  503  0.62334953950E+02 -0.25923588137E+02 -0.32757094770E+02  0.75038031449E+02  0.00000000000E+00 0. -1.
<mgrwt>
<rscale>  1 0.14206482E+03</rscale>
<asrwt>0</asrwt>
<pdfrwt beam="1">  1       21 0.30176616E-01 0.14206482E+03</pdfrwt>
<pdfrwt beam="2">  1       21 0.12727437E-01 0.14206482E+03</pdfrwt>
<totfact> 0.55972667E+05</totfact>
</mgrwt>
</event>
<event>
 6    1  0.4271609E-002  0.1260088E+03  0.7546771E-02  0.1233501E+00
         21   -1    0    0  504  502  0.00000000000E+00  0.00000000000E+00  0.18259299053E+02  0.18259299053E+02  0.00000000000E+00 0. -1.
         21   -1    0    0  502  503 -0.00000000000E+00 -0.00000000000E+00 -0.50865790958E+03  0.50865790958E+03  0.00000000000E+00 0. -1.
         25    2    1    2    0    0  0.43377161107E+01 -0.15233973450E+02 -0.20197549255E+03  0.23805948464E+03  0.12500931528E+03 0.  0.
          5    1    3    3  501    0  0.50458676779E+02 -0.47068223090E+02 -0.12591686094E+03  0.14358468426E+03  0.10000000000E+00 0. -1.
         -5    1    3    3    0  501 -0.46120960668E+02  0.31834249640E+02 -0.76058631619E+02  0.94474800380E+02  0.10000000000E+00 0. -1.
         21    1    1    2  504  503 -0.43377161107E+01  0.15233973450E+02 -0.28842311797E+03  0.28885772399E+03  0.00000000000E+00 0. -1.
<mgrwt>
<rscale>  1 0.12600880E+03</rscale>
<asrwt>0</asrwt>
<pdfrwt beam="1">  1       21 0.28091234E-02 0.12600880E+03</pdfrwt>
<pdfrwt beam="2">  1       21 0.78255050E-01 0.12600880E+03</pdfrwt>
<totfact> 0.10232611E+06</totfact>
</mgrwt>
</event>
<event>
 6    1  0.4271609E-002  0.1437988E+03  0.7546771E-02  0.1208307E+00
         21   -1    0    0  504  502  0.00000000000E+00  0.00000000000E+00  0.30406014239E+02  0.30406014239E+02  0.00000000000E+00 0. -1.
         21   -1    0    0  502  503 -0.00000000000E+00 -0.00000000000E+00 -0.38061296233E+03  0.38061296233E+03  0.00000000000E+00 0. -1.
         25    2    1    2    0    0 -0.70546920627E+02 -0.88044072403E+01 -0.22465937639E+03  0.26673946188E+03  0.12499487802E+03 0.  0.
          5    1    3    3  501    0 -0.10155829866E+02 -0.62157374896E+02 -0.91052861407E+02  0.11071275313E+03  0.10000000000E+00 0. -1.
         -5    1    3    3    0  501 -0.60391090761E+02  0.53352967656E+02 -0.13360651498E+03  0.15602670876E+03  0.10000000000E+00 0. -1.
         21    1    1    2  504  503  0.70546920627E+02  0.88044072403E+01 -0.12554757171E+03  0.14427951469E+03  0.00000000000E+00 0.  1.
<mgrwt>
<rscale>  1 0.14379884E+03</rscale>
<asrwt>0</asrwt>
<pdfrwt beam="1">  1       21 0.46778481E-02 0.14379884E+03</pdfrwt>
<pdfrwt beam="2">  1       21 0.58555843E-01 0.14379884E+03</pdfrwt>
<totfact> 0.82545856E+05</totfact>
</mgrwt>
</event>
<event>
 6    1  0.4271609E-002  0.1283683E+03  0.7546771E-02  0.1229897E+00
         21   -1    0    0  504  502  0.00000000000E+00  0.00000000000E+00  0.10250340319E+02  0.10250340319E+02  0.00000000000E+00 0.  1.
         21   -1    0    0  502  503 -0.00000000000E+00 -0.00000000000E+00 -0.61481309453E+03  0.61481309453E+03  0.00000000000E+00 0.  1.
         25    2    1    2    0    0  0.11404640960E+02  0.26968942636E+02 -0.46062829753E+03  0.47818076901E+03  0.12498411766E+03 0.  0.
          5    1    3    3  501    0  0.52187432030E+02  0.42706602572E+00 -0.38316195155E+03  0.38669988565E+03  0.10000000000E+00 0.  1.
         -5    1    3    3    0  501 -0.40782791070E+02  0.26541876610E+02 -0.77466345982E+02  0.91480883366E+02  0.10000000000E+00 0.  1.
         21    1    1    2  504  503 -0.11404640960E+02 -0.26968942636E+02 -0.14393445669E+03  0.14688266584E+03  0.00000000000E+00 0.  1.
<mgrwt>
<rscale>  1 0.12836830E+03</rscale>
<asrwt>0</asrwt>
<pdfrwt beam="1">  1       21 0.15769756E-02 0.12836830E+03</pdfrwt>
<pdfrwt beam="2">  1       21 0.94586621E-01 0.12836830E+03</pdfrwt>
<totfact> 0.16938148E+06</totfact>
</mgrwt>
</event>
<event>
 6    1  0.4271609E-002  0.1278298E+03  0.7546771E-02  0.1230712E+00
         21   -1    0    0  504  502  0.00000000000E+00  0.00000000000E+00  0.73869725338E+02  0.73869725338E+02  0.00000000000E+00 0.  1.
         21   -1    0    0  502  503 -0.00000000000E+00 -0.00000000000E+00 -0.14265672318E+03  0.14265672318E+03  0.00000000000E+00 0.  1.
         25    2    1    2    0    0  0.17032104598E+02  0.20581801939E+02  0.14884567997E+02  0.12869345877E+03  0.12500701103E+03 0.  0.
          5    1    3    3  501    0  0.43326157572E+02  0.49469079592E+02  0.44733193332E+02  0.79532473564E+02  0.10000000000E+00 0. -1.
         -5    1    3    3    0  501 -0.26294052973E+02 -0.28887277653E+02 -0.29848625335E+02  0.49160985205E+02  0.10000000000E+00 0. -1.
         21    1    1    2  504  503 -0.17032104598E+02 -0.20581801939E+02 -0.83671565840E+02  0.87832989748E+02  0.00000000000E+00 0.  1.
<mgrwt>
<rscale>  1 0.12782979E+03</rscale>
<asrwt>0</asrwt>
<pdfrwt beam="1">  1       21 0.11364573E-01 0.12782979E+03</pdfrwt>
<pdfrwt beam="2">  1       21 0.21947188E-01 0.12782979E+03</pdfrwt>
<totfact> 0.12522091E+06</totfact>
</mgrwt>
</event>
<event>
 6    1  0.4271609E-002  0.1285614E+03  0.7546771E-02  0.1229606E+00
         21   -1    0    0  504  502  0.00000000000E+00  0.00000000000E+00  0.55256231234E+01  0.55256231234E+01  0.00000000000E+00 0. -1.
         21   -1    0    0  502  503 -0.00000000000E+00 -0.00000000000E+00 -0.11503214386E+04  0.11503214386E+04  0.00000000000E+00 0. -1.
         25    2    1    2    0    0 -0.29195652543E+01 -0.29904240349E+02 -0.87746990080E+03  0.88683789439E+03  0.12500094665E+03 0.  0.
          5    1    3    3  501    0 -0.20653781621E+02  0.45124471659E+02 -0.41932831690E+03  0.42225471459E+03  0.10000000000E+00 0.  1.
         -5    1    3    3    0  501  0.17734216367E+02 -0.75028712007E+02 -0.45814158390E+03  0.46458317980E+03  0.10000000000E+00 0.  1.
         21    1    1    2  504  503  0.29195652543E+01  0.29904240349E+02 -0.26732591466E+03  0.26900916731E+03  0.00000000000E+00 0. -1.
<mgrwt>
<rscale>  1 0.12856136E+03</rscale>
<asrwt>0</asrwt>
<pdfrwt beam="1">  1       21 0.85009499E-03 0.12856136E+03</pdfrwt>
<pdfrwt beam="2">  1       21 0.17697271E+00 0.12856136E+03</pdfrwt>
<totfact> 0.94114573E+05</totfact>
</mgrwt>
</event>
<event>
 6    1  0.4271609E-002  0.1265593E+03  0.7546771E-02  0.1232652E+00
         21   -1    0    0  503  502  0.00000000000E+00  0.00000000000E+00  0.23845564568E+03  0.23845564568E+03  0.00000000000E+00 0. -1.
         21   -1    0    0  504  503 -0.00000000000E+00 -0.00000000000E+00 -0.36763522866E+02  0.36763522866E+02  0.00000000000E+00 0. -1.
         25    2    1    2    0    0  0.17355570074E+02 -0.95718985698E+01  0.21629474858E+03  0.25060060372E+03  0.12499762903E+03 0.  0.
          5    1    3    3  501    0  0.19917697330E+02 -0.65876264908E+02  0.10034771674E+03  0.12168020053E+03  0.10000000000E+00 0. -1.
         -5    1    3    3    0  501 -0.25621272560E+01  0.56304366339E+02  0.11594703184E+03  0.12892040319E+03  0.10000000000E+00 0. -1.
         21    1    1    2  504  502 -0.17355570074E+02  0.95718985698E+01 -0.14602625771E+02  0.24618564829E+02  0.00000000000E+00 0. -1.
<mgrwt>
<rscale>  1 0.12655925E+03</rscale>
<asrwt>0</asrwt>
<pdfrwt beam="1">  1       21 0.36685483E-01 0.12655925E+03</pdfrwt>
<pdfrwt beam="2">  1       21 0.56559267E-02 0.12655925E+03</pdfrwt>
<totfact> 0.15581372E+06</totfact>
</mgrwt>
</event>
<event>
 6    1  0.4271609E-002  0.1261972E+03  0.7546771E-02  0.1233210E+00
         21   -1    0    0  503  502  0.00000000000E+00  0.00000000000E+00  0.88131110038E+01  0.88131110038E+01  0.00000000000E+00 0.  1.
         21   -1    0    0  504  503 -0.00000000000E+00 -0.00000000000E+00 -0.13822541530E+04  0.13822541530E+04  0.00000000000E+00 0.  1.
         25    2    1    2    0    0  0.15133012750E+02  0.96078841242E+01 -0.44752748485E+03  0.46498020826E+03  0.12491767234E+03 0.  0.
          5    1    3    3  501    0  0.65943457513E+02  0.28647171132E+02 -0.26078467361E+03  0.27051405877E+03  0.10000000000E+00 0.  1.
         -5    1    3    3    0  501 -0.50810444763E+02 -0.19039287008E+02 -0.18674281124E+03  0.19446614949E+03  0.10000000000E+00 0.  1.
         21    1    1    2  504  502 -0.15133012750E+02 -0.96078841242E+01 -0.92591355715E+03  0.92608705575E+03  0.00000000000E+00 0.  1.
<mgrwt>
<rscale>  1 0.12619724E+03</rscale>
<asrwt>0</asrwt>
<pdfrwt beam="1">  1       21 0.13558643E-02 0.12619724E+03</pdfrwt>
<pdfrwt beam="2">  1       21 0.21265432E+00 0.12619724E+03</pdfrwt>
<totfact> 0.26675374E+05</totfact>
</mgrwt>
</event>
<event>
 6    1  0.4271609E-002  0.1281157E+03  0.7546771E-02  0.1230279E+00
         21   -1    0    0  504  502  0.00000000000E+00  0.00000000000E+00  0.22584180923E+03  0.22584180923E+03  0.00000000000E+00 0. -1.
         21   -1    0    0  502  503 -0.00000000000E+00 -0.00000000000E+00 -0.19586796996E+03  0.19586796996E+03  0.00000000000E+00 0.  1.
         25    2    1    2    0    0 -0.26705852698E+02 -0.91266193573E+01  0.20646061922E+03  0.24298070699E+03  0.12496855177E+03 0.  0.
          5    1    3    3  501    0  0.39223220284E+02 -0.23379741675E+02  0.14394216313E+03  0.15101135606E+03  0.10000000000E+00 0.  1.
         -5    1    3    3    0  501 -0.65929072982E+02  0.14253122317E+02  0.62518456088E+02  0.91969350936E+02  0.10000000000E+00 0.  1.
         21    1    1    2  504  503  0.26705852698E+02  0.91266193573E+01 -0.17648677995E+03  0.17872907219E+03  0.00000000000E+00 0.  1.
<mgrwt>
<rscale>  1 0.12811572E+03</rscale>
<asrwt>0</asrwt>
<pdfrwt beam="1">  1       21 0.34744894E-01 0.12811572E+03</pdfrwt>
<pdfrwt beam="2">  1       21 0.30133534E-01 0.12811572E+03</pdfrwt>
<totfact> 0.86607817E+04</totfact>
</mgrwt>
</event>
<event>
 6    1  0.4271609E-002  0.1262763E+03  0.7546771E-02  0.1233088E+00
         21   -1    0    0  504  502  0.00000000000E+00  0.00000000000E+00  0.10895103938E+03  0.10895103938E+03  0.00000000000E+00 0.  1.
         21   -1    0    0  502  503 -0.00000000000E+00 -0.00000000000E+00 -0.47493821947E+03  0.47493821947E+03  0.00000000000E+00 0.  1.
         25    2    1    2    0    0  0.31888890280E+01 -0.17632727584E+02  0.72117111384E+02  0.14541867569E+03  0.12499852555E+03 0.  0.
          5    1    3    3  501    0  0.28112298538E+02  0.10567542622E+02 -0.26381610736E+02  0.39974662865E+02  0.10000000000E+00 0. -1.
         -5    1    3    3    0  501 -0.24923409510E+02 -0.28200270206E+02  0.98498722119E+02  0.10544401282E+03  0.10000000000E+00 0. -1.
         21    1    1    2  504  503 -0.31888890280E+01  0.17632727584E+02 -0.43810429147E+03  0.43847058316E+03  0.00000000000E+00 0.  1.
<mgrwt>
<rscale>  1 0.12627634E+03</rscale>
<asrwt>0</asrwt>
<pdfrwt beam="1">  1       21 0.16761699E-01 0.12627634E+03</pdfrwt>
<pdfrwt beam="2">  1       21 0.73067418E-01 0.12627634E+03</pdfrwt>
<totfact> 0.55757098E+04</totfact>
</mgrwt>
</event>
<event>
 6    1  0.4271609E-002  0.1261850E+03  0.7546771E-02  0.1233229E+00
         21   -1    0    0  504  502  0.00000000000E+00  0.00000000000E+00  0.75353607594E+03  0.75353607594E+03  0.00000000000E+00 0.  1.
         21   -1    0    0  502  503 -0.00000000000E+00 -0.00000000000E+00 -0.14394337156E+02  0.14394337156E+02  0.00000000000E+00 0.  1.
         25    2    1    2    0    0 -0.17254041478E+02  0.50990642381E+00  0.73996718794E+03  0.75064911343E+03  0.12499876122E+03 0.  0.
          5    1    3    3  501    0 -0.39879203218E+02  0.28165198599E+02  0.67280075801E+03  0.67456986238E+03  0.10000000000E+00 0.  1.
         -5    1    3    3    0  501  0.22625161740E+02 -0.27655292175E+02  0.67166429934E+02  0.76079251042E+02  0.10000000000E+00 0.  1.
         21    1    1    2  504  503  0.17254041478E+02 -0.50990642381E+00 -0.82544915896E+00  0.17281299668E+02  0.00000000000E+00 0.  1.
<mgrwt>
<rscale>  1 0.12618499E+03</rscale>
<asrwt>0</asrwt>
<pdfrwt beam="1">  1       21 0.11592860E+00 0.12618499E+03</pdfrwt>
<pdfrwt beam="2">  1       21 0.22145140E-02 0.12618499E+03</pdfrwt>
<totfact> 0.60646448E+05</totfact>
</mgrwt>
</event>
<event>
 6    1  0.4271609E-002  0.1274300E+03  0.7546771E-02  0.1231320E+00
         21   -1    0    0  503  502  0.00000000000E+00  0.00000000000E+00  0.82602364019E+03  0.82602364019E+03  0.00000000000E+00 0.  1.
         21   -1    0    0  504  503 -0.00000000000E+00 -0.00000000000E+00 -0.70122773172E+01  0.70122773172E+01  0.00000000000E+00 0.  1.
         25    2    1    2    0    0 -0.43778341365E+01  0.24379302998E+02  0.69000911174E+03  0.70167726098E+03  0.12499955380E+03 0.  0.
          5    1    3    3  501    0 -0.20257679076E+02 -0.29216585152E+02  0.64284950187E+02  0.73461195403E+02  0.10000000000E+00 0. -1.
         -5    1    3    3    0  501  0.15879844940E+02  0.53595888150E+02  0.62572416155E+03  0.62821606558E+03  0.10000000000E+00 0. -1.
         21    1    1    2  504  502  0.43778341365E+01 -0.24379302998E+02  0.12900225113E+03  0.13135865652E+03  0.00000000000E+00 0.  1.
<mgrwt>
<rscale>  1 0.12743000E+03</rscale>
<asrwt>0</asrwt>
<pdfrwt beam="1">  1       21 0.12708048E+00 0.12743000E+03</pdfrwt>
<pdfrwt beam="2">  1       21 0.10788125E-02 0.12743000E+03</pdfrwt>
<totfact> 0.15290279E+06</totfact>
</mgrwt>
</event>
<event>
 6    1  0.4271609E-002  0.1305651E+03  0.7546771E-02  0.1226620E+00
         21   -1    0    0  503  502  0.00000000000E+00  0.00000000000E+00  0.79732032996E+02  0.79732032996E+02  0.00000000000E+00 0.  1.
         21   -1    0    0  504  503 -0.00000000000E+00 -0.00000000000E+00 -0.38419512434E+03  0.38419512434E+03  0.00000000000E+00 0. -1.
         25    2    1    2    0    0  0.30276679886E+02 -0.22432570081E+02  0.24473741112E+02  0.13283904627E+03  0.12500940230E+03 0.  0.
          5    1    3    3  501    0  0.49908447023E+02  0.33154051917E+02  0.39795772357E+02  0.71928838029E+02  0.10000000000E+00 0.  1.
         -5    1    3    3    0  501 -0.19631767137E+02 -0.55586621998E+02 -0.15322031244E+02  0.60910208237E+02  0.10000000000E+00 0.  1.
         21    1    1    2  504  502 -0.30276679886E+02  0.22432570081E+02 -0.32893683246E+03  0.33108811107E+03  0.00000000000E+00 0. -1.
<mgrwt>
<rscale>  1 0.13056511E+03</rscale>
<asrwt>0</asrwt>
<pdfrwt beam="1">  1       21 0.12266467E-01 0.13056511E+03</pdfrwt>
<pdfrwt beam="2">  1       21 0.59106942E-01 0.13056511E+03</pdfrwt>
<totfact> 0.15404942E+05</totfact>
</mgrwt>
</event>
<event>
 6    1  0.4271609E-002  0.1260872E+03  0.7546771E-02  0.1233380E+00
         21   -1    0    0  504  502  0.00000000000E+00  0.00000000000E+00  0.21105113990E+02  0.21105113990E+02  0.00000000000E+00 0. -1.
         21   -1    0    0  502  503 -0.00000000000E+00 -0.00000000000E+00 -0.24119542843E+03  0.24119542843E+03  0.00000000000E+00 0. -1.
         25    2    1    2    0    0 -0.15178221329E+02 -0.65075625460E+01 -0.19752848995E+03  0.23434052280E+03  0.12500099804E+03 0.  0.
          5    1    3    3  501    0 -0.46973098700E+02 -0.42657757060E+02 -0.55241808207E+02  0.84129802168E+02  0.10000000000E+00 0. -1.
         -5    1    3    3    0  501  0.31794877371E+02  0.36150194514E+02 -0.14228668174E+03  0.15021072063E+03  0.10000000000E+00 0. -1.
         21    1    1    2  504  503  0.15178221329E+02  0.65075625460E+01 -0.22561824493E+02  0.27960019625E+02  0.00000000000E+00 0.  1.
<mgrwt>
<rscale>  1 0.12608718E+03</rscale>
<asrwt>0</asrwt>
<pdfrwt beam="1">  1       21 0.32469405E-02 0.12608718E+03</pdfrwt>
<pdfrwt beam="2">  1       21 0.37106990E-01 0.12608718E+03</pdfrwt>
<totfact> 0.38403416E+06</totfact>
</mgrwt>
</event>
<event>
 6    1  0.4271609E-002  0.1322233E+03  0.7546771E-02  0.1224194E+00
         21   -1    0    0  503  502  0.00000000000E+00  0.00000000000E+00  0.83021114676E+02  0.83021114676E+02  0.00000000000E+00 0.  1.
         21   -1    0    0  504  503 -0.00000000000E+00 -0.00000000000E+00 -0.34793933167E+03  0.34793933167E+03  0.00000000000E+00 0.  1.
         25    2    1    2    0    0 -0.99136079429E+01 -0.41937616006E+02  0.27777428236E+02  0.13510949739E+03  0.12500378998E+03 0.  0.
          5    1    3    3  501    0  0.74393694059E+01  0.15959749057E+02  0.62821710274E+02  0.65242893015E+02  0.10000000000E+00 0. -1.
         -5    1    3    3    0  501 -0.17352977349E+02 -0.57897365063E+02 -0.35044282038E+02  0.69866604380E+02  0.10000000000E+00 0. -1.
         21    1    1    2  504  502  0.99136079429E+01  0.41937616006E+02 -0.29269564523E+03  0.29585094895E+03  0.00000000000E+00 0.  1.
<mgrwt>
<rscale>  1 0.13222326E+03</rscale>
<asrwt>0</asrwt>
<pdfrwt beam="1">  1       21 0.12772479E-01 0.13222326E+03</pdfrwt>
<pdfrwt beam="2">  1       21 0.53529128E-01 0.13222326E+03</pdfrwt>
<totfact> 0.17649192E+05</totfact>
</mgrwt>
</event>
<event>
 6    1  0.4271609E-002  0.1437339E+03  0.7546771E-02  0.1208391E+00
         21   -1    0    0  503  502  0.00000000000E+00  0.00000000000E+00  0.10019994792E+03  0.10019994792E+03  0.00000000000E+00 0.  1.
         21   -1    0    0  504  503 -0.00000000000E+00 -0.00000000000E+00 -0.11842787498E+03  0.11842787498E+03  0.00000000000E+00 0.  1.
         25    2    1    2    0    0  0.67574497876E+02  0.21806314249E+02  0.52824870314E+01  0.14383098022E+03  0.12497046891E+03 0.  0.
          5    1    3    3  501    0 -0.30715473806E+02 -0.17445953764E+02 -0.10432494124E+02  0.36832710564E+02  0.10000000000E+00 0. -1.
         -5    1    3    3    0  501  0.98289971682E+02  0.39252268013E+02  0.15714981156E+02  0.10699826966E+03  0.10000000000E+00 0. -1.
         21    1    1    2  504  502 -0.67574497876E+02 -0.21806314249E+02 -0.23510414090E+02  0.74796842681E+02  0.00000000000E+00 0.  1.
<mgrwt>
<rscale>  1 0.14373394E+03</rscale>
<asrwt>0</asrwt>
<pdfrwt beam="1">  1       21 0.15415377E-01 0.14373394E+03</pdfrwt>
<pdfrwt beam="2">  1       21 0.18219673E-01 0.14373394E+03</pdfrwt>
<totfact> 0.10261189E+06</totfact>
</mgrwt>
</event>
<event>
 6    1  0.4271609E-002  0.1371034E+03  0.7546771E-02  0.1217281E+00
         21   -1    0    0  504  502  0.00000000000E+00  0.00000000000E+00  0.21303195302E+03  0.21303195302E+03  0.00000000000E+00 0. -1.
         21   -1    0    0  502  503 -0.00000000000E+00 -0.00000000000E+00 -0.45213455261E+02  0.45213455261E+02  0.00000000000E+00 0. -1.
         25    2    1    2    0    0  0.55344881084E+02 -0.10316017367E+02  0.97850399500E+02  0.16844000282E+03  0.12501143064E+03 0.  0.
          5    1    3    3  501    0 -0.16179644684E+02 -0.51826554985E+02  0.42131429563E+02  0.68722922382E+02  0.10000000000E+00 0.  1.
         -5    1    3    3    0  501  0.71524525768E+02  0.41510537618E+02  0.55718969937E+02  0.99717080435E+02  0.10000000000E+00 0.  1.
         21    1    1    2  504  503 -0.55344881084E+02  0.10316017367E+02  0.69968098258E+02  0.89805405463E+02  0.00000000000E+00 0. -1.
<mgrwt>
<rscale>  1 0.13710337E+03</rscale>
<asrwt>0</asrwt>
<pdfrwt beam="1">  1       21 0.32774146E-01 0.13710337E+03</pdfrwt>
<pdfrwt beam="2">  1       21 0.69559163E-02 0.13710337E+03</pdfrwt>
<totfact> 0.13692537E+06</totfact>
</mgrwt>
</event>
<event>
 6    1  0.4271609E-002  0.1298305E+03  0.7546771E-02  0.1227707E+00
         21   -1    0    0  503  502  0.00000000000E+00  0.00000000000E+00  0.10119587256E+03  0.10119587256E+03  0.00000000000E+00 0.  1.
         21   -1    0    0  504  503 -0.00000000000E+00 -0.00000000000E+00 -0.23174194463E+03  0.23174194463E+03  0.00000000000E+00 0. -1.
         25    2    1    2    0    0 -0.34604030473E+02 -0.58023490941E+01  0.57249601554E+02  0.14189247909E+03  0.12499941025E+03 0.  0.
          5    1    3    3  501    0 -0.77143194471E+02 -0.26376705590E+02  0.27439372198E+02  0.86021696087E+02  0.10000000000E+00 0.  1.
         -5    1    3    3    0  501  0.42539163998E+02  0.20574356496E+02  0.29810229356E+02  0.55870783001E+02  0.10000000000E+00 0.  1.
         21    1    1    2  504  502  0.34604030473E+02  0.58023490941E+01 -0.18779567362E+03  0.19104533810E+03  0.00000000000E+00 0. -1.
<mgrwt>
<rscale>  1 0.12983050E+03</rscale>
<asrwt>0</asrwt>
<pdfrwt beam="1">  1       21 0.15568596E-01 0.12983050E+03</pdfrwt>
<pdfrwt beam="2">  1       21 0.35652606E-01 0.12983050E+03</pdfrwt>
<totfact> 0.28192214E+05</totfact>
</mgrwt>
</event>
<event>
 6    1  0.4271609E-002  0.1292214E+03  0.7546771E-02  0.1228616E+00
         21   -1    0    0  504  502  0.00000000000E+00  0.00000000000E+00  0.53773210452E+01  0.53773210452E+01  0.00000000000E+00 0. -1.
         21   -1    0    0  502  503 -0.00000000000E+00 -0.00000000000E+00 -0.14442370559E+04  0.14442370559E+04  0.00000000000E+00 0. -1.
         25    2    1    2    0    0 -0.10500305481E+01  0.32708554535E+02 -0.84199082544E+03  0.85184899895E+03  0.12500885882E+03 0.  0.
          5    1    3    3  501    0  0.31696467425E+02  0.69051698461E+02 -0.61302049732E+03  0.61771105158E+03  0.10000000000E+00 0.  1.
         -5    1    3    3    0  501 -0.32746497973E+02 -0.36343143926E+02 -0.22897032812E+03  0.23413794737E+03  0.10000000000E+00 0.  1.
         21    1    1    2  504  503  0.10500305481E+01 -0.32708554535E+02 -0.59686890945E+03  0.59776537803E+03  0.00000000000E+00 0. -1.
<mgrwt>
<rscale>  1 0.12922139E+03</rscale>
<asrwt>0</asrwt>
<pdfrwt beam="1">  1       21 0.82727923E-03 0.12922139E+03</pdfrwt>
<pdfrwt beam="2">  1       21 0.22219057E+00 0.12922139E+03</pdfrwt>
<totfact> 0.50879310E+05</totfact>
</mgrwt>
</event>
<event>
 6    1  0.4271609E-002  0.1321751E+03  0.7546771E-02  0.1224263E+00
         21   -1    0    0  504  502  0.00000000000E+00  0.00000000000E+00  0.25606695117E+03  0.25606695117E+03  0.00000000000E+00 0.  1.
         21   -1    0    0  502  503 -0.00000000000E+00 -0.00000000000E+00 -0.75786657170E+02  0.75786657170E+02  0.00000000000E+00 0.  1.
         25    2    1    2    0    0 -0.36460192897E+02  0.22802958417E+02  0.23051839449E+03  0.26572352957E+03  0.12498377252E+03 0.  0.
          5    1    3    3  501    0 -0.48795571760E+02 -0.38390651815E+02  0.15956341770E+03  0.17121724282E+03  0.10000000000E+00 0.  1.
         -5    1    3    3    0  501  0.12335378863E+02  0.61193610233E+02  0.70954976785E+02  0.94506286751E+02  0.10000000000E+00 0.  1.
         21    1    1    2  504  503  0.36460192897E+02 -0.22802958417E+02 -0.50238100482E+02  0.66130078774E+02  0.00000000000E+00 0.  1.
<mgrwt>
<rscale>  1 0.13217513E+03</rscale>
<asrwt>0</asrwt>
<pdfrwt beam="1">  1       21 0.39394915E-01 0.13217513E+03</pdfrwt>
<pdfrwt beam="2">  1       21 0.11659486E-01 0.13217513E+03</pdfrwt>
<totfact> 0.38780525E+05</totfact>
</mgrwt>
</event>
<event>
 6    1  0.4271609E-002  0.1262798E+03  0.7546771E-02  0.1233083E+00
         21   -1    0    0  503  502  0.00000000000E+00  0.00000000000E+00  0.43396014742E+03  0.43396014742E+03  0.00000000000E+00 0.  1.
         21   -1    0    0  504  503 -0.00000000000E+00 -0.00000000000E+00 -0.19406562452E+02  0.19406562452E+02  0.00000000000E+00 0.  1.
         25    2    1    2    0    0  0.49284202346E+01 -0.17243373352E+02  0.41659815447E+03  0.43531668176E+03  0.12499987143E+03 0.  0.
          5    1    3    3  501    0  0.55516120559E+02 -0.27315977393E+01  0.32463810456E+03  0.32936212624E+03  0.10000000000E+00 0. -1.
         -5    1    3    3    0  501 -0.50587700324E+02 -0.14511775613E+02  0.91960049905E+02  0.10595455551E+03  0.10000000000E+00 0. -1.
         21    1    1    2  504  502 -0.49284202346E+01  0.17243373352E+02 -0.20445695008E+01  0.18050028117E+02  0.00000000000E+00 0.  1.
<mgrwt>
<rscale>  1 0.12627981E+03</rscale>
<asrwt>0</asrwt>
<pdfrwt beam="1">  1       21 0.66763092E-01 0.12627981E+03</pdfrwt>
<pdfrwt beam="2">  1       21 0.29856253E-02 0.12627981E+03</pdfrwt>
<totfact> 0.13117446E+06</totfact>
</mgrwt>
</event>
<event>
 6    1  0.4271609E-002  0.1409999E+03  0.7546771E-02  0.1211990E+00
         21   -1    0    0  503  502  0.00000000000E+00  0.00000000000E+00  0.10691937811E+03  0.10691937811E+03  0.00000000000E+00 0. -1.
         21   -1    0    0  504  503 -0.00000000000E+00 -0.00000000000E+00 -0.40019570558E+03  0.40019570558E+03  0.00000000000E+00 0. -1.
         25    2    1    2    0    0 -0.52376283721E+02  0.38890523162E+02  0.56063095955E+02  0.15173672103E+03  0.12500085557E+03 0.  0.
          5    1    3    3  501    0 -0.90647883993E+02  0.38738977690E+02  0.23153902933E+02  0.10126134744E+03  0.10000000000E+00 0.  1.
         -5    1    3    3    0  501  0.38271600271E+02  0.15154547237E+00  0.32909193023E+02  0.50475373587E+02  0.10000000000E+00 0.  1.
         21    1    1    2  504  502  0.52376283721E+02 -0.38890523162E+02 -0.34933942342E+03  0.35537836266E+03  0.00000000000E+00 0. -1.
<mgrwt>
<rscale>  1 0.14099986E+03</rscale>
<asrwt>0</asrwt>
<pdfrwt beam="1">  1       21 0.16449135E-01 0.14099986E+03</pdfrwt>
<pdfrwt beam="2">  1       21 0.61568570E-01 0.14099986E+03</pdfrwt>
<totfact> 0.83019199E+04</totfact>
</mgrwt>
</event>
<event>
 6    1  0.4271609E-002  0.1411375E+03  0.7546771E-02  0.1211807E+00
         21   -1    0    0  503  502  0.00000000000E+00  0.00000000000E+00  0.13949115591E+03  0.13949115591E+03  0.00000000000E+00 0. -1.
         21   -1    0    0  504  503 -0.00000000000E+00 -0.00000000000E+00 -0.11082892538E+03  0.11082892538E+03  0.00000000000E+00 0. -1.
         25    2    1    2    0    0  0.51722966974E+02  0.40244363429E+02  0.84261844600E+02  0.16437712820E+03  0.12499963088E+03 0.  0.
          5    1    3    3  501    0  0.45104710411E+02  0.21909223968E+02  0.11642689056E+03  0.12676624094E+03  0.10000000000E+00 0. -1.
         -5    1    3    3    0  501  0.66182565629E+01  0.18335139461E+02 -0.32165045960E+02  0.37610887262E+02  0.10000000000E+00 0. -1.
         21    1    1    2  504  502 -0.51722966974E+02 -0.40244363429E+02 -0.55599614075E+02  0.85942953089E+02  0.00000000000E+00 0. -1.
<mgrwt>
<rscale>  1 0.14113746E+03</rscale>
<asrwt>0</asrwt>
<pdfrwt beam="1">  1       21 0.21460178E-01 0.14113746E+03</pdfrwt>
<pdfrwt beam="2">  1       21 0.17050604E-01 0.14113746E+03</pdfrwt>
<totfact> 0.63083195E+05</totfact>
</mgrwt>
</event>
<event>
 6    1  0.4271609E-002  0.1292349E+03  0.7546771E-02  0.1228595E+00
         21   -1    0    0  503  502  0.00000000000E+00  0.00000000000E+00  0.45827043294E+03  0.45827043294E+03  0.00000000000E+00 0.  1.
         21   -1    0    0  504  503 -0.00000000000E+00 -0.00000000000E+00 -0.44303850180E+02  0.44303850180E+02  0.00000000000E+00 0. -1.
         25    2    1    2    0    0 -0.26621993517E+02 -0.19788069633E+02  0.44114865583E+03  0.45968881548E+03  0.12490545345E+03 0.  0.
          5    1    3    3  501    0 -0.14823288748E+02  0.29905444396E+02  0.37317539834E+03  0.37466512170E+03  0.10000000000E+00 0. -1.
         -5    1    3    3    0  501 -0.11798704769E+02 -0.49693514028E+02  0.67973257491E+02  0.85023693784E+02  0.10000000000E+00 0. -1.
         21    1    1    2  504  502  0.26621993517E+02  0.19788069633E+02 -0.27182073065E+02  0.42885467640E+02  0.00000000000E+00 0. -1.
<mgrwt>
<rscale>  1 0.12923494E+03</rscale>
<asrwt>0</asrwt>
<pdfrwt beam="1">  1       21 0.70503140E-01 0.12923494E+03</pdfrwt>
<pdfrwt beam="2">  1       21 0.68159773E-02 0.12923494E+03</pdfrwt>
<totfact> 0.29319016E+05</totfact>
</mgrwt>
</event>
<event>
 6    1  0.4271609E-002  0.1376582E+03  0.7546771E-02  0.1216515E+00
         21   -1    0    0  503  502  0.00000000000E+00  0.00000000000E+00  0.27502029410E+02  0.27502029410E+02  0.00000000000E+00 0. -1.
         21   -1    0    0  504  503 -0.00000000000E+00 -0.00000000000E+00 -0.52352488076E+03  0.52352488076E+03  0.00000000000E+00 0. -1.
         25    2    1    2    0    0  0.54603436436E+02 -0.18571788565E+02 -0.16438544359E+03  0.21441167458E+03  0.12499338196E+03 0.  0.
          5    1    3    3  501    0  0.54280514809E+02  0.45804383739E+02 -0.10540768250E+03  0.12710312894E+03  0.10000000000E+00 0. -1.
         -5    1    3    3    0  501  0.32292162651E+00 -0.64376172303E+02 -0.58977761089E+02  0.87308545640E+02  0.10000000000E+00 0. -1.
         21    1    1    2  504  502 -0.54603436436E+02  0.18571788565E+02 -0.33163740776E+03  0.33661523559E+03  0.00000000000E+00 0. -1.
<mgrwt>
<rscale>  1 0.13765824E+03</rscale>
<asrwt>0</asrwt>
<pdfrwt beam="1">  1       21 0.42310814E-02 0.13765824E+03</pdfrwt>
<pdfrwt beam="2">  1       21 0.80542290E-01 0.13765824E+03</pdfrwt>
<totfact> 0.48763654E+05</totfact>
</mgrwt>
</event>
<event>
 6    1  0.4271609E-002  0.1440346E+03  0.7546771E-02  0.1208001E+00
         21   -1    0    0  504  502  0.00000000000E+00  0.00000000000E+00  0.39213810497E+02  0.39213810497E+02  0.00000000000E+00 0.  1.
         21   -1    0    0  502  503 -0.00000000000E+00 -0.00000000000E+00 -0.42804047174E+03  0.42804047174E+03  0.00000000000E+00 0.  1.
         25    2    1    2    0    0 -0.66390471941E+02  0.26711628815E+02 -0.11523683619E+03  0.18446001382E+03  0.12499904961E+03 0.  0.
          5    1    3    3  501    0 -0.59091769883E+02  0.74711435280E+02 -0.81171339844E+02  0.12514963940E+03  0.10000000000E+00 0.  1.
         -5    1    3    3    0  501 -0.72987020581E+01 -0.47999806465E+02 -0.34065496345E+02  0.59310374419E+02  0.10000000000E+00 0.  1.
         21    1    1    2  504  503  0.66390471941E+02 -0.26711628815E+02 -0.27358982505E+03  0.28279426842E+03  0.00000000000E+00 0.  1.
<mgrwt>
<rscale>  1 0.14403461E+03</rscale>
<asrwt>0</asrwt>
<pdfrwt beam="1">  1       21 0.60328935E-02 0.14403461E+03</pdfrwt>
<pdfrwt beam="2">  1       21 0.65852385E-01 0.14403461E+03</pdfrwt>
<totfact> 0.41761780E+05</totfact>
</mgrwt>
</event>
<event>
 6    1  0.4271609E-002  0.1265289E+03  0.7546771E-02  0.1232699E+00
         21   -1    0    0  503  502  0.00000000000E+00  0.00000000000E+00  0.53575413883E+02  0.53575413883E+02  0.00000000000E+00 0.  1.
         21   -1    0    0  504  503 -0.00000000000E+00 -0.00000000000E+00 -0.11220898853E+03  0.11220898853E+03  0.00000000000E+00 0.  1.
         25    2    1    2    0    0  0.14963212155E+02  0.12711145329E+02 -0.68424289894E+02  0.14384519007E+03  0.12499633724E+03 0.  0.
          5    1    3    3  501    0 -0.41683420676E+02  0.40582001081E+02 -0.53359397916E+02  0.78940748141E+02  0.10000000000E+00 0.  1.
         -5    1    3    3    0  501  0.56646632831E+02 -0.27870855752E+02 -0.15064891978E+02  0.64904441926E+02  0.10000000000E+00 0.  1.
         21    1    1    2  504  502 -0.14963212155E+02 -0.12711145329E+02  0.97907152432E+01  0.21939212350E+02  0.00000000000E+00 0.  1.
<mgrwt>
<rscale>  1 0.12652887E+03</rscale>
<asrwt>0</asrwt>
<pdfrwt beam="1">  1       21 0.82423715E-02 0.12652887E+03</pdfrwt>
<pdfrwt beam="2">  1       21 0.17262921E-01 0.12652887E+03</pdfrwt>
<totfact> 0.34134430E+06</totfact>
</mgrwt>
</event>
<event>
 6    1  0.4271609E-002  0.1266521E+03  0.7546771E-02  0.1232510E+00
         21   -1    0    0  503  502  0.00000000000E+00  0.00000000000E+00  0.49658458999E+02  0.49658458999E+02  0.00000000000E+00 0.  1.
         21   -1    0    0  504  503 -0.00000000000E+00 -0.00000000000E+00 -0.27153077233E+03  0.27153077233E+03  0.00000000000E+00 0.  1.
         25    2    1    2    0    0  0.13940089297E+02  0.14878911710E+02 -0.32544294413E+02  0.13076652562E+03  0.12500018008E+03 0.  0.
          5    1    3    3  501    0 -0.92241236418E+01  0.11621588656E+02 -0.78131512523E+02  0.79527913521E+02  0.10000000000E+00 0. -1.
         -5    1    3    3    0  501  0.23164212939E+02  0.32573230539E+01  0.45587218110E+02  0.51238612097E+02  0.10000000000E+00 0. -1.
         21    1    1    2  504  502 -0.13940089297E+02 -0.14878911710E+02 -0.18932801892E+03  0.19042270571E+03  0.00000000000E+00 0.  1.
<mgrwt>
<rscale>  1 0.12665209E+03</rscale>
<asrwt>0</asrwt>
<pdfrwt beam="1">  1       21 0.76397628E-02 0.12665209E+03</pdfrwt>
<pdfrwt beam="2">  1       21 0.41773966E-01 0.12665209E+03</pdfrwt>
<totfact> 0.72070277E+05</totfact>
</mgrwt>
</event>
<event>
 6    1  0.4271609E-002  0.1380733E+03  0.7546771E-02  0.1215945E+00
         21   -1    0    0  504  502  0.00000000000E+00  0.00000000000E+00  0.42700846464E+03  0.42700846464E+03  0.00000000000E+00 0.  1.
         21   -1    0    0  502  503 -0.00000000000E+00 -0.00000000000E+00 -0.25266900817E+02  0.25266900817E+02  0.00000000000E+00 0.  1.
         25    2    1    2    0    0  0.41529007203E+02 -0.41397331137E+02  0.34078377825E+03  0.36769257119E+03  0.12500338365E+03 0.  0.
          5    1    3    3  501    0 -0.31897082764E+02 -0.54709050577E+02  0.16415545664E+03  0.17594751504E+03  0.10000000000E+00 0.  1.
         -5    1    3    3    0  501  0.73426089967E+02  0.13311719439E+02  0.17662832161E+03  0.19174505615E+03  0.10000000000E+00 0.  1.
         21    1    1    2  504  503 -0.41529007203E+02  0.41397331137E+02  0.60957785572E+02  0.84582794269E+02  0.00000000000E+00 0.  1.
<mgrwt>
<rscale>  1 0.13807333E+03</rscale>
<asrwt>0</asrwt>
<pdfrwt beam="1">  1       21 0.65693604E-01 0.13807333E+03</pdfrwt>
<pdfrwt beam="2">  1       21 0.38872158E-02 0.13807333E+03</pdfrwt>
<totfact> 0.87915711E+05</totfact>
</mgrwt>
</event>
<event>
 6    1  0.4271609E-002  0.1280803E+03  0.7546771E-02  0.1230332E+00
         21   -1    0    0  504  502  0.00000000000E+00  0.00000000000E+00  0.61470632537E+01  0.61470632537E+01  0.00000000000E+00 0.  1.
         21   -1    0    0  502  503 -0.00000000000E+00 -0.00000000000E+00 -0.10126839229E+04  0.10126839229E+04  0.00000000000E+00 0.  1.
         25    2    1    2    0    0 -0.21891090258E+02  0.17079375264E+02 -0.75758872645E+03  0.76833927389E+03  0.12503454108E+03 0.  0.
          5    1    3    3  501    0  0.29743062289E+02 -0.31661358626E+02 -0.13751405532E+03  0.14421240167E+03  0.10000000000E+00 0.  1.
         -5    1    3    3    0  501 -0.51634152547E+02  0.48740733891E+02 -0.62007467113E+03  0.62412687222E+03  0.10000000000E+00 0.  1.
         21    1    1    2  504  503  0.21891090258E+02 -0.17079375264E+02 -0.24894813321E+03  0.25049171228E+03  0.00000000000E+00 0.  1.
<mgrwt>
<rscale>  1 0.12808029E+03</rscale>
<asrwt>0</asrwt>
<pdfrwt beam="1">  1       21 0.94570301E-03 0.12808029E+03</pdfrwt>
<pdfrwt beam="2">  1       21 0.15579737E+00 0.12808029E+03</pdfrwt>
<totfact> 0.11208120E+06</totfact>
</mgrwt>
</event>
<event>
 6    1  0.4271609E-002  0.1262420E+03  0.7546771E-02  0.1233141E+00
         21   -1    0    0  504  502  0.00000000000E+00  0.00000000000E+00  0.25280946487E+02  0.25280946487E+02  0.00000000000E+00 0. -1.
         21   -1    0    0  502  503 -0.00000000000E+00 -0.00000000000E+00 -0.20706594825E+03  0.20706594825E+03  0.00000000000E+00 0. -1.
         25    2    1    2    0    0  0.11353534538E+02  0.13526855781E+02 -0.15064359947E+03  0.19654653844E+03  0.12500067656E+03 0.  0.
          5    1    3    3  501    0 -0.39458103379E+02 -0.15388844639E+02 -0.12630969626E+03  0.13322127394E+03  0.10000000000E+00 0.  1.
         -5    1    3    3    0  501  0.50811637916E+02  0.28915700420E+02 -0.24333903206E+02  0.63325264498E+02  0.10000000000E+00 0.  1.
         21    1    1    2  504  503 -0.11353534538E+02 -0.13526855781E+02 -0.31141402292E+02  0.35800356291E+02  0.00000000000E+00 0. -1.
<mgrwt>
<rscale>  1 0.12624202E+03</rscale>
<asrwt>0</asrwt>
<pdfrwt beam="1">  1       21 0.38893765E-02 0.12624202E+03</pdfrwt>
<pdfrwt beam="2">  1       21 0.31856299E-01 0.12624202E+03</pdfrwt>
<totfact> 0.38434788E+06</totfact>
</mgrwt>
</event>
<event>
 6    1  0.4271609E-002  0.1290950E+03  0.7546771E-02  0.1228805E+00
         21   -1    0    0  504  502  0.00000000000E+00  0.00000000000E+00  0.20478373965E+03  0.20478373965E+03  0.00000000000E+00 0. -1.
         21   -1    0    0  502  503 -0.00000000000E+00 -0.00000000000E+00 -0.36765505865E+02  0.36765505865E+02  0.00000000000E+00 0. -1.
         25    2    1    2    0    0 -0.31961865488E+02 -0.43966240902E+01  0.16448238070E+03  0.20909322287E+03  0.12499852455E+03 0.  0.
          5    1    3    3  501    0 -0.17334816842E+01 -0.49116970335E+02  0.14262820050E+03  0.15085852747E+03  0.10000000000E+00 0. -1.
         -5    1    3    3    0  501 -0.30228383803E+02  0.44720346244E+02  0.21854180205E+02  0.58234695397E+02  0.10000000000E+00 0. -1.
         21    1    1    2  504  503  0.31961865488E+02  0.43966240902E+01  0.35358530788E+01  0.32456022643E+02  0.00000000000E+00 0. -1.
<mgrwt>
<rscale>  1 0.12909501E+03</rscale>
<asrwt>0</asrwt>
<pdfrwt beam="1">  1       21 0.31505190E-01 0.12909501E+03</pdfrwt>
<pdfrwt beam="2">  1       21 0.56562318E-02 0.12909501E+03</pdfrwt>
<totfact> 0.20997107E+06</totfact>
</mgrwt>
</event>
<event>
 6    1  0.4271609E-002  0.1291001E+03  0.7546771E-02  0.1228797E+00
         21   -1    0    0  503  502  0.00000000000E+00  0.00000000000E+00  0.91676745977E+01  0.91676745977E+01  0.00000000000E+00 0. -1.
         21   -1    0    0  504  503 -0.00000000000E+00 -0.00000000000E+00 -0.86223604131E+03  0.86223604131E+03  0.00000000000E+00 0. -1.
         25    2    1    2    0    0 -0.15686413483E+02  0.28208395509E+02 -0.48384333114E+03  0.50077060347E+03  0.12500020425E+03 0.  0.
          5    1    3    3  501    0 -0.78944974499E+01 -0.29619410621E+02 -0.28993169051E+02  0.42192966561E+02  0.10000000000E+00 0.  1.
         -5    1    3    3    0  501 -0.77919160328E+01  0.57827806130E+02 -0.45485016209E+03  0.45857763691E+03  0.10000000000E+00 0.  1.
         21    1    1    2  504  502  0.15686413483E+02 -0.28208395509E+02 -0.36922503557E+03  0.37063311244E+03  0.00000000000E+00 0. -1.
<mgrwt>
<rscale>  1 0.12910007E+03</rscale>
<asrwt>0</asrwt>
<pdfrwt beam="1">  1       21 0.14104116E-02 0.12910007E+03</pdfrwt>
<pdfrwt beam="2">  1       21 0.13265169E+00 0.12910007E+03</pdfrwt>
<totfact> 0.89832144E+05</totfact>
</mgrwt>
</event>
<event>
 6    1  0.4271609E-002  0.1267812E+03  0.7546771E-02  0.1232311E+00
         21   -1    0    0  504  502  0.00000000000E+00  0.00000000000E+00  0.10883280565E+03  0.10883280565E+03  0.00000000000E+00 0.  1.
         21   -1    0    0  502  503 -0.00000000000E+00 -0.00000000000E+00 -0.56965631459E+02  0.56965631459E+02  0.00000000000E+00 0.  1.
         25    2    1    2    0    0  0.21105738402E+02 -0.23841733689E+00  0.63395866104E+02  0.14174807799E+03  0.12501189039E+03 0.  0.
          5    1    3    3  501    0 -0.24546862699E+02 -0.30679514770E+02  0.75903045336E+02  0.85469663543E+02  0.10000000000E+00 0.  1.
         -5    1    3    3    0  501  0.45652601101E+02  0.30441097433E+02 -0.12507179232E+02  0.56278414446E+02  0.10000000000E+00 0.  1.
         21    1    1    2  504  503 -0.21105738402E+02  0.23841733689E+00 -0.11528691917E+02  0.24050359116E+02  0.00000000000E+00 0.  1.
<mgrwt>
<rscale>  1 0.12678124E+03</rscale>
<asrwt>0</asrwt>
<pdfrwt beam="1">  1       21 0.16743509E-01 0.12678124E+03</pdfrwt>
<pdfrwt beam="2">  1       21 0.87639433E-02 0.12678124E+03</pdfrwt>
<totfact> 0.32455893E+06</totfact>
</mgrwt>
</event>
<event>
 6    1  0.4271609E-002  0.1261678E+03  0.7546771E-02  0.1233255E+00
         21   -1    0    0  503  502  0.00000000000E+00  0.00000000000E+00  0.73951007019E+02  0.73951007019E+02  0.00000000000E+00 0. -1.
         21   -1    0    0  504  503 -0.00000000000E+00 -0.00000000000E+00 -0.25475626996E+03  0.25475626996E+03  0.00000000000E+00 0. -1.
         25    2    1    2    0    0 -0.17109918312E+02  0.15454218742E+01  0.19500731662E+02  0.12766591530E+03  0.12499267883E+03 0.  0.
          5    1    3    3  501    0 -0.27272218655E+02  0.19246951775E+02  0.67612485506E+02  0.75403430023E+02  0.10000000000E+00 0. -1.
         -5    1    3    3    0  501  0.10162300343E+02 -0.17701529901E+02 -0.48111753844E+02  0.52262485274E+02  0.10000000000E+00 0. -1.
         21    1    1    2  504  502  0.17109918312E+02 -0.15454218742E+01 -0.20030599460E+03  0.20104136168E+03  0.00000000000E+00 0. -1.
<mgrwt>
<rscale>  1 0.12616777E+03</rscale>
<asrwt>0</asrwt>
<pdfrwt beam="1">  1       21 0.11377078E-01 0.12616777E+03</pdfrwt>
<pdfrwt beam="2">  1       21 0.39193273E-01 0.12616777E+03</pdfrwt>
<totfact> 0.40942049E+05</totfact>
</mgrwt>
</event>
<event>
 6    1  0.4271609E-002  0.1269726E+03  0.7546771E-02  0.1232018E+00
         21   -1    0    0  504  502  0.00000000000E+00  0.00000000000E+00  0.10436888430E+03  0.10436888430E+03  0.00000000000E+00 0.  1.
         21   -1    0    0  502  503 -0.00000000000E+00 -0.00000000000E+00 -0.55263389052E+02  0.55263389052E+02  0.00000000000E+00 0.  1.
         25    2    1    2    0    0 -0.21306053619E+02 -0.67172805423E+01  0.51796186393E+02  0.13713094900E+03  0.12499192962E+03 0.  0.
          5    1    3    3  501    0 -0.56918669903E+02 -0.25266157365E+02 -0.10362379293E+02  0.63130837125E+02  0.10000000000E+00 0.  1.
         -5    1    3    3    0  501  0.35612616283E+02  0.18548876823E+02  0.62158565686E+02  0.74000111879E+02  0.10000000000E+00 0.  1.
         21    1    1    2  504  503  0.21306053619E+02  0.67172805423E+01 -0.26906911427E+01  0.22501324351E+02  0.00000000000E+00 0.  1.
<mgrwt>
<rscale>  1 0.12697264E+03</rscale>
<asrwt>0</asrwt>
<pdfrwt beam="1">  1       21 0.16056751E-01 0.12697264E+03</pdfrwt>
<pdfrwt beam="2">  1       21 0.85020599E-02 0.12697264E+03</pdfrwt>
<totfact> 0.36910249E+06</totfact>
</mgrwt>
</event>
<event>
 6    1  0.4271609E-002  0.1587952E+03  0.7546771E-02  0.1190064E+00
         21   -1    0    0  504  502  0.00000000000E+00  0.00000000000E+00  0.15544167789E+03  0.15544167789E+03  0.00000000000E+00 0. -1.
         21   -1    0    0  502  503 -0.00000000000E+00 -0.00000000000E+00 -0.12831852108E+03  0.12831852108E+03  0.00000000000E+00 0. -1.
         25    2    1    2    0    0  0.87590234862E+02 -0.43818405654E+02  0.73987631461E+02  0.17518588847E+03  0.12499529588E+03 0.  0.
          5    1    3    3  501    0  0.99554716878E+02 -0.75440459430E+02  0.55992455465E+02  0.13688524260E+03  0.10000000000E+00 0.  1.
         -5    1    3    3    0  501 -0.11964482016E+02  0.31622053776E+02  0.17995175996E+02  0.38300645870E+02  0.10000000000E+00 0.  1.
         21    1    1    2  504  503 -0.87590234862E+02  0.43818405654E+02 -0.46864474647E+02  0.10857431050E+03  0.00000000000E+00 0. -1.
<mgrwt>
<rscale>  1 0.15879523E+03</rscale>
<asrwt>0</asrwt>
<pdfrwt beam="1">  1       21 0.23914104E-01 0.15879523E+03</pdfrwt>
<pdfrwt beam="2">  1       21 0.19741311E-01 0.15879523E+03</pdfrwt>
<totfact> 0.39246683E+05</totfact>
</mgrwt>
</event>
<event>
 6    1  0.4271609E-002  0.1266286E+03  0.7546771E-02  0.1232546E+00
         21   -1    0    0  503  502  0.00000000000E+00  0.00000000000E+00  0.22768261018E+03  0.22768261018E+03  0.00000000000E+00 0. -1.
         21   -1    0    0  504  503 -0.00000000000E+00 -0.00000000000E+00 -0.24982639947E+02  0.24982639947E+02  0.00000000000E+00 0. -1.
         25    2    1    2    0    0  0.43907066891E+01 -0.19744172360E+02  0.19139876572E+03  0.22949570393E+03  0.12500271980E+03 0.  0.
          5    1    3    3  501    0  0.24040290463E+02  0.49038301326E+02  0.73066049410E+02  0.91221423684E+02  0.10000000000E+00 0.  1.
         -5    1    3    3    0  501 -0.19649583774E+02 -0.68782473686E+02  0.11833271631E+03  0.13827428025E+03  0.10000000000E+00 0.  1.
         21    1    1    2  504  502 -0.43907066891E+01  0.19744172360E+02  0.11301204511E+02  0.23169546194E+02  0.00000000000E+00 0.  1.
<mgrwt>
<rscale>  1 0.12662855E+03</rscale>
<asrwt>0</asrwt>
<pdfrwt beam="1">  1       21 0.35028093E-01 0.12662855E+03</pdfrwt>
<pdfrwt beam="2">  1       21 0.38434832E-02 0.12662855E+03</pdfrwt>
<totfact> 0.32572346E+06</totfact>
</mgrwt>
</event>
<event>
 6    1  0.4271609E-002  0.1283318E+03  0.7546771E-02  0.1229952E+00
         21   -1    0    0  503  502  0.00000000000E+00  0.00000000000E+00  0.11175752073E+02  0.11175752073E+02  0.00000000000E+00 0. -1.
         21   -1    0    0  504  503 -0.00000000000E+00 -0.00000000000E+00 -0.63575786847E+03  0.63575786847E+03  0.00000000000E+00 0. -1.
         25    2    1    2    0    0  0.27106011799E+02  0.10439880838E+02 -0.39027374636E+03  0.41083165262E+03  0.12500129083E+03 0.  0.
          5    1    3    3  501    0 -0.49723260990E+02 -0.43259576293E+01 -0.14137013122E+03  0.14992211509E+03  0.10000000000E+00 0. -1.
         -5    1    3    3    0  501  0.76829272789E+02  0.14765838467E+02 -0.24890361514E+03  0.26090953753E+03  0.10000000000E+00 0. -1.
         21    1    1    2  504  502 -0.27106011799E+02 -0.10439880838E+02 -0.23430837004E+03  0.23610196792E+03  0.00000000000E+00 0. -1.
<mgrwt>
<rscale>  1 0.12833180E+03</rscale>
<asrwt>0</asrwt>
<pdfrwt beam="1">  1       21 0.17193463E-02 0.12833180E+03</pdfrwt>
<pdfrwt beam="2">  1       21 0.97808912E-01 0.12833180E+03</pdfrwt>
<totfact> 0.13645975E+06</totfact>
</mgrwt>
</event>
<event>
 6    1  0.4271609E-002  0.1274619E+03  0.7546771E-02  0.1231271E+00
         21   -1    0    0  504  502  0.00000000000E+00  0.00000000000E+00  0.17037589380E+03  0.17037589380E+03  0.00000000000E+00 0. -1.
         21   -1    0    0  502  503 -0.00000000000E+00 -0.00000000000E+00 -0.43254265768E+02  0.43254265768E+02  0.00000000000E+00 0. -1.
         25    2    1    2    0    0 -0.20717367491E+02 -0.13940550587E+02  0.13668195356E+03  0.18689164631E+03  0.12499193080E+03 0.  0.
          5    1    3    3  501    0  0.28321306138E+02 -0.56203770063E+01 -0.11122795983E+02  0.30942068604E+02  0.10000000000E+00 0. -1.
         -5    1    3    3    0  501 -0.49038673629E+02 -0.83201735806E+01  0.14780474955E+03  0.15594957771E+03  0.10000000000E+00 0. -1.
         21    1    1    2  504  503  0.20717367491E+02  0.13940550587E+02 -0.95603255350E+01  0.26738513249E+02  0.00000000000E+00 0. -1.
<mgrwt>
<rscale>  1 0.12746188E+03</rscale>
<asrwt>0</asrwt>
<pdfrwt beam="1">  1       21 0.26211676E-01 0.12746188E+03</pdfrwt>
<pdfrwt beam="2">  1       21 0.66545025E-02 0.12746188E+03</pdfrwt>
<totfact> 0.22671642E+06</totfact>
</mgrwt>
</event>
<event>
 6    1  0.4271609E-002  0.1262070E+03  0.7546771E-02  0.1233195E+00
         21   -1    0    0  503  502  0.00000000000E+00  0.00000000000E+00  0.50156544446E+02  0.50156544446E+02  0.00000000000E+00 0. -1.
         21   -1    0    0  504  503 -0.00000000000E+00 -0.00000000000E+00 -0.10458775992E+03  0.10458775992E+03  0.00000000000E+00 0. -1.
         25    2    1    2    0    0 -0.17887868650E+01 -0.17331867130E+02 -0.40852616551E+02  0.13265422231E+03  0.12499845215E+03 0.  0.
          5    1    3    3  501    0 -0.41531941473E+02  0.32244953071E+02 -0.44678517057E+02  0.68998688737E+02  0.10000000000E+00 0.  1.
         -5    1    3    3    0  501  0.39743154608E+02 -0.49576820200E+02  0.38259005058E+01  0.63655533570E+02  0.10000000000E+00 0.  1.
         21    1    1    2  504  502  0.17887868650E+01  0.17331867130E+02 -0.13578598920E+02  0.22090082057E+02  0.00000000000E+00 0. -1.
<mgrwt>
<rscale>  1 0.12620700E+03</rscale>
<asrwt>0</asrwt>
<pdfrwt beam="1">  1       21 0.77163915E-02 0.12620700E+03</pdfrwt>
<pdfrwt beam="2">  1       21 0.16090425E-01 0.12620700E+03</pdfrwt>
<totfact> 0.43450581E+06</totfact>
</mgrwt>
</event>
<event>
 6    1  0.4271609E-002  0.1278736E+03  0.7546771E-02  0.1230646E+00
         21   -1    0    0  503  502  0.00000000000E+00  0.00000000000E+00  0.35818667696E+03  0.35818667696E+03  0.00000000000E+00 0.  1.
         21   -1    0    0  504  503 -0.00000000000E+00 -0.00000000000E+00 -0.17842899961E+02  0.17842899961E+02  0.00000000000E+00 0.  1.
         25    2    1    2    0    0  0.22524729827E+01 -0.26881018348E+02  0.31050506493E+03  0.33580506301E+03  0.12499592877E+03 0.  0.
          5    1    3    3  501    0 -0.12567021316E+02 -0.59314752624E+02  0.28643659863E+03  0.29278337544E+03  0.10000000000E+00 0. -1.
         -5    1    3    3    0  501  0.14819494299E+02  0.32433734276E+02  0.24068466307E+02  0.43021687563E+02  0.10000000000E+00 0. -1.
         21    1    1    2  504  502 -0.22524729827E+01  0.26881018348E+02  0.29838712064E+02  0.40224513914E+02  0.00000000000E+00 0.  1.
<mgrwt>
<rscale>  1 0.12787355E+03</rscale>
<asrwt>0</asrwt>
<pdfrwt beam="1">  1       21 0.55105637E-01 0.12787355E+03</pdfrwt>
<pdfrwt beam="2">  1       21 0.27450618E-02 0.12787355E+03</pdfrwt>
<totfact> 0.22640613E+06</totfact>
</mgrwt>
</event>
<event>
 6    1  0.4271609E-002  0.1264089E+03  0.7546771E-02  0.1232884E+00
         21   -1    0    0  503  502  0.00000000000E+00  0.00000000000E+00  0.22394900719E+03  0.22394900719E+03  0.00000000000E+00 0.  1.
         21   -1    0    0  504  503 -0.00000000000E+00 -0.00000000000E+00 -0.46270998322E+02  0.46270998322E+02  0.00000000000E+00 0.  1.
         25    2    1    2    0    0  0.14926479444E+02 -0.11426256889E+02  0.20272290089E+03  0.23890538031E+03  0.12500338820E+03 0.  0.
          5    1    3    3  501    0  0.31203138659E+02 -0.45548057707E+02  0.19174939593E+03  0.19953972603E+03  0.10000000000E+00 0.  1.
         -5    1    3    3    0  501 -0.16276659215E+02  0.34121800818E+02  0.10973504958E+02  0.39365654285E+02  0.10000000000E+00 0.  1.
         21    1    1    2  504  502 -0.14926479444E+02  0.11426256889E+02 -0.25044892021E+02  0.31314625200E+02  0.00000000000E+00 0.  1.
<mgrwt>
<rscale>  1 0.12640888E+03</rscale>
<asrwt>0</asrwt>
<pdfrwt beam="1">  1       21 0.34453693E-01 0.12640888E+03</pdfrwt>
<pdfrwt beam="2">  1       21 0.71186153E-02 0.12640888E+03</pdfrwt>
<totfact> 0.11922626E+06</totfact>
</mgrwt>
</event>
<event>
 6    1  0.4271609E-002  0.1264075E+03  0.7546771E-02  0.1232886E+00
         21   -1    0    0  503  502  0.00000000000E+00  0.00000000000E+00  0.12049903324E+03  0.12049903324E+03  0.00000000000E+00 0. -1.
         21   -1    0    0  504  503 -0.00000000000E+00 -0.00000000000E+00 -0.60988339094E+02  0.60988339094E+02  0.00000000000E+00 0. -1.
         25    2    1    2    0    0 -0.33260434237E+01 -0.18519001695E+02  0.83127960145E+02  0.15129149113E+03  0.12499936617E+03 0.  0.
          5    1    3    3  501    0  0.22678289427E+02 -0.65025288246E+02  0.65835241785E+02  0.95272671757E+02  0.10000000000E+00 0. -1.
         -5    1    3    3    0  501 -0.26004332850E+02  0.46506286552E+02  0.17292718361E+02  0.56018819374E+02  0.10000000000E+00 0. -1.
         21    1    1    2  504  502  0.33260434237E+01  0.18519001695E+02 -0.23617265996E+02  0.30195881205E+02  0.00000000000E+00 0. -1.
<mgrwt>
<rscale>  1 0.12640751E+03</rscale>
<asrwt>0</asrwt>
<pdfrwt beam="1">  1       21 0.18538313E-01 0.12640751E+03</pdfrwt>
<pdfrwt beam="2">  1       21 0.93828214E-02 0.12640751E+03</pdfrwt>
<totfact> 0.23933578E+06</totfact>
</mgrwt>
</event>
<event>
 6    1  0.4271609E-002  0.1260636E+03  0.7546771E-02  0.1233416E+00
         21   -1    0    0  504  502  0.00000000000E+00  0.00000000000E+00  0.94806615117E+02  0.94806615117E+02  0.00000000000E+00 0. -1.
         21   -1    0    0  502  503 -0.00000000000E+00 -0.00000000000E+00 -0.13466626944E+03  0.13466626944E+03  0.00000000000E+00 0. -1.
         25    2    1    2    0    0  0.11860855809E+02 -0.11279529134E+02  0.51852842148E+02  0.13631125250E+03  0.12499653052E+03 0.  0.
          5    1    3    3  501    0  0.36007205865E+01 -0.10622867686E+02 -0.41297140771E+02  0.42793391341E+02  0.10000000000E+00 0. -1.
         -5    1    3    3    0  501  0.82601352221E+01 -0.65666144891E+00  0.93149982920E+02  0.93517861161E+02  0.10000000000E+00 0. -1.
         21    1    1    2  504  503 -0.11860855809E+02  0.11279529134E+02 -0.91712496468E+02  0.93161632051E+02  0.00000000000E+00 0. -1.
<mgrwt>
<rscale>  1 0.12606364E+03</rscale>
<asrwt>0</asrwt>
<pdfrwt beam="1">  1       21 0.14585633E-01 0.12606364E+03</pdfrwt>
<pdfrwt beam="2">  1       21 0.20717888E-01 0.12606364E+03</pdfrwt>
<totfact> 0.89369945E+05</totfact>
</mgrwt>
</event>
<event>
 6    1  0.4271609E-002  0.1453430E+03  0.7546771E-02  0.1206315E+00
         21   -1    0    0  504  502  0.00000000000E+00  0.00000000000E+00  0.61748650623E+02  0.61748650623E+02  0.00000000000E+00 0.  1.
         21   -1    0    0  502  503 -0.00000000000E+00 -0.00000000000E+00 -0.24821253564E+03  0.24821253564E+03  0.00000000000E+00 0.  1.
         25    2    1    2    0    0 -0.71087250709E+02 -0.21164275031E+02 -0.48319439533E+02  0.15316446573E+03  0.12499304611E+03 0.  0.
          5    1    3    3  501    0 -0.47096976897E+02  0.48133800544E+02 -0.42431061872E+02  0.79595182010E+02  0.10000000000E+00 0.  1.
         -5    1    3    3    0  501 -0.23990273813E+02 -0.69298075575E+02 -0.58883776612E+01  0.73569283723E+02  0.10000000000E+00 0.  1.
         21    1    1    2  504  503  0.71087250709E+02  0.21164275031E+02 -0.13814444549E+03  0.15679672053E+03  0.00000000000E+00 0.  1.
<mgrwt>
<rscale>  1 0.14534299E+03</rscale>
<asrwt>0</asrwt>
<pdfrwt beam="1">  1       21 0.94997923E-02 0.14534299E+03</pdfrwt>
<pdfrwt beam="2">  1       21 0.38186544E-01 0.14534299E+03</pdfrwt>
<totfact> 0.59083998E+05</totfact>
</mgrwt>
</event>
<event>
 6    1  0.4271609E-002  0.1267016E+03  0.7546771E-02  0.1232434E+00
         21   -1    0    0  504  502  0.00000000000E+00  0.00000000000E+00  0.12124608272E+03  0.12124608272E+03  0.00000000000E+00 0. -1.
         21   -1    0    0  502  503 -0.00000000000E+00 -0.00000000000E+00 -0.45064450122E+02  0.45064450122E+02  0.00000000000E+00 0. -1.
         25    2    1    2    0    0 -0.16683306234E+02 -0.12209096092E+02  0.69897423136E+02  0.14470298734E+03  0.12500364014E+03 0.  0.
          5    1    3    3  501    0 -0.19966340044E+02  0.22761076233E+02 -0.27663333936E+02  0.41012088102E+02  0.10000000000E+00 0. -1.
         -5    1    3    3    0  501  0.32830338095E+01 -0.34970172326E+02  0.97560757072E+02  0.10369089923E+03  0.10000000000E+00 0. -1.
         21    1    1    2  504  503  0.16683306234E+02  0.12209096092E+02  0.62842094646E+01  0.21607545508E+02  0.00000000000E+00 0. -1.
<mgrwt>
<rscale>  1 0.12670164E+03</rscale>
<asrwt>0</asrwt>
<pdfrwt beam="1">  1       21 0.18653243E-01 0.12670164E+03</pdfrwt>
<pdfrwt beam="2">  1       21 0.69329924E-02 0.12670164E+03</pdfrwt>
<totfact> 0.39877810E+06</totfact>
</mgrwt>
</event>
<event>
 6    1  0.4271609E-002  0.1527924E+03  0.7546771E-02  0.1197083E+00
         21   -1    0    0  503  502  0.00000000000E+00  0.00000000000E+00  0.23156283632E+03  0.23156283632E+03  0.00000000000E+00 0. -1.
         21   -1    0    0  504  503 -0.00000000000E+00 -0.00000000000E+00 -0.66546297010E+02  0.66546297010E+02  0.00000000000E+00 0. -1.
         25    2    1    2    0    0  0.62267371395E+02  0.62001859093E+02  0.13876273416E+03  0.20639916465E+03  0.12499625075E+03 0.  0.
          5    1    3    3  501    0  0.23657810544E+02 -0.71860728887E+01  0.12319594816E+03  0.12565262944E+03  0.10000000000E+00 0. -1.
         -5    1    3    3    0  501  0.38609560851E+02  0.69187931982E+02  0.15566786008E+02  0.80746535205E+02  0.10000000000E+00 0. -1.
         21    1    1    2  504  502 -0.62267371395E+02 -0.62001859093E+02  0.26253805146E+02  0.91709968685E+02  0.00000000000E+00 0. -1.
<mgrwt>
<rscale>  1 0.15279240E+03</rscale>
<asrwt>0</asrwt>
<pdfrwt beam="1">  1       21 0.35625051E-01 0.15279240E+03</pdfrwt>
<pdfrwt beam="2">  1       21 0.10237892E-01 0.15279240E+03</pdfrwt>
<totfact> 0.59446721E+05</totfact>
</mgrwt>
</event>
<event>
 6    1  0.4271609E-002  0.1266311E+03  0.7546771E-02  0.1232542E+00
         21   -1    0    0  504  502  0.00000000000E+00  0.00000000000E+00  0.13830324064E+04  0.13830324064E+04  0.00000000000E+00 0.  1.
         21   -1    0    0  502  503 -0.00000000000E+00 -0.00000000000E+00 -0.40237175817E+01  0.40237175817E+01  0.00000000000E+00 0.  1.
         25    2    1    2    0    0  0.17563276556E+02 -0.10105538174E+02  0.12586055429E+04  0.12649598172E+04  0.12499934361E+03 0.  0.
          5    1    3    3  501    0 -0.11640775704E+02 -0.31078944127E+02  0.92044615659E+02  0.97844926791E+02  0.10000000000E+00 0.  1.
         -5    1    3    3    0  501  0.29204052260E+02  0.20973405953E+02  0.11665609272E+04  0.11671148904E+04  0.10000000000E+00 0.  1.
         21    1    1    2  504  503 -0.17563276556E+02  0.10105538174E+02  0.12040314596E+03  0.12209630683E+03  0.00000000000E+00 0.  1.
<mgrwt>
<rscale>  1 0.12663106E+03</rscale>
<asrwt>0</asrwt>
<pdfrwt beam="1">  1       21 0.21277384E+00 0.12663106E+03</pdfrwt>
<pdfrwt beam="2">  1       21 0.61903458E-03 0.12663106E+03</pdfrwt>
<totfact> 0.91257695E+05</totfact>
</mgrwt>
</event>
<event>
 6    1  0.4271609E-002  0.1303053E+03  0.7546771E-02  0.1227003E+00
         21   -1    0    0  504  502  0.00000000000E+00  0.00000000000E+00  0.26632267749E+03  0.26632267749E+03  0.00000000000E+00 0. -1.
         21   -1    0    0  502  503 -0.00000000000E+00 -0.00000000000E+00 -0.14104189257E+03  0.14104189257E+03  0.00000000000E+00 0.  1.
         25    2    1    2    0    0  0.36744714691E+02  0.22501098014E+01  0.24750810217E+03  0.27971366276E+03  0.12499694173E+03 0.  0.
          5    1    3    3  501    0  0.70895543907E+02 -0.23861639513E+02  0.20905720333E+03  0.22203711458E+03  0.10000000000E+00 0. -1.
         -5    1    3    3    0  501 -0.34150829216E+02  0.26111749314E+02  0.38450898839E+02  0.57676548179E+02  0.10000000000E+00 0. -1.
         21    1    1    2  504  503 -0.36744714691E+02 -0.22501098014E+01 -0.12222731726E+03  0.12765090730E+03  0.00000000000E+00 0.  1.
<mgrwt>
<rscale>  1 0.13030530E+03</rscale>
<asrwt>0</asrwt>
<pdfrwt beam="1">  1       21 0.40972719E-01 0.13030530E+03</pdfrwt>
<pdfrwt beam="2">  1       21 0.21698753E-01 0.13030530E+03</pdfrwt>
<totfact> 0.11626228E+05</totfact>
</mgrwt>
</event>
<event>
 6    1  0.4271609E-002  0.1316793E+03  0.7546771E-02  0.1224985E+00
         21   -1    0    0  503  502  0.00000000000E+00  0.00000000000E+00  0.24491966864E+03  0.24491966864E+03  0.00000000000E+00 0. -1.
         21   -1    0    0  504  503 -0.00000000000E+00 -0.00000000000E+00 -0.43326235497E+03  0.43326235497E+03  0.00000000000E+00 0.  1.
         25    2    1    2    0    0  0.80734127076E+01  0.40615024667E+02  0.22611390567E+03  0.26166188379E+03  0.12499873148E+03 0.  0.
          5    1    3    3  501    0  0.54258658908E+02 -0.16072692303E+02  0.12144211110E+03  0.13397958745E+03  0.10000000000E+00 0. -1.
         -5    1    3    3    0  501 -0.46185246200E+02  0.56687716970E+02  0.10467179457E+03  0.12768229635E+03  0.10000000000E+00 0. -1.
         21    1    1    2  504  502 -0.80734127076E+01 -0.40615024667E+02 -0.41445659200E+03  0.41652013982E+03  0.00000000000E+00 0.  1.
<mgrwt>
<rscale>  1 0.13167932E+03</rscale>
<asrwt>0</asrwt>
<pdfrwt beam="1">  1       21 0.37679949E-01 0.13167932E+03</pdfrwt>
<pdfrwt beam="2">  1       21 0.66655747E-01 0.13167932E+03</pdfrwt>
<totfact> 0.14627138E+04</totfact>
</mgrwt>
</event>
<event>
 6    1  0.4271609E-002  0.1370388E+03  0.7546771E-02  0.1217370E+00
         21   -1    0    0  504  502  0.00000000000E+00  0.00000000000E+00  0.91547411203E+01  0.91547411203E+01  0.00000000000E+00 0. -1.
         21   -1    0    0  502  503 -0.00000000000E+00 -0.00000000000E+00 -0.13165668321E+04  0.13165668321E+04  0.00000000000E+00 0. -1.
         25    2    1    2    0    0  0.37015137227E+02 -0.42247876591E+02 -0.57278109331E+03  0.58894636585E+03  0.12499855012E+03 0.  0.
          5    1    3    3  501    0  0.50333707074E+02 -0.54066338592E+02 -0.16504652828E+03  0.18082316647E+03  0.10000000000E+00 0. -1.
         -5    1    3    3    0  501 -0.13318569847E+02  0.11818462002E+02 -0.40773456503E+03  0.40812319938E+03  0.10000000000E+00 0. -1.
         21    1    1    2  504  503 -0.37015137227E+02  0.42247876591E+02 -0.73463099767E+03  0.73677520737E+03  0.00000000000E+00 0. -1.
<mgrwt>
<rscale>  1 0.13703883E+03</rscale>
<asrwt>0</asrwt>
<pdfrwt beam="1">  1       21 0.14084222E-02 0.13703883E+03</pdfrwt>
<pdfrwt beam="2">  1       21 0.20254867E+00 0.13703883E+03</pdfrwt>
<totfact> 0.28816640E+05</totfact>
</mgrwt>
</event>
<event>
 6    1  0.4271609E-002  0.1285034E+03  0.7546771E-02  0.1229693E+00
         21   -1    0    0  504  502  0.00000000000E+00  0.00000000000E+00  0.61534823017E+02  0.61534823017E+02  0.00000000000E+00 0.  1.
         21   -1    0    0  502  503 -0.00000000000E+00 -0.00000000000E+00 -0.10290455593E+03  0.10290455593E+03  0.00000000000E+00 0.  1.
         25    2    1    2    0    0 -0.28890645842E+02  0.73673090179E+01 -0.40030727019E+02  0.13459411808E+03  0.12499668338E+03 0.  0.
          5    1    3    3  501    0 -0.10627854982E+01 -0.67093691434E+01  0.44229342867E+02  0.44748071666E+02  0.10000000000E+00 0.  1.
         -5    1    3    3    0  501 -0.27827860344E+02  0.14076678161E+02 -0.84260069887E+02  0.89846046416E+02  0.10000000000E+00 0.  1.
         21    1    1    2  504  503  0.28890645842E+02 -0.73673090179E+01 -0.13390058949E+01  0.29845260865E+02  0.00000000000E+00 0.  1.
<mgrwt>
<rscale>  1 0.12850338E+03</rscale>
<asrwt>0</asrwt>
<pdfrwt beam="1">  1       21 0.94668959E-02 0.12850338E+03</pdfrwt>
<pdfrwt beam="2">  1       21 0.15831470E-01 0.12850338E+03</pdfrwt>
<totfact> 0.31435849E+06</totfact>
</mgrwt>
</event>
<event>
 6    1  0.4271609E-002  0.1287918E+03  0.7546771E-02  0.1229260E+00
         21   -1    0    0  503  502  0.00000000000E+00  0.00000000000E+00  0.53150127845E+02  0.53150127845E+02  0.00000000000E+00 0.  1.
         21   -1    0    0  504  503 -0.00000000000E+00 -0.00000000000E+00 -0.61285431167E+03  0.61285431167E+03  0.00000000000E+00 0.  1.
         25    2    1    2    0    0 -0.53516057868E+01  0.30527604510E+02 -0.25986058909E+02  0.13138718279E+03  0.12500696870E+03 0.  0.
          5    1    3    3  501    0 -0.29704398413E+01  0.79190123323E+02 -0.23265181337E+02  0.82590422007E+02  0.10000000000E+00 0. -1.
         -5    1    3    3    0  501 -0.23811659455E+01 -0.48662518813E+02 -0.27208775724E+01  0.48796760786E+02  0.10000000000E+00 0. -1.
         21    1    1    2  504  502  0.53516057868E+01 -0.30527604510E+02 -0.53371812492E+03  0.53461725673E+03  0.00000000000E+00 0.  1.
<mgrwt>
<rscale>  1 0.12879176E+03</rscale>
<asrwt>0</asrwt>
<pdfrwt beam="1">  1       21 0.81769424E-02 0.12879176E+03</pdfrwt>
<pdfrwt beam="2">  1       21 0.94285283E-01 0.12879176E+03</pdfrwt>
<totfact> 0.11174918E+05</totfact>
</mgrwt>
</event>
<event>
 6    1  0.4271609E-002  0.1286779E+03  0.7546771E-02  0.1229431E+00
         21   -1    0    0  504  502  0.00000000000E+00  0.00000000000E+00  0.79807473537E+02  0.79807473537E+02  0.00000000000E+00 0. -1.
         21   -1    0    0  502  503 -0.00000000000E+00 -0.00000000000E+00 -0.90158288376E+02  0.90158288376E+02  0.00000000000E+00 0. -1.
         25    2    1    2    0    0  0.30547174022E+02  0.60932072545E-01  0.15941643934E+02  0.12966158171E+03  0.12499942483E+03 0.  0.
          5    1    3    3  501    0  0.78123785231E+02 -0.16003173315E+01  0.23186535254E+02  0.81507743506E+02  0.10000000000E+00 0. -1.
         -5    1    3    3    0  501 -0.47576611209E+02  0.16612494040E+01 -0.72448913200E+01  0.48153838206E+02  0.10000000000E+00 0. -1.
         21    1    1    2  504  503 -0.30547174022E+02 -0.60932072545E-01 -0.26292458773E+02  0.40304180202E+02  0.00000000000E+00 0. -1.
<mgrwt>
<rscale>  1 0.12867785E+03</rscale>
<asrwt>0</asrwt>
<pdfrwt beam="1">  1       21 0.12278073E-01 0.12867785E+03</pdfrwt>
<pdfrwt beam="2">  1       21 0.13870506E-01 0.12867785E+03</pdfrwt>
<totfact> 0.25253533E+06</totfact>
</mgrwt>
</event>
<event>
 6    1  0.4271609E-002  0.1262949E+03  0.7546771E-02  0.1233059E+00
         21   -1    0    0  503  502  0.00000000000E+00  0.00000000000E+00  0.16722082867E+02  0.16722082867E+02  0.00000000000E+00 0. -1.
         21   -1    0    0  504  503 -0.00000000000E+00 -0.00000000000E+00 -0.39780576490E+03  0.39780576490E+03  0.00000000000E+00 0.  1.
         25    2    1    2    0    0  0.17910353634E+02  0.21710998334E+01 -0.23019602466E+03  0.26256541955E+03  0.12499958133E+03 0.  0.
          5    1    3    3  501    0 -0.75308486918E+00 -0.45224825534E+02 -0.26126677884E+02  0.52234713349E+02  0.10000000000E+00 0.  1.
         -5    1    3    3    0  501  0.18663438503E+02  0.47395925367E+02 -0.20406934678E+03  0.21033070620E+03  0.10000000000E+00 0.  1.
         21    1    1    2  504  502 -0.17910353634E+02 -0.21710998334E+01 -0.15088765738E+03  0.15196242822E+03  0.00000000000E+00 0.  1.
<mgrwt>
<rscale>  1 0.12629485E+03</rscale>
<asrwt>0</asrwt>
<pdfrwt beam="1">  1       21 0.25726281E-02 0.12629485E+03</pdfrwt>
<pdfrwt beam="2">  1       21 0.61200887E-01 0.12629485E+03</pdfrwt>
<totfact> 0.20161145E+06</totfact>
</mgrwt>
</event>
<event>
 6    1  0.4271609E-002  0.1277617E+03  0.7546771E-02  0.1230815E+00
         21   -1    0    0  503  502  0.00000000000E+00  0.00000000000E+00  0.78819708700E+03  0.78819708700E+03  0.00000000000E+00 0.  1.
         21   -1    0    0  504  503 -0.00000000000E+00 -0.00000000000E+00 -0.47054584102E+02  0.47054584102E+02  0.00000000000E+00 0. -1.
         25    2    1    2    0    0 -0.24437675724E+02  0.99991505254E+01  0.77882744742E+03  0.78923712938E+03  0.12500348209E+03 0.  0.
          5    1    3    3  501    0 -0.64886279372E+02 -0.28252902518E+02  0.49113486314E+03  0.49620753676E+03  0.10000000000E+00 0.  1.
         -5    1    3    3    0  501  0.40448603648E+02  0.38252053044E+02  0.28769258429E+03  0.29302959262E+03  0.10000000000E+00 0.  1.
         21    1    1    2  504  502  0.24437675724E+02 -0.99991505254E+01 -0.37684944523E+02  0.46014541720E+02  0.00000000000E+00 0. -1.
<mgrwt>
<rscale>  1 0.12776171E+03</rscale>
<asrwt>0</asrwt>
<pdfrwt beam="1">  1       21 0.12126108E+00 0.12776171E+03</pdfrwt>
<pdfrwt beam="2">  1       21 0.72391673E-02 0.12776171E+03</pdfrwt>
<totfact> 0.75841316E+04</totfact>
</mgrwt>
</event>
<event>
 6    1  0.4271609E-002  0.2042859E+03  0.7546771E-02  0.1146173E+00
         21   -1    0    0  503  502  0.00000000000E+00  0.00000000000E+00  0.49482960265E+03  0.49482960265E+03  0.00000000000E+00 0.  1.
         21   -1    0    0  504  503 -0.00000000000E+00 -0.00000000000E+00 -0.40101164575E+03  0.40101164575E+03  0.00000000000E+00 0. -1.
         25    2    1    2    0    0  0.54884345551E+02 -0.15197042279E+03  0.45577174947E+03  0.49946030948E+03  0.12500164936E+03 0.  0.
          5    1    3    3  501    0  0.39179302120E+02 -0.92894950781E+02  0.11366334819E+03  0.15193372343E+03  0.10000000000E+00 0.  1.
         -5    1    3    3    0  501  0.15705043431E+02 -0.59075472014E+02  0.34210840128E+03  0.34752658605E+03  0.10000000000E+00 0.  1.
         21    1    1    2  504  502 -0.54884345551E+02  0.15197042279E+03 -0.36195379256E+03  0.39638093892E+03  0.00000000000E+00 0. -1.
<mgrwt>
<rscale>  1 0.20428586E+03</rscale>
<asrwt>0</asrwt>
<pdfrwt beam="1">  1       21 0.76127632E-01 0.20428586E+03</pdfrwt>
<pdfrwt beam="2">  1       21 0.61694099E-01 0.20428586E+03</pdfrwt>
<totfact> 0.37174244E+03</totfact>
</mgrwt>
</event>
<event>
 6    1  0.4271609E-002  0.1270615E+03  0.7546771E-02  0.1231882E+00
         21   -1    0    0  504  502  0.00000000000E+00  0.00000000000E+00  0.36386053909E+03  0.36386053909E+03  0.00000000000E+00 0.  1.
         21   -1    0    0  502  503 -0.00000000000E+00 -0.00000000000E+00 -0.15433277243E+02  0.15433277243E+02  0.00000000000E+00 0.  1.
         25    2    1    2    0    0  0.20005559220E+01  0.22698657449E+02  0.29793633285E+03  0.32389918496E+03  0.12500156923E+03 0.  0.
          5    1    3    3  501    0  0.45959031045E+02 -0.28357795882E+02  0.86361667241E+02  0.10185649066E+03  0.10000000000E+00 0. -1.
         -5    1    3    3    0  501 -0.43958475123E+02  0.51056453331E+02  0.21157466561E+03  0.22204269430E+03  0.10000000000E+00 0. -1.
         21    1    1    2  504  503 -0.20005559220E+01 -0.22698657449E+02  0.50490928992E+02  0.55394631369E+02  0.00000000000E+00 0.  1.
<mgrwt>
<rscale>  1 0.12706150E+03</rscale>
<asrwt>0</asrwt>
<pdfrwt beam="1">  1       21 0.55978538E-01 0.12706150E+03</pdfrwt>
<pdfrwt beam="2">  1       21 0.23743506E-02 0.12706150E+03</pdfrwt>
<totfact> 0.27740421E+06</totfact>
</mgrwt>
</event>
<event>
 6    1  0.4271609E-002  0.1295669E+03  0.7546771E-02  0.1228100E+00
         21   -1    0    0  503  502  0.00000000000E+00  0.00000000000E+00  0.42121021151E+03  0.42121021151E+03  0.00000000000E+00 0.  1.
         21   -1    0    0  504  503 -0.00000000000E+00 -0.00000000000E+00 -0.17310842089E+02  0.17310842089E+02  0.00000000000E+00 0.  1.
         25    2    1    2    0    0 -0.17561193889E+02 -0.29210537195E+02  0.36212722129E+03  0.38460850058E+03  0.12500369315E+03 0.  0.
          5    1    3    3  501    0 -0.45761793534E+02 -0.17312409166E+02  0.46494783499E+02  0.67495452819E+02  0.10000000000E+00 0. -1.
         -5    1    3    3    0  501  0.28200599646E+02 -0.11898128029E+02  0.31563243779E+03  0.31711304776E+03  0.10000000000E+00 0. -1.
         21    1    1    2  504  502  0.17561193889E+02  0.29210537195E+02  0.41772148125E+02  0.53912553019E+02  0.00000000000E+00 0. -1.
<mgrwt>
<rscale>  1 0.12956687E+03</rscale>
<asrwt>0</asrwt>
<pdfrwt beam="1">  1       21 0.64801563E-01 0.12956687E+03</pdfrwt>
<pdfrwt beam="2">  1       21 0.26632068E-02 0.12956687E+03</pdfrwt>
<totfact> 0.16869025E+06</totfact>
</mgrwt>
</event>
<event>
 6    1  0.4271609E-002  0.1263169E+03  0.7546771E-02  0.1233025E+00
         21   -1    0    0  503  502  0.00000000000E+00  0.00000000000E+00  0.16257005918E+04  0.16257005918E+04  0.00000000000E+00 0.  1.
         21   -1    0    0  504  503 -0.00000000000E+00 -0.00000000000E+00 -0.47947878198E+01  0.47947878198E+01  0.00000000000E+00 0.  1.
         25    2    1    2    0    0 -0.18089534605E+02  0.26771558378E+01  0.15865974123E+04  0.15916178261E+04  0.12498622852E+03 0.  0.
          5    1    3    3  501    0  0.53352499730E+02  0.99235374809E+01  0.73196482846E+03  0.73397376378E+03  0.10000000000E+00 0. -1.
         -5    1    3    3    0  501 -0.71442034335E+02 -0.72463816432E+01  0.85463258380E+03  0.85764406231E+03  0.10000000000E+00 0. -1.
         21    1    1    2  504  502  0.18089534605E+02 -0.26771558378E+01  0.34308391694E+02  0.38877553501E+02  0.00000000000E+00 0.  1.
<mgrwt>
<rscale>  1 0.12631689E+03</rscale>
<asrwt>0</asrwt>
<pdfrwt beam="1">  1       21 0.25010734E+00 0.12631689E+03</pdfrwt>
<pdfrwt beam="2">  1       21 0.73766096E-03 0.12631689E+03</pdfrwt>
<totfact> 0.41889813E+05</totfact>
</mgrwt>
</event>
<event>
 6    1  0.4271609E-002  0.1264844E+03  0.7546771E-02  0.1232768E+00
         21   -1    0    0  503  502  0.00000000000E+00  0.00000000000E+00  0.37763813252E+03  0.37763813252E+03  0.00000000000E+00 0. -1.
         21   -1    0    0  504  503 -0.00000000000E+00 -0.00000000000E+00 -0.21183773779E+03  0.21183773779E+03  0.00000000000E+00 0.  1.
         25    2    1    2    0    0  0.12384234818E+02 -0.14858674640E+02  0.36656923993E+03  0.38777738572E+03  0.12499657488E+03 0.  0.
          5    1    3    3  501    0 -0.30551054313E+02  0.25787375738E+01  0.32208382274E+03  0.32353982086E+03  0.10000000000E+00 0.  1.
         -5    1    3    3    0  501  0.42935289132E+02 -0.17437412214E+02  0.44485417185E+02  0.64237564864E+02  0.10000000000E+00 0.  1.
         21    1    1    2  504  502 -0.12384234818E+02  0.14858674640E+02 -0.20076884520E+03  0.20169848459E+03  0.00000000000E+00 0.  1.
<mgrwt>
<rscale>  1 0.12648436E+03</rscale>
<asrwt>0</asrwt>
<pdfrwt beam="1">  1       21 0.58098174E-01 0.12648436E+03</pdfrwt>
<pdfrwt beam="2">  1       21 0.32590421E-01 0.12648436E+03</pdfrwt>
<totfact> 0.26194323E+04</totfact>
</mgrwt>
</event>
<event>
 6    1  0.4271609E-002  0.1266581E+03  0.7546771E-02  0.1232501E+00
         21   -1    0    0  503  502  0.00000000000E+00  0.00000000000E+00  0.79624952861E+03  0.79624952861E+03  0.00000000000E+00 0. -1.
         21   -1    0    0  504  503 -0.00000000000E+00 -0.00000000000E+00 -0.82608591193E+01  0.82608591193E+01  0.00000000000E+00 0.  1.
         25    2    1    2    0    0 -0.13995413485E+02  0.14890675634E+02  0.75610377189E+03  0.76663888770E+03  0.12499866578E+03 0.  0.
          5    1    3    3  501    0  0.27781793819E+02  0.20245515615E+02  0.66903620499E+03  0.66991877310E+03  0.10000000000E+00 0. -1.
         -5    1    3    3    0  501 -0.41777207304E+02 -0.53548399809E+01  0.87067566904E+02  0.96720114598E+02  0.10000000000E+00 0. -1.
         21    1    1    2  504  502  0.13995413485E+02 -0.14890675634E+02  0.31884897593E+02  0.37871500023E+02  0.00000000000E+00 0.  1.
<mgrwt>
<rscale>  1 0.12665808E+03</rscale>
<asrwt>0</asrwt>
<pdfrwt beam="1">  1       21 0.12249987E+00 0.12665808E+03</pdfrwt>
<pdfrwt beam="2">  1       21 0.12709020E-02 0.12665808E+03</pdfrwt>
<totfact> 0.12913527E+06</totfact>
</mgrwt>
</event>
<event>
 6    1  0.4271609E-002  0.1270433E+03  0.7546771E-02  0.1231910E+00
         21   -1    0    0  503  502  0.00000000000E+00  0.00000000000E+00  0.37933738512E+03  0.37933738512E+03  0.00000000000E+00 0.  1.
         21   -1    0    0  504  503 -0.00000000000E+00 -0.00000000000E+00 -0.59571338221E+02  0.59571338221E+02  0.00000000000E+00 0. -1.
         25    2    1    2    0    0 -0.82325652945E+01  0.21163247539E+02  0.36598745510E+03  0.38741040538E+03  0.12499738689E+03 0.  0.
          5    1    3    3  501    0  0.48822393566E+02 -0.52669390507E+01  0.74570531459E+02  0.89286846303E+02  0.10000000000E+00 0. -1.
         -5    1    3    3    0  501 -0.57054958861E+02  0.26430186590E+02  0.29141692364E+03  0.29812355908E+03  0.10000000000E+00 0. -1.
         21    1    1    2  504  502  0.82325652945E+01 -0.21163247539E+02 -0.46221408195E+02  0.51498317965E+02  0.00000000000E+00 0. -1.
<mgrwt>
<rscale>  1 0.12704332E+03</rscale>
<asrwt>0</asrwt>
<pdfrwt beam="1">  1       21 0.58359596E-01 0.12704332E+03</pdfrwt>
<pdfrwt beam="2">  1       21 0.91648215E-02 0.12704332E+03</pdfrwt>
<totfact> 0.26431227E+05</totfact>
</mgrwt>
</event>
<event>
 6    1  0.4271609E-002  0.1283224E+03  0.7546771E-02  0.1229966E+00
         21   -1    0    0  503  502  0.00000000000E+00  0.00000000000E+00  0.55646186396E+03  0.55646186396E+03  0.00000000000E+00 0. -1.
         21   -1    0    0  504  503 -0.00000000000E+00 -0.00000000000E+00 -0.14580837864E+02  0.14580837864E+02  0.00000000000E+00 0. -1.
         25    2    1    2    0    0 -0.19507780338E+02 -0.21505210308E+02  0.51736634567E+03  0.53304273972E+03  0.12499439653E+03 0.  0.
          5    1    3    3  501    0 -0.84158271449E+01  0.41400015870E+02  0.74929827475E+02  0.86019047344E+02  0.10000000000E+00 0.  1.
         -5    1    3    3    0  501 -0.11091953193E+02 -0.62905226179E+02  0.44243651820E+03  0.44702369237E+03  0.10000000000E+00 0.  1.
         21    1    1    2  504  502  0.19507780338E+02  0.21505210308E+02  0.24514680425E+02  0.37999962111E+02  0.00000000000E+00 0. -1.
<mgrwt>
<rscale>  1 0.12832235E+03</rscale>
<asrwt>0</asrwt>
<pdfrwt beam="1">  1       21 0.85609501E-01 0.12832235E+03</pdfrwt>
<pdfrwt beam="2">  1       21 0.22432063E-02 0.12832235E+03</pdfrwt>
<totfact> 0.12064527E+06</totfact>
</mgrwt>
</event>
<event>
 6    1  0.4271609E-002  0.1260148E+03  0.7546771E-02  0.1233492E+00
         21   -1    0    0  503  502  0.00000000000E+00  0.00000000000E+00  0.46541250065E+02  0.46541250065E+02  0.00000000000E+00 0. -1.
         21   -1    0    0  504  503 -0.00000000000E+00 -0.00000000000E+00 -0.53794302518E+03  0.53794302518E+03  0.00000000000E+00 0.  1.
         25    2    1    2    0    0 -0.45442223892E+01 -0.15276645692E+02 -0.39156460824E+02  0.13195819847E+03  0.12500284740E+03 0.  0.
          5    1    3    3  501    0 -0.13609395763E+02 -0.69253315140E+02 -0.28936367407E+02  0.76279490492E+02  0.10000000000E+00 0.  1.
         -5    1    3    3    0  501  0.90651733736E+01  0.53976669448E+02 -0.10220093417E+02  0.55678707981E+02  0.10000000000E+00 0.  1.
         21    1    1    2  504  502  0.45442223892E+01  0.15276645692E+02 -0.45224531430E+03  0.45252607678E+03  0.00000000000E+00 0.  1.
<mgrwt>
<rscale>  1 0.12601483E+03</rscale>
<asrwt>0</asrwt>
<pdfrwt beam="1">  1       21 0.71601922E-02 0.12601483E+03</pdfrwt>
<pdfrwt beam="2">  1       21 0.82760467E-01 0.12601483E+03</pdfrwt>
<totfact> 0.18912897E+05</totfact>
</mgrwt>
</event>
<event>
 6    1  0.4271609E-002  0.1489849E+03  0.7546771E-02  0.1201726E+00
         21   -1    0    0  504  502  0.00000000000E+00  0.00000000000E+00  0.41647601342E+03  0.41647601342E+03  0.00000000000E+00 0. -1.
         21   -1    0    0  502  503 -0.00000000000E+00 -0.00000000000E+00 -0.58145486538E+02  0.58145486538E+02  0.00000000000E+00 0.  1.
         25    2    1    2    0    0 -0.22298850126E+02 -0.77940905647E+02  0.36404600441E+03  0.39335225502E+03  0.12499791883E+03 0.  0.
          5    1    3    3  501    0  0.44653843415E+02  0.15828417161E+01  0.12209385865E+03  0.13001304334E+03  0.10000000000E+00 0. -1.
         -5    1    3    3    0  501 -0.66952693541E+02 -0.79523747363E+02  0.24195214576E+03  0.26333921168E+03  0.10000000000E+00 0. -1.
         21    1    1    2  504  503  0.22298850126E+02  0.77940905647E+02 -0.57154775263E+01  0.81269244942E+02  0.00000000000E+00 0.  1.
<mgrwt>
<rscale>  1 0.14898491E+03</rscale>
<asrwt>0</asrwt>
<pdfrwt beam="1">  1       21 0.64073231E-01 0.14898491E+03</pdfrwt>
<pdfrwt beam="2">  1       21 0.89454597E-02 0.14898491E+03</pdfrwt>
<totfact> 0.22471259E+05</totfact>
</mgrwt>
</event>
<event>
 6    1  0.4271609E-002  0.1439945E+03  0.7546771E-02  0.1208053E+00
         21   -1    0    0  503  502  0.00000000000E+00  0.00000000000E+00  0.42636105220E+02  0.42636105220E+02  0.00000000000E+00 0. -1.
         21   -1    0    0  504  503 -0.00000000000E+00 -0.00000000000E+00 -0.11146919358E+04  0.11146919358E+04  0.00000000000E+00 0.  1.
         25    2    1    2    0    0  0.70931566409E+02  0.88925786347E+01 -0.84030543561E+02  0.16671997884E+03  0.12499621604E+03 0.  0.
          5    1    3    3  501    0 -0.27578019915E+02  0.16802587201E+02 -0.54892440750E+02  0.63687237109E+02  0.10000000000E+00 0.  1.
         -5    1    3    3    0  501  0.98509586323E+02 -0.79100085659E+01 -0.29138102810E+02  0.10303274173E+03  0.10000000000E+00 0.  1.
         21    1    1    2  504  502 -0.70931566409E+02 -0.88925786347E+01 -0.98802528701E+03  0.99060806217E+03  0.00000000000E+00 0.  1.
<mgrwt>
<rscale>  1 0.14399451E+03</rscale>
<asrwt>0</asrwt>
<pdfrwt beam="1">  1       21 0.65594005E-02 0.14399451E+03</pdfrwt>
<pdfrwt beam="2">  1       21 0.17149108E+00 0.14399451E+03</pdfrwt>
<totfact> 0.36426543E+04</totfact>
</mgrwt>
</event>
<event>
 6    1  0.4271609E-002  0.1309587E+03  0.7546771E-02  0.1226040E+00
         21   -1    0    0  504  502  0.00000000000E+00  0.00000000000E+00  0.47832606974E+02  0.47832606974E+02  0.00000000000E+00 0.  1.
         21   -1    0    0  502  503 -0.00000000000E+00 -0.00000000000E+00 -0.15232005819E+03  0.15232005819E+03  0.00000000000E+00 0.  1.
         25    2    1    2    0    0  0.38915830253E+02 -0.32616514817E+01 -0.72604886513E+02  0.14973859821E+03  0.12500039214E+03 0.  0.
          5    1    3    3  501    0 -0.21962206080E+02 -0.49484776043E+02 -0.24512584084E+02  0.59430281291E+02  0.10000000000E+00 0. -1.
         -5    1    3    3    0  501  0.60878036333E+02  0.46223124561E+02 -0.48092302429E+02  0.90308316920E+02  0.10000000000E+00 0. -1.
         21    1    1    2  504  503 -0.38915830253E+02  0.32616514817E+01 -0.31882564701E+02  0.50414066951E+02  0.00000000000E+00 0.  1.
<mgrwt>
<rscale>  1 0.13095869E+03</rscale>
<asrwt>0</asrwt>
<pdfrwt beam="1">  1       21 0.73588625E-02 0.13095869E+03</pdfrwt>
<pdfrwt beam="2">  1       21 0.23433855E-01 0.13095869E+03</pdfrwt>
<totfact> 0.23602888E+06</totfact>
</mgrwt>
</event>
<event>
 6    1  0.4271609E-002  0.1269737E+03  0.7546771E-02  0.1232017E+00
         21   -1    0    0  504  502  0.00000000000E+00  0.00000000000E+00  0.11533911994E+03  0.11533911994E+03  0.00000000000E+00 0. -1.
         21   -1    0    0  502  503 -0.00000000000E+00 -0.00000000000E+00 -0.80190031867E+02  0.80190031867E+02  0.00000000000E+00 0. -1.
         25    2    1    2    0    0  0.18880561842E+02  0.11917373070E+02  0.76712851294E+02  0.14834816188E+03  0.12499526465E+03 0.  0.
          5    1    3    3  501    0 -0.35853236287E+02  0.30142121744E+02  0.77613931474E+02  0.90652823532E+02  0.10000000000E+00 0.  1.
         -5    1    3    3    0  501  0.54733798129E+02 -0.18224748674E+02 -0.90108017991E+00  0.57695338350E+02  0.10000000000E+00 0.  1.
         21    1    1    2  504  503 -0.18880561842E+02 -0.11917373070E+02 -0.41563763226E+02  0.47180989920E+02  0.00000000000E+00 0.  1.
<mgrwt>
<rscale>  1 0.12697368E+03</rscale>
<asrwt>0</asrwt>
<pdfrwt beam="1">  1       21 0.17744480E-01 0.12697368E+03</pdfrwt>
<pdfrwt beam="2">  1       21 0.12336928E-01 0.12697368E+03</pdfrwt>
<totfact> 0.16030753E+06</totfact>
</mgrwt>
</event>
<event>
 6    1  0.4271609E-002  0.1286861E+03  0.7546771E-02  0.1229418E+00
         21   -1    0    0  504  502  0.00000000000E+00  0.00000000000E+00  0.74076652117E+02  0.74076652117E+02  0.00000000000E+00 0.  1.
         21   -1    0    0  502  503 -0.00000000000E+00 -0.00000000000E+00 -0.91298047951E+02  0.91298047951E+02  0.00000000000E+00 0.  1.
         25    2    1    2    0    0 -0.22014599925E+02 -0.21218675317E+02  0.29930692559E+01  0.12872092276E+03  0.12500097080E+03 0.  0.
          5    1    3    3  501    0 -0.43400008928E+02  0.35919791903E+02  0.27847157000E+02  0.62843188798E+02  0.10000000000E+00 0. -1.
         -5    1    3    3    0  501  0.21385409003E+02 -0.57138467219E+02 -0.24854087744E+02  0.65877733962E+02  0.10000000000E+00 0. -1.
         21    1    1    2  504  503  0.22014599925E+02  0.21218675317E+02 -0.20214465091E+02  0.36653777308E+02  0.00000000000E+00 0.  1.
<mgrwt>
<rscale>  1 0.12868612E+03</rscale>
<asrwt>0</asrwt>
<pdfrwt beam="1">  1       21 0.11396408E-01 0.12868612E+03</pdfrwt>
<pdfrwt beam="2">  1       21 0.14045853E-01 0.12868612E+03</pdfrwt>
<totfact> 0.28171565E+06</totfact>
</mgrwt>
</event>
<event>
 6    1  0.4271609E-002  0.1275422E+03  0.7546771E-02  0.1231149E+00
         21   -1    0    0  504  502  0.00000000000E+00  0.00000000000E+00  0.90981584394E+02  0.90981584394E+02  0.00000000000E+00 0. -1.
         21   -1    0    0  502  503 -0.00000000000E+00 -0.00000000000E+00 -0.65739764597E+02  0.65739764597E+02  0.00000000000E+00 0. -1.
         25    2    1    2    0    0 -0.15297232593E+01 -0.25562225712E+02  0.29112256749E+02  0.13082255136E+03  0.12494498395E+03 0.  0.
          5    1    3    3  501    0  0.17958929900E+02 -0.49596864469E+02  0.64821657373E+02  0.83571702106E+02  0.10000000000E+00 0.  1.
         -5    1    3    3    0  501 -0.19488653159E+02  0.24034638757E+02 -0.35709400624E+02  0.47250849252E+02  0.10000000000E+00 0.  1.
         21    1    1    2  504  503  0.15297232593E+01  0.25562225712E+02 -0.38704369515E+01  0.25898797633E+02  0.00000000000E+00 0. -1.
<mgrwt>
<rscale>  1 0.12754221E+03</rscale>
<asrwt>0</asrwt>
<pdfrwt beam="1">  1       21 0.13997167E-01 0.12754221E+03</pdfrwt>
<pdfrwt beam="2">  1       21 0.10113810E-01 0.12754221E+03</pdfrwt>
<totfact> 0.34953265E+06</totfact>
</mgrwt>
</event>
<event>
 6    1  0.4271609E-002  0.1425488E+03  0.7546771E-02  0.1209940E+00
         21   -1    0    0  503  502  0.00000000000E+00  0.00000000000E+00  0.17319418761E+03  0.17319418761E+03  0.00000000000E+00 0.  1.
         21   -1    0    0  504  503 -0.00000000000E+00 -0.00000000000E+00 -0.20725027961E+03  0.20725027961E+03  0.00000000000E+00 0.  1.
         25    2    1    2    0    0  0.22891984739E+02  0.64549196599E+02  0.13605981277E+03  0.19705945473E+03  0.12501805589E+03 0.  0.
          5    1    3    3  501    0 -0.11686390843E+02  0.58540122635E+02  0.14832048729E+03  0.15988275279E+03  0.10000000000E+00 0. -1.
         -5    1    3    3    0  501  0.34578375582E+02  0.60090739635E+01 -0.12260674514E+02  0.37176701943E+02  0.10000000000E+00 0. -1.
         21    1    1    2  504  502 -0.22891984739E+02 -0.64549196599E+02 -0.17011590478E+03  0.18338501249E+03  0.00000000000E+00 0.  1.
<mgrwt>
<rscale>  1 0.14254878E+03</rscale>
<asrwt>0</asrwt>
<pdfrwt beam="1">  1       21 0.26645260E-01 0.14254878E+03</pdfrwt>
<pdfrwt beam="2">  1       21 0.31884658E-01 0.14254878E+03</pdfrwt>
<totfact> 0.12900715E+05</totfact>
</mgrwt>
</event>
<event>
 6    1  0.4271609E-002  0.1258902E+03  0.7546771E-02  0.1233685E+00
         21   -1    0    0  503  502  0.00000000000E+00  0.00000000000E+00  0.58421389204E+03  0.58421389204E+03  0.00000000000E+00 0.  1.
         21   -1    0    0  504  503 -0.00000000000E+00 -0.00000000000E+00 -0.35023199435E+02  0.35023199435E+02  0.00000000000E+00 0.  1.
         25    2    1    2    0    0 -0.11247351098E+02 -0.10006829190E+02  0.57540064897E+03  0.58901125237E+03  0.12498683548E+03 0.  0.
          5    1    3    3  501    0 -0.13085238088E+02  0.21564033956E+02  0.54352347193E+03  0.54410845018E+03  0.10000000000E+00 0. -1.
         -5    1    3    3    0  501  0.18378869897E+01 -0.31570863146E+02  0.31877177040E+02  0.44902802189E+02  0.10000000000E+00 0. -1.
         21    1    1    2  504  502  0.11247351098E+02  0.10006829190E+02 -0.26209956365E+02  0.30225839108E+02  0.00000000000E+00 0.  1.
<mgrwt>
<rscale>  1 0.12589022E+03</rscale>
<asrwt>0</asrwt>
<pdfrwt beam="1">  1       21 0.89879053E-01 0.12589022E+03</pdfrwt>
<pdfrwt beam="2">  1       21 0.53881849E-02 0.12589022E+03</pdfrwt>
<totfact> 0.25425914E+05</totfact>
</mgrwt>
</event>
<event>
 6    1  0.4271609E-002  0.1261473E+03  0.7546771E-02  0.1233287E+00
         21   -1    0    0  504  502  0.00000000000E+00  0.00000000000E+00  0.21774568423E+03  0.21774568423E+03  0.00000000000E+00 0.  1.
         21   -1    0    0  502  503 -0.00000000000E+00 -0.00000000000E+00 -0.24870104293E+02  0.24870104293E+02  0.00000000000E+00 0.  1.
         25    2    1    2    0    0  0.76116224691E+01  0.15185619138E+02  0.18494302266E+03  0.22386838096E+03  0.12499836215E+03 0.  0.
          5    1    3    3  501    0 -0.14046400651E+02  0.42978404931E+02  0.18308338503E+03  0.18858414709E+03  0.10000000000E+00 0. -1.
         -5    1    3    3    0  501  0.21658023120E+02 -0.27792785793E+02  0.18596376306E+01  0.35284233869E+02  0.10000000000E+00 0. -1.
         21    1    1    2  504  503 -0.76116224691E+01 -0.15185619138E+02  0.79325572773E+01  0.18747407559E+02  0.00000000000E+00 0.  1.
<mgrwt>
<rscale>  1 0.12614726E+03</rscale>
<asrwt>0</asrwt>
<pdfrwt beam="1">  1       21 0.33499335E-01 0.12614726E+03</pdfrwt>
<pdfrwt beam="2">  1       21 0.38261700E-02 0.12614726E+03</pdfrwt>
<totfact> 0.35808102E+06</totfact>
</mgrwt>
</event>
<event>
 6    1  0.4271609E-002  0.1379990E+03  0.7546771E-02  0.1216047E+00
         21   -1    0    0  503  502  0.00000000000E+00  0.00000000000E+00  0.16248902842E+03  0.16248902842E+03  0.00000000000E+00 0. -1.
         21   -1    0    0  504  503 -0.00000000000E+00 -0.00000000000E+00 -0.68648812997E+02  0.68648812997E+02  0.00000000000E+00 0. -1.
         25    2    1    2    0    0  0.21656539418E+02  0.54312059162E+02  0.10267248154E+03  0.17200397299E+03  0.12499969116E+03 0.  0.
          5    1    3    3  501    0 -0.50522785888E+02  0.81468902129E+01  0.49303539583E+02  0.71061752930E+02  0.10000000000E+00 0.  1.
         -5    1    3    3    0  501  0.72179325306E+02  0.46165168949E+02  0.53368941953E+02  0.10094222006E+03  0.10000000000E+00 0.  1.
         21    1    1    2  504  502 -0.21656539418E+02 -0.54312059162E+02 -0.88322661160E+01  0.59133868423E+02  0.00000000000E+00 0. -1.
<mgrwt>
<rscale>  1 0.13799902E+03</rscale>
<asrwt>0</asrwt>
<pdfrwt beam="1">  1       21 0.24998312E-01 0.13799902E+03</pdfrwt>
<pdfrwt beam="2">  1       21 0.10561356E-01 0.13799902E+03</pdfrwt>
<totfact> 0.11167011E+06</totfact>
</mgrwt>
</event>
<event>
 6    1  0.4271609E-002  0.1259730E+03  0.7546771E-02  0.1233556E+00
         21   -1    0    0  503  502  0.00000000000E+00  0.00000000000E+00  0.75796966647E+03  0.75796966647E+03  0.00000000000E+00 0. -1.
         21   -1    0    0  504  503 -0.00000000000E+00 -0.00000000000E+00 -0.66165918755E+01  0.66165918755E+01  0.00000000000E+00 0. -1.
         25    2    1    2    0    0  0.95562784221E+01  0.12383541687E+02  0.66417130811E+03  0.67601236281E+03  0.12499805439E+03 0.  0.
          5    1    3    3  501    0 -0.29892644223E+02  0.55653703368E+02  0.25690072268E+03  0.26455414605E+03  0.10000000000E+00 0.  1.
         -5    1    3    3    0  501  0.39448922645E+02 -0.43270161681E+02  0.40727058543E+03  0.41145821676E+03  0.10000000000E+00 0.  1.
         21    1    1    2  504  502 -0.95562784221E+01 -0.12383541687E+02  0.87181766489E+02  0.88573895534E+02  0.00000000000E+00 0. -1.
<mgrwt>
<rscale>  1 0.12597297E+03</rscale>
<asrwt>0</asrwt>
<pdfrwt beam="1">  1       21 0.11661065E+00 0.12597297E+03</pdfrwt>
<pdfrwt beam="2">  1       21 0.10179378E-02 0.12597297E+03</pdfrwt>
<totfact> 0.20682484E+06</totfact>
</mgrwt>
</event>
<event>
 6    1  0.4271609E-002  0.1274020E+03  0.7546771E-02  0.1231362E+00
         21   -1    0    0  504  502  0.00000000000E+00  0.00000000000E+00  0.10812766792E+03  0.10812766792E+03  0.00000000000E+00 0.  1.
         21   -1    0    0  502  503 -0.00000000000E+00 -0.00000000000E+00 -0.24769869748E+03  0.24769869748E+03  0.00000000000E+00 0.  1.
         25    2    1    2    0    0  0.24481725091E+02  0.26390370172E+01  0.69625232613E+02  0.14518592416E+03  0.12499984071E+03 0.  0.
          5    1    3    3  501    0  0.13837207442E+02 -0.84925177525E+01  0.10518666646E+03  0.10643230698E+03  0.10000000000E+00 0. -1.
         -5    1    3    3    0  501  0.10644517650E+02  0.11131554770E+02 -0.35561433847E+02  0.38753617184E+02  0.10000000000E+00 0. -1.
         21    1    1    2  504  503 -0.24481725091E+02 -0.26390370172E+01 -0.20919626217E+03  0.21064044124E+03  0.00000000000E+00 0.  1.
<mgrwt>
<rscale>  1 0.12740204E+03</rscale>
<asrwt>0</asrwt>
<pdfrwt beam="1">  1       21 0.16635026E-01 0.12740204E+03</pdfrwt>
<pdfrwt beam="2">  1       21 0.38107491E-01 0.12740204E+03</pdfrwt>
<totfact> 0.21928900E+05</totfact>
</mgrwt>
</event>
<event>
 6    1  0.4271609E-002  0.1320192E+03  0.7546771E-02  0.1224490E+00
         21   -1    0    0  503  502  0.00000000000E+00  0.00000000000E+00  0.16349530066E+02  0.16349530066E+02  0.00000000000E+00 0.  1.
         21   -1    0    0  504  503 -0.00000000000E+00 -0.00000000000E+00 -0.89618282380E+03  0.89618282380E+03  0.00000000000E+00 0.  1.
         25    2    1    2    0    0 -0.29115263932E+02  0.30929859252E+02 -0.26335954580E+03  0.29459689067E+03  0.12499889136E+03 0.  0.
          5    1    3    3  501    0 -0.63949225206E+02  0.50373811167E+02 -0.22491536660E+03  0.23919439038E+03  0.10000000000E+00 0. -1.
         -5    1    3    3    0  501  0.34833961274E+02 -0.19443951915E+02 -0.38444179207E+02  0.55402500296E+02  0.10000000000E+00 0. -1.
         21    1    1    2  504  502  0.29115263932E+02 -0.30929859252E+02 -0.61647374794E+03  0.61793546320E+03  0.00000000000E+00 0.  1.
<mgrwt>
<rscale>  1 0.13201923E+03</rscale>
<asrwt>0</asrwt>
<pdfrwt beam="1">  1       21 0.25153127E-02 0.13201923E+03</pdfrwt>
<pdfrwt beam="2">  1       21 0.13787426E+00 0.13201923E+03</pdfrwt>
<totfact> 0.32089164E+05</totfact>
</mgrwt>
</event>
<event>
 6    1  0.4271609E-002  0.1262396E+03  0.7546771E-02  0.1233145E+00
         21   -1    0    0  504  502  0.00000000000E+00  0.00000000000E+00  0.37510825499E+03  0.37510825499E+03  0.00000000000E+00 0.  1.
         21   -1    0    0  502  503 -0.00000000000E+00 -0.00000000000E+00 -0.39288855327E+02  0.39288855327E+02  0.00000000000E+00 0.  1.
         25    2    1    2    0    0 -0.14389855326E+02 -0.10384242885E+02  0.36165479744E+03  0.38305435654E+03  0.12498618771E+03 0.  0.
          5    1    3    3  501    0  0.17702958385E+02 -0.62174061108E+02  0.16647184438E+03  0.17858301593E+03  0.10000000000E+00 0.  1.
         -5    1    3    3    0  501 -0.32092813711E+02  0.51789818223E+02  0.19518295306E+03  0.20447134060E+03  0.10000000000E+00 0.  1.
         21    1    1    2  504  503  0.14389855326E+02  0.10384242885E+02 -0.25835397770E+02  0.31342753781E+02  0.00000000000E+00 0.  1.
<mgrwt>
<rscale>  1 0.12623964E+03</rscale>
<asrwt>0</asrwt>
<pdfrwt beam="1">  1       21 0.57708960E-01 0.12623964E+03</pdfrwt>
<pdfrwt beam="2">  1       21 0.60444396E-02 0.12623964E+03</pdfrwt>
<totfact> 0.55296075E+05</totfact>
</mgrwt>
</event>
<event>
 6    1  0.4271609E-002  0.1270126E+03  0.7546771E-02  0.1231957E+00
         21   -1    0    0  503  502  0.00000000000E+00  0.00000000000E+00  0.27830231980E+03  0.27830231980E+03  0.00000000000E+00 0. -1.
         21   -1    0    0  504  503 -0.00000000000E+00 -0.00000000000E+00 -0.20565415845E+02  0.20565415845E+02  0.00000000000E+00 0. -1.
         25    2    1    2    0    0 -0.21873441628E+02  0.53866577010E+01  0.23328900500E+03  0.26562373930E+03  0.12499898998E+03 0.  0.
          5    1    3    3  501    0 -0.16511742038E+02  0.62672378750E+02  0.87473255271E+02  0.10886709820E+03  0.10000000000E+00 0. -1.
         -5    1    3    3    0  501 -0.53616995892E+01 -0.57285721049E+02  0.14581574973E+03  0.15675664110E+03  0.10000000000E+00 0. -1.
         21    1    1    2  504  502  0.21873441628E+02 -0.53866577010E+01  0.24447898954E+02  0.33243996347E+02  0.00000000000E+00 0. -1.
<mgrwt>
<rscale>  1 0.12701264E+03</rscale>
<asrwt>0</asrwt>
<pdfrwt beam="1">  1       21 0.42815739E-01 0.12701264E+03</pdfrwt>
<pdfrwt beam="2">  1       21 0.31639103E-02 0.12701264E+03</pdfrwt>
<totfact> 0.30121385E+06</totfact>
</mgrwt>
</event>
<event>
 6    1  0.4271609E-002  0.1314590E+03  0.7546771E-02  0.1225307E+00
         21   -1    0    0  503  502  0.00000000000E+00  0.00000000000E+00  0.14125178137E+03  0.14125178137E+03  0.00000000000E+00 0. -1.
         21   -1    0    0  504  503 -0.00000000000E+00 -0.00000000000E+00 -0.63986589136E+02  0.63986589136E+02  0.00000000000E+00 0. -1.
         25    2    1    2    0    0  0.24887011470E+02 -0.32189764938E+02  0.93617661244E+02  0.16138694466E+03  0.12500374035E+03 0.  0.
          5    1    3    3  501    0  0.60417869244E+02 -0.21195974197E+02  0.37625988083E+01  0.64138564030E+02  0.10000000000E+00 0. -1.
         -5    1    3    3    0  501 -0.35530857773E+02 -0.10993790741E+02  0.89855062435E+02  0.97248380625E+02  0.10000000000E+00 0. -1.
         21    1    1    2  504  502 -0.24887011470E+02  0.32189764938E+02 -0.16352469006E+02  0.43851425853E+02  0.00000000000E+00 0. -1.
<mgrwt>
<rscale>  1 0.13145904E+03</rscale>
<asrwt>0</asrwt>
<pdfrwt beam="1">  1       21 0.21731043E-01 0.13145904E+03</pdfrwt>
<pdfrwt beam="2">  1       21 0.98440906E-02 0.13145904E+03</pdfrwt>
<totfact> 0.16424097E+06</totfact>
</mgrwt>
</event>
<event>
 6    1  0.4271609E-002  0.1332328E+03  0.7546771E-02  0.1222736E+00
         21   -1    0    0  504  502  0.00000000000E+00  0.00000000000E+00  0.73482495535E+01  0.73482495535E+01  0.00000000000E+00 0. -1.
         21   -1    0    0  502  503 -0.00000000000E+00 -0.00000000000E+00 -0.11106898460E+04  0.11106898460E+04  0.00000000000E+00 0. -1.
         25    2    1    2    0    0 -0.62749109219E+01 -0.45669918165E+02 -0.75593216558E+03  0.76758349281E+03  0.12500345410E+03 0.  0.
          5    1    3    3  501    0  0.28964530720E+02 -0.62134368950E+02 -0.22459385694E+03  0.23482341114E+03  0.10000000000E+00 0.  1.
         -5    1    3    3    0  501 -0.35239441642E+02  0.16464450785E+02 -0.53133830865E+03  0.53276008167E+03  0.10000000000E+00 0.  1.
         21    1    1    2  504  503  0.62749109219E+01  0.45669918165E+02 -0.34740943090E+03  0.35045460278E+03  0.00000000000E+00 0. -1.
<mgrwt>
<rscale>  1 0.13323280E+03</rscale>
<asrwt>0</asrwt>
<pdfrwt beam="1">  1       21 0.11305009E-02 0.13323280E+03</pdfrwt>
<pdfrwt beam="2">  1       21 0.17087522E+00 0.13323280E+03</pdfrwt>
<totfact> 0.66022446E+05</totfact>
</mgrwt>
</event>
<event>
 6    1  0.4271609E-002  0.1262191E+03  0.7546771E-02  0.1233176E+00
         21   -1    0    0  504  502  0.00000000000E+00  0.00000000000E+00  0.92801698141E+02  0.92801698141E+02  0.00000000000E+00 0. -1.
         21   -1    0    0  502  503 -0.00000000000E+00 -0.00000000000E+00 -0.56059556420E+02  0.56059556420E+02  0.00000000000E+00 0. -1.
         25    2    1    2    0    0 -0.67843051028E+01  0.16064338477E+02  0.36614815094E+02  0.13142261991E+03  0.12500868199E+03 0.  0.
          5    1    3    3  501    0  0.15047377678E+01 -0.17045152333E+02 -0.42198565756E+02  0.45536034145E+02  0.10000000000E+00 0. -1.
         -5    1    3    3    0  501 -0.82890428707E+01  0.33109490810E+02  0.78813380850E+02  0.85886585765E+02  0.10000000000E+00 0. -1.
         21    1    1    2  504  503  0.67843051028E+01 -0.16064338477E+02  0.12732662798E+00  0.17438634651E+02  0.00000000000E+00 0.  1.
<mgrwt>
<rscale>  1 0.12621910E+03</rscale>
<asrwt>0</asrwt>
<pdfrwt beam="1">  1       21 0.14277184E-01 0.12621910E+03</pdfrwt>
<pdfrwt beam="2">  1       21 0.86245472E-02 0.12621910E+03</pdfrwt>
<totfact> 0.44490621E+06</totfact>
</mgrwt>
</event>
<event>
 6    1  0.4271609E-002  0.1266635E+03  0.7546771E-02  0.1232492E+00
         21   -1    0    0  503  502  0.00000000000E+00  0.00000000000E+00  0.62778159929E+02  0.62778159929E+02  0.00000000000E+00 0. -1.
         21   -1    0    0  504  503 -0.00000000000E+00 -0.00000000000E+00 -0.13833687979E+03  0.13833687979E+03  0.00000000000E+00 0. -1.
         25    2    1    2    0    0  0.42749922176E+01  0.20006935167E+02 -0.40402106187E+01  0.12672787566E+03  0.12500031261E+03 0.  0.
          5    1    3    3  501    0 -0.73656234494E+01  0.24232022540E+02 -0.62255401593E+02  0.67210031637E+02  0.10000000000E+00 0. -1.
         -5    1    3    3    0  501  0.11640615667E+02 -0.42250873738E+01  0.58215190974E+02  0.59517844018E+02  0.10000000000E+00 0. -1.
         21    1    1    2  504  502 -0.42749922176E+01 -0.20006935167E+02 -0.71518509242E+02  0.74387164063E+02  0.00000000000E+00 0. -1.
<mgrwt>
<rscale>  1 0.12666346E+03</rscale>
<asrwt>0</asrwt>
<pdfrwt beam="1">  1       21 0.96581786E-02 0.12666346E+03</pdfrwt>
<pdfrwt beam="2">  1       21 0.21282597E-01 0.12666346E+03</pdfrwt>
<totfact> 0.17636504E+06</totfact>
</mgrwt>
</event>
<event>
 6    1  0.4271609E-002  0.1263912E+03  0.7546771E-02  0.1232911E+00
         21   -1    0    0  504  502  0.00000000000E+00  0.00000000000E+00  0.52903961602E+03  0.52903961602E+03  0.00000000000E+00 0. -1.
         21   -1    0    0  502  503 -0.00000000000E+00 -0.00000000000E+00 -0.23477953797E+02  0.23477953797E+02  0.00000000000E+00 0. -1.
         25    2    1    2    0    0 -0.65378576856E+00 -0.18699594198E+02  0.51588872504E+03  0.53114584819E+03  0.12499853265E+03 0.  0.
          5    1    3    3  501    0 -0.46539411625E+02 -0.35019427107E+02  0.13328627042E+03  0.14545623738E+03  0.10000000000E+00 0. -1.
         -5    1    3    3    0  501  0.45885625856E+02  0.16319832910E+02  0.38260245462E+03  0.38568961081E+03  0.10000000000E+00 0. -1.
         21    1    1    2  504  503  0.65378576856E+00  0.18699594198E+02 -0.10327062817E+02  0.21371721629E+02  0.00000000000E+00 0. -1.
<mgrwt>
<rscale>  1 0.12639120E+03</rscale>
<asrwt>0</asrwt>
<pdfrwt beam="1">  1       21 0.81390701E-01 0.12639120E+03</pdfrwt>
<pdfrwt beam="2">  1       21 0.36119933E-02 0.12639120E+03</pdfrwt>
<totfact> 0.62011934E+05</totfact>
</mgrwt>
</event>
<event>
 6    1  0.4271609E-002  0.1296070E+03  0.7546771E-02  0.1228040E+00
         21   -1    0    0  503  502  0.00000000000E+00  0.00000000000E+00  0.94783963236E+02  0.94783963236E+02  0.00000000000E+00 0. -1.
         21   -1    0    0  504  503 -0.00000000000E+00 -0.00000000000E+00 -0.35442508279E+03  0.35442508279E+03  0.00000000000E+00 0. -1.
         25    2    1    2    0    0 -0.26550821407E+02 -0.21645362762E+02  0.49083389938E+02  0.13858984088E+03  0.12499798790E+03 0.  0.
          5    1    3    3  501    0 -0.46683270976E+02  0.36495537456E+02 -0.98540287004E+00  0.59264095893E+02  0.10000000000E+00 0.  1.
         -5    1    3    3    0  501  0.20132449569E+02 -0.58140900218E+02  0.50068792808E+02  0.79325744983E+02  0.10000000000E+00 0.  1.
         21    1    1    2  504  502  0.26550821407E+02  0.21645362762E+02 -0.30872450949E+03  0.31061920514E+03  0.00000000000E+00 0. -1.
<mgrwt>
<rscale>  1 0.12960696E+03</rscale>
<asrwt>0</asrwt>
<pdfrwt beam="1">  1       21 0.14582148E-01 0.12960696E+03</pdfrwt>
<pdfrwt beam="2">  1       21 0.54526937E-01 0.12960696E+03</pdfrwt>
<totfact> 0.13406645E+05</totfact>
</mgrwt>
</event>
<event>
 6    1  0.4271609E-002  0.1515381E+03  0.7546771E-02  0.1198596E+00
         21   -1    0    0  503  502  0.00000000000E+00  0.00000000000E+00  0.19622174706E+03  0.19622174706E+03  0.00000000000E+00 0.  1.
         21   -1    0    0  504  503 -0.00000000000E+00 -0.00000000000E+00 -0.78065914353E+02  0.78065914353E+02  0.00000000000E+00 0.  1.
         25    2    1    2    0    0 -0.23178628127E+02 -0.82475609770E+02  0.11192521471E+03  0.18839065559E+03  0.12499724164E+03 0.  0.
          5    1    3    3  501    0 -0.60260573194E+02 -0.43021115110E+02  0.11198028727E+03  0.13424510331E+03  0.10000000000E+00 0. -1.
         -5    1    3    3    0  501  0.37081945067E+02 -0.39454494660E+02 -0.55072559070E-01  0.54145552281E+02  0.10000000000E+00 0. -1.
         21    1    1    2  504  502  0.23178628127E+02  0.82475609770E+02  0.62306180047E+01  0.85897005824E+02  0.00000000000E+00 0.  1.
<mgrwt>
<rscale>  1 0.15153807E+03</rscale>
<asrwt>0</asrwt>
<pdfrwt beam="1">  1       21 0.30187961E-01 0.15153807E+03</pdfrwt>
<pdfrwt beam="2">  1       21 0.12010141E-01 0.15153807E+03</pdfrwt>
<totfact> 0.61986207E+05</totfact>
</mgrwt>
</event>
<event>
 6    1  0.4271609E-002  0.1374815E+03  0.7546771E-02  0.1216759E+00
         21   -1    0    0  503  502  0.00000000000E+00  0.00000000000E+00  0.73563349735E+03  0.73563349735E+03  0.00000000000E+00 0. -1.
         21   -1    0    0  504  503 -0.00000000000E+00 -0.00000000000E+00 -0.43319649661E+02  0.43319649661E+02  0.00000000000E+00 0. -1.
         25    2    1    2    0    0 -0.44683152996E+02 -0.35629230540E+02  0.70675907994E+03  0.72000663766E+03  0.12504053328E+03 0.  0.
          5    1    3    3  501    0  0.32285262555E+02 -0.31668547229E+02  0.44056538850E+03  0.44288046537E+03  0.10000000000E+00 0. -1.
         -5    1    3    3    0  501 -0.76968415551E+02 -0.39606833115E+01  0.26619369144E+03  0.27712617229E+03  0.10000000000E+00 0. -1.
         21    1    1    2  504  502  0.44683152996E+02  0.35629230540E+02 -0.14445232248E+02  0.58946509356E+02  0.00000000000E+00 0. -1.
<mgrwt>
<rscale>  1 0.13748149E+03</rscale>
<asrwt>0</asrwt>
<pdfrwt beam="1">  1       21 0.11317437E+00 0.13748149E+03</pdfrwt>
<pdfrwt beam="2">  1       21 0.66645620E-02 0.13748149E+03</pdfrwt>
<totfact> 0.10278244E+05</totfact>
</mgrwt>
</event>
<event>
 6    1  0.4271609E-002  0.1261071E+03  0.7546771E-02  0.1233349E+00
         21   -1    0    0  503  502  0.00000000000E+00  0.00000000000E+00  0.44825609090E+01  0.44825609090E+01  0.00000000000E+00 0. -1.
         21   -1    0    0  504  503 -0.00000000000E+00 -0.00000000000E+00 -0.11467489273E+04  0.11467489273E+04  0.00000000000E+00 0. -1.
         25    2    1    2    0    0 -0.37610065848E+01 -0.16295696116E+02 -0.10380089939E+04  0.10456412681E+04  0.12499318009E+03 0.  0.
          5    1    3    3  501    0  0.77266324018E+01 -0.69344303652E+02 -0.67503091532E+03  0.67862734983E+03  0.10000000000E+00 0.  1.
         -5    1    3    3    0  501 -0.11487638987E+02  0.53048607537E+02 -0.36297807863E+03  0.36701391823E+03  0.10000000000E+00 0.  1.
         21    1    1    2  504  502  0.37610065848E+01  0.16295696116E+02 -0.10425737244E+03  0.10559022015E+03  0.00000000000E+00 0. -1.
<mgrwt>
<rscale>  1 0.12610706E+03</rscale>
<asrwt>0</asrwt>
<pdfrwt beam="1">  1       21 0.68962454E-03 0.12610706E+03</pdfrwt>
<pdfrwt beam="2">  1       21 0.17642297E+00 0.12610706E+03</pdfrwt>
<totfact> 0.13169394E+06</totfact>
</mgrwt>
</event>
<event>
 6    1  0.4271609E-002  0.1284118E+03  0.7546771E-02  0.1229831E+00
         21   -1    0    0  504  502  0.00000000000E+00  0.00000000000E+00  0.21357375625E+03  0.21357375625E+03  0.00000000000E+00 0. -1.
         21   -1    0    0  502  503 -0.00000000000E+00 -0.00000000000E+00 -0.42310015687E+03  0.42310015687E+03  0.00000000000E+00 0.  1.
         25    2    1    2    0    0 -0.27203676117E+02 -0.11149854416E+02  0.19368806186E+03  0.23238903582E+03  0.12500095766E+03 0.  0.
          5    1    3    3  501    0 -0.31231824409E+02 -0.13858134116E+02 -0.42140711340E+01  0.34427360233E+02  0.10000000000E+00 0. -1.
         -5    1    3    3    0  501  0.40281482915E+01  0.27082797001E+01  0.19790213300E+03  0.19796167559E+03  0.10000000000E+00 0. -1.
         21    1    1    2  504  503  0.27203676117E+02  0.11149854416E+02 -0.40321446248E+03  0.40428487729E+03  0.00000000000E+00 0.  1.
<mgrwt>
<rscale>  1 0.12841183E+03</rscale>
<asrwt>0</asrwt>
<pdfrwt beam="1">  1       21 0.32857501E-01 0.12841183E+03</pdfrwt>
<pdfrwt beam="2">  1       21 0.65092331E-01 0.12841183E+03</pdfrwt>
<totfact> 0.20204408E+04</totfact>
</mgrwt>
</event>
<event>
 6    1  0.4271609E-002  0.1281241E+03  0.7546771E-02  0.1230266E+00
         21   -1    0    0  503  502  0.00000000000E+00  0.00000000000E+00  0.33107818847E+03  0.33107818847E+03  0.00000000000E+00 0. -1.
         21   -1    0    0  504  503 -0.00000000000E+00 -0.00000000000E+00 -0.69599674965E+02  0.69599674965E+02  0.00000000000E+00 0. -1.
         25    2    1    2    0    0 -0.20976207191E+02  0.18752560913E+02  0.31508351126E+03  0.34013733492E+03  0.12499651086E+03 0.  0.
          5    1    3    3  501    0  0.11803217429E+02  0.32823906562E+02  0.15048827023E+02  0.37989498265E+02  0.10000000000E+00 0. -1.
         -5    1    3    3    0  501 -0.32779424620E+02 -0.14071345649E+02  0.30003468424E+03  0.30214783665E+03  0.10000000000E+00 0. -1.
         21    1    1    2  504  502  0.20976207191E+02 -0.18752560913E+02 -0.53604997756E+02  0.60540528519E+02  0.00000000000E+00 0. -1.
<mgrwt>
<rscale>  1 0.12812411E+03</rscale>
<asrwt>0</asrwt>
<pdfrwt beam="1">  1       21 0.50935105E-01 0.12812411E+03</pdfrwt>
<pdfrwt beam="2">  1       21 0.10707642E-01 0.12812411E+03</pdfrwt>
<totfact> 0.26755979E+05</totfact>
</mgrwt>
</event>
<event>
 6    1  0.4271609E-002  0.1291015E+03  0.7546771E-02  0.1228795E+00
         21   -1    0    0  503  502  0.00000000000E+00  0.00000000000E+00  0.18472911188E+02  0.18472911188E+02  0.00000000000E+00 0.  1.
         21   -1    0    0  504  503 -0.00000000000E+00 -0.00000000000E+00 -0.47588968790E+03  0.47588968790E+03  0.00000000000E+00 0.  1.
         25    2    1    2    0    0  0.20089036961E+02  0.25248966792E+02 -0.22251340447E+03  0.25725360723E+03  0.12500449405E+03 0.  0.
          5    1    3    3  501    0  0.21451084703E+02  0.66851260338E+02 -0.69924937981E+02  0.99089590752E+02  0.10000000000E+00 0.  1.
         -5    1    3    3    0  501 -0.13620477415E+01 -0.41602293546E+02 -0.15258846649E+03  0.15816401647E+03  0.10000000000E+00 0.  1.
         21    1    1    2  504  502 -0.20089036961E+02 -0.25248966792E+02 -0.23490337225E+03  0.23710899187E+03  0.00000000000E+00 0.  1.
<mgrwt>
<rscale>  1 0.12910152E+03</rscale>
<asrwt>0</asrwt>
<pdfrwt beam="1">  1       21 0.28419868E-02 0.12910152E+03</pdfrwt>
<pdfrwt beam="2">  1       21 0.73213786E-01 0.12910152E+03</pdfrwt>
<totfact> 0.11633357E+06</totfact>
</mgrwt>
</event>
<event>
 6    1  0.4271609E-002  0.1294109E+03  0.7546771E-02  0.1228332E+00
         21   -1    0    0  504  502  0.00000000000E+00  0.00000000000E+00  0.26919047785E+02  0.26919047785E+02  0.00000000000E+00 0. -1.
         21   -1    0    0  502  503 -0.00000000000E+00 -0.00000000000E+00 -0.24682302020E+03  0.24682302020E+03  0.00000000000E+00 0. -1.
         25    2    1    2    0    0  0.26839717045E+01  0.33498165437E+02 -0.17346879939E+03  0.21642229753E+03  0.12497141958E+03 0.  0.
          5    1    3    3  501    0  0.16125074602E+02  0.78684732949E+02 -0.12671287480E+03  0.15002489084E+03  0.10000000000E+00 0. -1.
         -5    1    3    3    0  501 -0.13441102897E+02 -0.45186567513E+02 -0.46755924589E+02  0.66397406687E+02  0.10000000000E+00 0. -1.
         21    1    1    2  504  503 -0.26839717045E+01 -0.33498165437E+02 -0.46435173017E+02  0.57319770453E+02  0.00000000000E+00 0. -1.
<mgrwt>
<rscale>  1 0.12941092E+03</rscale>
<asrwt>0</asrwt>
<pdfrwt beam="1">  1       21 0.41413918E-02 0.12941092E+03</pdfrwt>
<pdfrwt beam="2">  1       21 0.37972774E-01 0.12941092E+03</pdfrwt>
<totfact> 0.24554931E+06</totfact>
</mgrwt>
</event>
<event>
 6    1  0.4271609E-002  0.2048888E+03  0.7546771E-02  0.1145679E+00
         21   -1    0    0  504  502  0.00000000000E+00  0.00000000000E+00  0.30935370629E+02  0.30935370629E+02  0.00000000000E+00 0. -1.
         21   -1    0    0  502  503 -0.00000000000E+00 -0.00000000000E+00 -0.15844451377E+04  0.15844451377E+04  0.00000000000E+00 0. -1.
         25    2    1    2    0    0  0.76352768293E+02 -0.14326492696E+03 -0.38947356007E+03  0.44007847237E+03  0.12499929330E+03 0.  0.
          5    1    3    3  501    0 -0.27109649651E+02 -0.63256929932E+02 -0.90056969386E+02  0.11334301930E+03  0.10000000000E+00 0.  1.
         -5    1    3    3    0  501  0.10346241794E+03 -0.80007997030E+02 -0.29941659068E+03  0.32673545307E+03  0.10000000000E+00 0.  1.
         21    1    1    2  504  503 -0.76352768293E+02  0.14326492696E+03 -0.11640362070E+04  0.11753020360E+04  0.00000000000E+00 0. -1.
<mgrwt>
<rscale>  1 0.20488877E+03</rscale>
<asrwt>0</asrwt>
<pdfrwt beam="1">  1       21 0.47592883E-02 0.20488877E+03</pdfrwt>
<pdfrwt beam="2">  1       21 0.24376076E+00 0.20488877E+03</pdfrwt>
<totfact> 0.20947541E+04</totfact>
</mgrwt>
</event>
<event>
 6    1  0.4271609E-002  0.1305021E+03  0.7546771E-02  0.1226713E+00
         21   -1    0    0  503  502  0.00000000000E+00  0.00000000000E+00  0.12838936583E+04  0.12838936583E+04  0.00000000000E+00 0. -1.
         21   -1    0    0  504  503 -0.00000000000E+00 -0.00000000000E+00 -0.15159040057E+02  0.15159040057E+02  0.00000000000E+00 0. -1.
         25    2    1    2    0    0  0.23183720034E+02  0.29474604692E+02  0.12506134705E+04  0.12574040106E+04  0.12499822434E+03 0.  0.
          5    1    3    3  501    0  0.67515536376E+02 -0.11424959385E+02  0.76513281309E+03  0.76819080248E+03  0.10000000000E+00 0.  1.
         -5    1    3    3    0  501 -0.44331816342E+02  0.40899564077E+02  0.48548065743E+03  0.48921320815E+03  0.10000000000E+00 0.  1.
         21    1    1    2  504  502 -0.23183720034E+02 -0.29474604692E+02  0.18121147748E+02  0.41648687760E+02  0.00000000000E+00 0. -1.
<mgrwt>
<rscale>  1 0.13050208E+03</rscale>
<asrwt>0</asrwt>
<pdfrwt beam="1">  1       21 0.19752202E+00 0.13050208E+03</pdfrwt>
<pdfrwt beam="2">  1       21 0.23321610E-02 0.13050208E+03</pdfrwt>
<totfact> 0.13816817E+05</totfact>
</mgrwt>
</event>
<event>
 6    1  0.4271609E-002  0.1268032E+03  0.7546771E-02  0.1232278E+00
         21   -1    0    0  503  502  0.00000000000E+00  0.00000000000E+00  0.32287037306E+03  0.32287037306E+03  0.00000000000E+00 0. -1.
         21   -1    0    0  504  503 -0.00000000000E+00 -0.00000000000E+00 -0.17027148268E+02  0.17027148268E+02  0.00000000000E+00 0. -1.
         25    2    1    2    0    0  0.18829760250E+02  0.99064680974E+01  0.25521887111E+03  0.28498374194E+03  0.12500545195E+03 0.  0.
          5    1    3    3  501    0 -0.43543754639E+02  0.14826931168E+02  0.40342456834E+02  0.61183496789E+02  0.10000000000E+00 0. -1.
         -5    1    3    3    0  501  0.62373514890E+02 -0.49204630707E+01  0.21487641428E+03  0.22380024515E+03  0.10000000000E+00 0. -1.
         21    1    1    2  504  502 -0.18829760250E+02 -0.99064680974E+01  0.50624353675E+02  0.54913779385E+02  0.00000000000E+00 0.  1.
<mgrwt>
<rscale>  1 0.12680324E+03</rscale>
<asrwt>0</asrwt>
<pdfrwt beam="1">  1       21 0.49672361E-01 0.12680324E+03</pdfrwt>
<pdfrwt beam="2">  1       21 0.26195615E-02 0.12680324E+03</pdfrwt>
<totfact> 0.30307076E+06</totfact>
</mgrwt>
</event>
<event>
 6    1  0.4271609E-002  0.1295872E+03  0.7546771E-02  0.1228070E+00
         21   -1    0    0  503  502  0.00000000000E+00  0.00000000000E+00  0.30305066159E+03  0.30305066159E+03  0.00000000000E+00 0.  1.
         21   -1    0    0  504  503 -0.00000000000E+00 -0.00000000000E+00 -0.22485267089E+02  0.22485267089E+02  0.00000000000E+00 0.  1.
         25    2    1    2    0    0  0.31825396938E+02  0.12465744625E+02  0.20387595608E+03  0.24157450513E+03  0.12499834151E+03 0.  0.
          5    1    3    3  501    0 -0.31277808099E+01 -0.37648507698E+02  0.11141346150E+02  0.39386961532E+02  0.10000000000E+00 0.  1.
         -5    1    3    3    0  501  0.34953177748E+02  0.50114252323E+02  0.19273460993E+03  0.20218754360E+03  0.10000000000E+00 0.  1.
         21    1    1    2  504  502 -0.31825396938E+02 -0.12465744625E+02  0.76689438425E+02  0.83961423554E+02  0.00000000000E+00 0.  1.
<mgrwt>
<rscale>  1 0.12958718E+03</rscale>
<asrwt>0</asrwt>
<pdfrwt beam="1">  1       21 0.46623176E-01 0.12958718E+03</pdfrwt>
<pdfrwt beam="2">  1       21 0.34592721E-02 0.12958718E+03</pdfrwt>
<totfact> 0.21888498E+06</totfact>
</mgrwt>
</event>
<event>
 6    1  0.4271609E-002  0.1259877E+03  0.7546771E-02  0.1233534E+00
         21   -1    0    0  504  502  0.00000000000E+00  0.00000000000E+00  0.24825665790E+03  0.24825665790E+03  0.00000000000E+00 0.  1.
         21   -1    0    0  502  503 -0.00000000000E+00 -0.00000000000E+00 -0.21005390643E+02  0.21005390643E+02  0.00000000000E+00 0.  1.
         25    2    1    2    0    0  0.12875524531E+02  0.94457174075E+01  0.21476254358E+03  0.24898967995E+03  0.12497163633E+03 0.  0.
          5    1    3    3  501    0  0.61903751668E+02  0.23739123286E+02  0.74550804319E+02  0.99766992886E+02  0.10000000000E+00 0.  1.
         -5    1    3    3    0  501 -0.49028227137E+02 -0.14293405878E+02  0.14021173926E+03  0.14922268706E+03  0.10000000000E+00 0.  1.
         21    1    1    2  504  503 -0.12875524531E+02 -0.94457174075E+01  0.12488723677E+02  0.20272368593E+02  0.00000000000E+00 0.  1.
<mgrwt>
<rscale>  1 0.12598774E+03</rscale>
<asrwt>0</asrwt>
<pdfrwt beam="1">  1       21 0.38193330E-01 0.12598774E+03</pdfrwt>
<pdfrwt beam="2">  1       21 0.32315987E-02 0.12598774E+03</pdfrwt>
<totfact> 0.36552077E+06</totfact>
</mgrwt>
</event>
<event>
 6    1  0.4271609E-002  0.1567980E+03  0.7546771E-02  0.1192360E+00
         21   -1    0    0  503  502  0.00000000000E+00  0.00000000000E+00  0.63968461155E+03  0.63968461155E+03  0.00000000000E+00 0. -1.
         21   -1    0    0  504  503 -0.00000000000E+00 -0.00000000000E+00 -0.34880733970E+03  0.34880733970E+03  0.00000000000E+00 0.  1.
         25    2    1    2    0    0  0.11806746191E+01 -0.94652762164E+02  0.62336971068E+03  0.64278721992E+03  0.12500029805E+03 0.  0.
          5    1    3    3  501    0  0.55364278302E+02 -0.11454007307E+02  0.26164989671E+03  0.26768839355E+03  0.10000000000E+00 0. -1.
         -5    1    3    3    0  501 -0.54183603683E+02 -0.83198754858E+02  0.36171981397E+03  0.37509882636E+03  0.10000000000E+00 0. -1.
         21    1    1    2  504  502 -0.11806746191E+01  0.94652762164E+02 -0.33249243884E+03  0.34570473133E+03  0.00000000000E+00 0.  1.
<mgrwt>
<rscale>  1 0.15679800E+03</rscale>
<asrwt>0</asrwt>
<pdfrwt beam="1">  1       21 0.98413018E-01 0.15679800E+03</pdfrwt>
<pdfrwt beam="2">  1       21 0.53662667E-01 0.15679800E+03</pdfrwt>
<totfact> 0.28964782E+03</totfact>
</mgrwt>
</event>
<event>
 6    1  0.4271609E-002  0.1373158E+03  0.7546771E-02  0.1216987E+00
         21   -1    0    0  503  502  0.00000000000E+00  0.00000000000E+00  0.12168149544E+03  0.12168149544E+03  0.00000000000E+00 0.  1.
         21   -1    0    0  504  503 -0.00000000000E+00 -0.00000000000E+00 -0.41581209012E+03  0.41581209012E+03  0.00000000000E+00 0.  1.
         25    2    1    2    0    0  0.46295955592E+02  0.32980222759E+02  0.80100091482E+02  0.15897064429E+03  0.12499852197E+03 0.  0.
          5    1    3    3  501    0  0.63774240764E+02  0.70284818072E+02  0.45871977919E+02  0.10541042545E+03  0.10000000000E+00 0. -1.
         -5    1    3    3    0  501 -0.17478285172E+02 -0.37304595313E+02  0.34228113563E+02  0.53560218839E+02  0.10000000000E+00 0. -1.
         21    1    1    2  504  502 -0.46295955592E+02 -0.32980222759E+02 -0.37423068616E+03  0.37852294126E+03  0.00000000000E+00 0.  1.
<mgrwt>
<rscale>  1 0.13731584E+03</rscale>
<asrwt>0</asrwt>
<pdfrwt beam="1">  1       21 0.18720230E-01 0.13731584E+03</pdfrwt>
<pdfrwt beam="2">  1       21 0.63971091E-01 0.13731584E+03</pdfrwt>
<totfact> 0.60461510E+04</totfact>
</mgrwt>
</event>
<event>
 6    1  0.4271609E-002  0.1289364E+03  0.7546771E-02  0.1229043E+00
         21   -1    0    0  504  502  0.00000000000E+00  0.00000000000E+00  0.12293268452E+02  0.12293268452E+02  0.00000000000E+00 0.  1.
         21   -1    0    0  502  503 -0.00000000000E+00 -0.00000000000E+00 -0.53173834206E+03  0.53173834206E+03  0.00000000000E+00 0.  1.
         25    2    1    2    0    0  0.27456516771E+02  0.15642493688E+02 -0.44096234953E+03  0.45942613846E+03  0.12500414024E+03 0.  0.
          5    1    3    3  501    0 -0.19667371643E+02  0.58834185036E+02 -0.16824127816E+03  0.17931370420E+03  0.10000000000E+00 0.  1.
         -5    1    3    3    0  501  0.47123888413E+02 -0.43191691349E+02 -0.27272107137E+03  0.28011243426E+03  0.10000000000E+00 0.  1.
         21    1    1    2  504  503 -0.27456516771E+02 -0.15642493688E+02 -0.78482724080E+02  0.84605472051E+02  0.00000000000E+00 0.  1.
<mgrwt>
<rscale>  1 0.12893635E+03</rscale>
<asrwt>0</asrwt>
<pdfrwt beam="1">  1       21 0.18912718E-02 0.12893635E+03</pdfrwt>
<pdfrwt beam="2">  1       21 0.81805909E-01 0.12893635E+03</pdfrwt>
<totfact> 0.17608709E+06</totfact>
</mgrwt>
</event>
<event>
 6    1  0.4271609E-002  0.1267087E+03  0.7546771E-02  0.1232423E+00
         21   -1    0    0  504  502  0.00000000000E+00  0.00000000000E+00  0.30619301375E+02  0.30619301375E+02  0.00000000000E+00 0. -1.
         21   -1    0    0  502  503 -0.00000000000E+00 -0.00000000000E+00 -0.99055455474E+03  0.99055455474E+03  0.00000000000E+00 0.  1.
         25    2    1    2    0    0 -0.19482369860E+02 -0.71580613517E+01 -0.10113147216E+03  0.16211929720E+03  0.12499716511E+03 0.  0.
          5    1    3    3  501    0 -0.24115677023E+02 -0.54031525003E+02 -0.98548034535E+02  0.11494649487E+03  0.10000000000E+00 0. -1.
         -5    1    3    3    0  501  0.46333071623E+01  0.46873463651E+02 -0.25834376255E+01  0.47172802332E+02  0.10000000000E+00 0. -1.
         21    1    1    2  504  503  0.19482369860E+02  0.71580613517E+01 -0.85880378120E+03  0.85905455891E+03  0.00000000000E+00 0.  1.
<mgrwt>
<rscale>  1 0.12670869E+03</rscale>
<asrwt>0</asrwt>
<pdfrwt beam="1">  1       21 0.47106613E-02 0.12670869E+03</pdfrwt>
<pdfrwt beam="2">  1       21 0.15239302E+00 0.12670869E+03</pdfrwt>
<totfact> 0.88316158E+04</totfact>
</mgrwt>
</event>
<event>
 6    1  0.4271609E-002  0.1893370E+03  0.7546771E-02  0.1159061E+00
         21   -1    0    0  504  502  0.00000000000E+00  0.00000000000E+00  0.16226175081E+03  0.16226175081E+03  0.00000000000E+00 0.  1.
         21   -1    0    0  502  503 -0.00000000000E+00 -0.00000000000E+00 -0.22101208329E+03  0.22101208329E+03  0.00000000000E+00 0.  1.
         25    2    1    2    0    0  0.51707322487E+02 -0.13247459722E+03  0.59349098493E+02  0.19842080680E+03  0.12500133988E+03 0.  0.
          5    1    3    3  501    0  0.14724703651E+02 -0.12280011051E+03  0.87023568796E+02  0.15122762831E+03  0.10000000000E+00 0. -1.
         -5    1    3    3    0  501  0.36982618836E+02 -0.96744867091E+01 -0.27674470304E+02  0.47193178486E+02  0.10000000000E+00 0. -1.
         21    1    1    2  504  503 -0.51707322487E+02  0.13247459722E+03 -0.11809943097E+03  0.18485302730E+03  0.00000000000E+00 0.  1.
<mgrwt>
<rscale>  1 0.18933700E+03</rscale>
<asrwt>0</asrwt>
<pdfrwt beam="1">  1       21 0.24963346E-01 0.18933700E+03</pdfrwt>
<pdfrwt beam="2">  1       21 0.34001859E-01 0.18933700E+03</pdfrwt>
<totfact> 0.12672923E+05</totfact>
</mgrwt>
</event>
<event>
 6    1  0.4271609E-002  0.1305511E+03  0.7546771E-02  0.1226640E+00
         21   -1    0    0  503  502  0.00000000000E+00  0.00000000000E+00  0.18365586746E+03  0.18365586746E+03  0.00000000000E+00 0. -1.
         21   -1    0    0  504  503 -0.00000000000E+00 -0.00000000000E+00 -0.47073798500E+02  0.47073798500E+02  0.00000000000E+00 0. -1.
         25    2    1    2    0    0  0.20915672050E+00 -0.37655611954E+02  0.14176349719E+03  0.19271866681E+03  0.12500242614E+03 0.  0.
          5    1    3    3  501    0 -0.11879016349E+02 -0.82881131000E+02  0.89795601280E+02  0.12277480570E+03  0.10000000000E+00 0.  1.
         -5    1    3    3    0  501  0.12088173069E+02  0.45225519046E+02  0.51967895913E+02  0.69943861108E+02  0.10000000000E+00 0.  1.
         21    1    1    2  504  502 -0.20915672050E+00  0.37655611954E+02 -0.51814282318E+01  0.38010999154E+02  0.00000000000E+00 0. -1.
<mgrwt>
<rscale>  1 0.13055112E+03</rscale>
<asrwt>0</asrwt>
<pdfrwt beam="1">  1       21 0.28254748E-01 0.13055112E+03</pdfrwt>
<pdfrwt beam="2">  1       21 0.72421230E-02 0.13055112E+03</pdfrwt>
<totfact> 0.17011785E+06</totfact>
</mgrwt>
</event>
<event>
 6    1  0.4271609E-002  0.1275675E+03  0.7546771E-02  0.1231110E+00
         21   -1    0    0  503  502  0.00000000000E+00  0.00000000000E+00  0.64666015249E+03  0.64666015249E+03  0.00000000000E+00 0. -1.
         21   -1    0    0  504  503 -0.00000000000E+00 -0.00000000000E+00 -0.25398331921E+02  0.25398331921E+02  0.00000000000E+00 0. -1.
         25    2    1    2    0    0  0.19593159834E+02  0.16242662777E+02  0.63177263153E+03  0.64452317702E+03  0.12500300702E+03 0.  0.
          5    1    3    3  501    0  0.66781969763E+02  0.41109889378E+01  0.49141792123E+03  0.49595192814E+03  0.10000000000E+00 0.  1.
         -5    1    3    3    0  501 -0.47188809929E+02  0.12131673839E+02  0.14035471030E+03  0.14857124888E+03  0.10000000000E+00 0.  1.
         21    1    1    2  504  502 -0.19593159834E+02 -0.16242662777E+02 -0.10510810954E+02  0.27535307394E+02  0.00000000000E+00 0. -1.
<mgrwt>
<rscale>  1 0.12756750E+03</rscale>
<asrwt>0</asrwt>
<pdfrwt beam="1">  1       21 0.99486165E-01 0.12756750E+03</pdfrwt>
<pdfrwt beam="2">  1       21 0.39074362E-02 0.12756750E+03</pdfrwt>
<totfact> 0.34400091E+05</totfact>
</mgrwt>
</event>
<event>
 6    1  0.4271609E-002  0.1295248E+03  0.7546771E-02  0.1228162E+00
         21   -1    0    0  503  502  0.00000000000E+00  0.00000000000E+00  0.21888086021E+04  0.21888086021E+04  0.00000000000E+00 0. -1.
         21   -1    0    0  504  503 -0.00000000000E+00 -0.00000000000E+00 -0.24075551531E+02  0.24075551531E+02  0.00000000000E+00 0. -1.
         25    2    1    2    0    0 -0.23436365698E+02 -0.24590867540E+02  0.21738551634E+04  0.21777104852E+04  0.12499084866E+03 0.  0.
          5    1    3    3  501    0 -0.18346072733E+02  0.32717850712E+02  0.16944657778E+04  0.16948809156E+04  0.10000000000E+00 0.  1.
         -5    1    3    3    0  501 -0.50902929650E+01 -0.57308718252E+02  0.47938938559E+03  0.48282956960E+03  0.10000000000E+00 0.  1.
         21    1    1    2  504  502  0.23436365698E+02  0.24590867540E+02 -0.91221128231E+01  0.35173668359E+02  0.00000000000E+00 0. -1.
<mgrwt>
<rscale>  1 0.12952485E+03</rscale>
<asrwt>0</asrwt>
<pdfrwt beam="1">  1       21 0.33673963E+00 0.12952485E+03</pdfrwt>
<pdfrwt beam="2">  1       21 0.37039327E-02 0.12952485E+03</pdfrwt>
<totfact> 0.10164272E+04</totfact>
</mgrwt>
</event>
<event>
 6    1  0.4271609E-002  0.1430259E+03  0.7546771E-02  0.1209314E+00
         21   -1    0    0  503  502  0.00000000000E+00  0.00000000000E+00  0.52216617236E+02  0.52216617236E+02  0.00000000000E+00 0.  1.
         21   -1    0    0  504  503 -0.00000000000E+00 -0.00000000000E+00 -0.21645915692E+03  0.21645915692E+03  0.00000000000E+00 0. -1.
         25    2    1    2    0    0 -0.66674984728E+02  0.19792641157E+02 -0.10769594284E+03  0.17903861753E+03  0.12497643071E+03 0.  0.
          5    1    3    3  501    0 -0.18599803316E+00 -0.34548895915E+01 -0.10854226557E+03  0.10859744137E+03  0.10000000000E+00 0. -1.
         -5    1    3    3    0  501 -0.66488986695E+02  0.23247530749E+02  0.84632272729E+00  0.70441176167E+02  0.10000000000E+00 0. -1.
         21    1    1    2  504  502  0.66674984728E+02 -0.19792641157E+02 -0.56546596845E+02  0.89637156622E+02  0.00000000000E+00 0. -1.
<mgrwt>
<rscale>  1 0.14302591E+03</rscale>
<asrwt>0</asrwt>
<pdfrwt beam="1">  1       21 0.80333258E-02 0.14302591E+03</pdfrwt>
<pdfrwt beam="2">  1       21 0.33301408E-01 0.14302591E+03</pdfrwt>
<totfact> 0.10362923E+06</totfact>
</mgrwt>
</event>
<event>
 6    1  0.4271609E-002  0.1319759E+03  0.7546771E-02  0.1224553E+00
         21   -1    0    0  504  502  0.00000000000E+00  0.00000000000E+00  0.39433433567E+02  0.39433433567E+02  0.00000000000E+00 0. -1.
         21   -1    0    0  502  503 -0.00000000000E+00 -0.00000000000E+00 -0.44271832619E+03  0.44271832619E+03  0.00000000000E+00 0. -1.
         25    2    1    2    0    0  0.23302951700E+02 -0.35341108832E+02 -0.76313161943E+02  0.15245108612E+03  0.12500245375E+03 0.  0.
          5    1    3    3  501    0  0.55252849115E+02 -0.54608418028E+02 -0.12717906742E+02  0.78719195922E+02  0.10000000000E+00 0. -1.
         -5    1    3    3    0  501 -0.31949897415E+02  0.19267309195E+02 -0.63595255201E+02  0.73731890201E+02  0.10000000000E+00 0. -1.
         21    1    1    2  504  503 -0.23302951700E+02  0.35341108832E+02 -0.32697173068E+03  0.32970067364E+03  0.00000000000E+00 0. -1.
<mgrwt>
<rscale>  1 0.13197589E+03</rscale>
<asrwt>0</asrwt>
<pdfrwt beam="1">  1       21 0.60666822E-02 0.13197589E+03</pdfrwt>
<pdfrwt beam="2">  1       21 0.68110511E-01 0.13197589E+03</pdfrwt>
<totfact> 0.38522925E+05</totfact>
</mgrwt>
</event>
<event>
 6    1  0.4271609E-002  0.1375852E+03  0.7546771E-02  0.1216616E+00
         21   -1    0    0  503  502  0.00000000000E+00  0.00000000000E+00  0.80726439952E+01  0.80726439952E+01  0.00000000000E+00 0. -1.
         21   -1    0    0  504  503 -0.00000000000E+00 -0.00000000000E+00 -0.12895066246E+04  0.12895066246E+04  0.00000000000E+00 0. -1.
         25    2    1    2    0    0 -0.43988567114E+02 -0.37019436307E+02 -0.70607989894E+03  0.71935980162E+03  0.12499707116E+03 0.  0.
          5    1    3    3  501    0  0.18435919415E+02  0.36309319436E+02 -0.18129192395E+03  0.18580909959E+03  0.10000000000E+00 0.  1.
         -5    1    3    3    0  501 -0.62424486528E+02 -0.73328755744E+02 -0.52478797499E+03  0.53355070203E+03  0.10000000000E+00 0.  1.
         21    1    1    2  504  502  0.43988567114E+02  0.37019436307E+02 -0.57535408165E+03  0.57821946696E+03  0.00000000000E+00 0. -1.
<mgrwt>
<rscale>  1 0.13758525E+03</rscale>
<asrwt>0</asrwt>
<pdfrwt beam="1">  1       21 0.12419453E-02 0.13758525E+03</pdfrwt>
<pdfrwt beam="2">  1       21 0.19838562E+00 0.13758525E+03</pdfrwt>
<totfact> 0.37389128E+05</totfact>
</mgrwt>
</event>
<event>
 6    1  0.4271609E-002  0.1273533E+03  0.7546771E-02  0.1231437E+00
         21   -1    0    0  504  502  0.00000000000E+00  0.00000000000E+00  0.50113605168E+02  0.50113605168E+02  0.00000000000E+00 0. -1.
         21   -1    0    0  502  503 -0.00000000000E+00 -0.00000000000E+00 -0.16302037343E+03  0.16302037343E+03  0.00000000000E+00 0. -1.
         25    2    1    2    0    0  0.48237088789E+01  0.23957091454E+02 -0.35861866984E+02  0.13230621597E+03  0.12498660281E+03 0.  0.
          5    1    3    3  501    0  0.41050368972E+02 -0.10287614414E+02  0.28407094331E+02  0.50969999131E+02  0.10000000000E+00 0.  1.
         -5    1    3    3    0  501 -0.36226660094E+02  0.34244705868E+02 -0.64268961315E+02  0.81336216841E+02  0.10000000000E+00 0.  1.
         21    1    1    2  504  503 -0.48237088789E+01 -0.23957091454E+02 -0.77044901279E+02  0.80827762628E+02  0.00000000000E+00 0. -1.
<mgrwt>
<rscale>  1 0.12735329E+03</rscale>
<asrwt>0</asrwt>
<pdfrwt beam="1">  1       21 0.77097854E-02 0.12735329E+03</pdfrwt>
<pdfrwt beam="2">  1       21 0.25080057E-01 0.12735329E+03</pdfrwt>
<totfact> 0.19155996E+06</totfact>
</mgrwt>
</event>
<event>
 6    1  0.4271609E-002  0.1353726E+03  0.7546771E-02  0.1219695E+00
         21   -1    0    0  504  502  0.00000000000E+00  0.00000000000E+00  0.14869623166E+02  0.14869623166E+02  0.00000000000E+00 0.  1.
         21   -1    0    0  502  503 -0.00000000000E+00 -0.00000000000E+00 -0.63247950773E+03  0.63247950773E+03  0.00000000000E+00 0.  1.
         25    2    1    2    0    0  0.27454492891E+02  0.44114356782E+02 -0.36136186190E+03  0.38588617984E+03  0.12500369156E+03 0.  0.
          5    1    3    3  501    0 -0.30333045183E+02  0.26535312822E+02 -0.33211073298E+02  0.52222618148E+02  0.10000000000E+00 0. -1.
         -5    1    3    3    0  501  0.57787538073E+02  0.17579043960E+02 -0.32815078860E+03  0.33366356169E+03  0.10000000000E+00 0. -1.
         21    1    1    2  504  503 -0.27454492891E+02 -0.44114356782E+02 -0.25624802267E+03  0.26146295106E+03  0.00000000000E+00 0.  1.
<mgrwt>
<rscale>  1 0.13537263E+03</rscale>
<asrwt>0</asrwt>
<pdfrwt beam="1">  1       21 0.22876345E-02 0.13537263E+03</pdfrwt>
<pdfrwt beam="2">  1       21 0.97304532E-01 0.13537263E+03</pdfrwt>
<totfact> 0.87105205E+05</totfact>
</mgrwt>
</event>
<event>
 6    1  0.4271609E-002  0.1287160E+03  0.7546771E-02  0.1229374E+00
         21   -1    0    0  504  502  0.00000000000E+00  0.00000000000E+00  0.55169900600E+02  0.55169900600E+02  0.00000000000E+00 0.  1.
         21   -1    0    0  502  503 -0.00000000000E+00 -0.00000000000E+00 -0.13915752592E+03  0.13915752592E+03  0.00000000000E+00 0.  1.
         25    2    1    2    0    0  0.37923582794E+01  0.30471879375E+02 -0.29918789261E+02  0.13214739398E+03  0.12499952948E+03 0.  0.
          5    1    3    3  501    0 -0.58654400151E+02  0.31645283708E+01 -0.24921933532E+02  0.63808037643E+02  0.10000000000E+00 0.  1.
         -5    1    3    3    0  501  0.62446758430E+02  0.27307351004E+02 -0.49968557283E+01  0.68339356336E+02  0.10000000000E+00 0.  1.
         21    1    1    2  504  503 -0.37923582794E+01 -0.30471879375E+02 -0.54068836056E+02  0.62180032537E+02  0.00000000000E+00 0.  1.
<mgrwt>
<rscale>  1 0.12871597E+03</rscale>
<asrwt>0</asrwt>
<pdfrwt beam="1">  1       21 0.84876771E-02 0.12871597E+03</pdfrwt>
<pdfrwt beam="2">  1       21 0.21408850E-01 0.12871597E+03</pdfrwt>
<totfact> 0.21842769E+06</totfact>
</mgrwt>
</event>
<event>
 6    1  0.4271609E-002  0.1260391E+03  0.7546771E-02  0.1233454E+00
         21   -1    0    0  504  502  0.00000000000E+00  0.00000000000E+00  0.72516480303E+03  0.72516480303E+03  0.00000000000E+00 0.  1.
         21   -1    0    0  502  503 -0.00000000000E+00 -0.00000000000E+00 -0.87180190102E+01  0.87180190102E+01  0.00000000000E+00 0.  1.
         25    2    1    2    0    0  0.15673375282E+02 -0.38217701935E+01  0.69837719305E+03  0.70965947095E+03  0.12500240124E+03 0.  0.
          5    1    3    3  501    0 -0.85489203828E+01  0.31104483322E+02  0.47629796876E+02  0.57525476729E+02  0.10000000000E+00 0. -1.
         -5    1    3    3    0  501  0.24222295665E+02 -0.34926253515E+02  0.65074739618E+03  0.65213399423E+03  0.10000000000E+00 0. -1.
         21    1    1    2  504  503 -0.15673375282E+02  0.38217701935E+01  0.18069590964E+02  0.24223351085E+02  0.00000000000E+00 0.  1.
<mgrwt>
<rscale>  1 0.12603912E+03</rscale>
<asrwt>0</asrwt>
<pdfrwt beam="1">  1       21 0.11156377E+00 0.12603912E+03</pdfrwt>
<pdfrwt beam="2">  1       21 0.13412343E-02 0.12603912E+03</pdfrwt>
<totfact> 0.14864095E+06</totfact>
</mgrwt>
</event>
<event>
 6    1  0.4271609E-002  0.1258961E+03  0.7546771E-02  0.1233675E+00
         21   -1    0    0  504  502  0.00000000000E+00  0.00000000000E+00  0.37874653960E+02  0.37874653960E+02  0.00000000000E+00 0. -1.
         21   -1    0    0  502  503 -0.00000000000E+00 -0.00000000000E+00 -0.14814914784E+03  0.14814914784E+03  0.00000000000E+00 0. -1.
         25    2    1    2    0    0  0.14107392165E+02  0.52034872445E+01 -0.72297437125E+02  0.14517834143E+03  0.12499494635E+03 0.  0.
          5    1    3    3  501    0  0.68540256719E+02 -0.83122869441E+01 -0.31884525076E+02  0.76049285629E+02  0.10000000000E+00 0.  1.
         -5    1    3    3    0  501 -0.54432864555E+02  0.13515774189E+02 -0.40412912049E+02  0.69129055800E+02  0.10000000000E+00 0.  1.
         21    1    1    2  504  503 -0.14107392165E+02 -0.52034872445E+01 -0.37977056759E+02  0.40845460375E+02  0.00000000000E+00 0.  1.
<mgrwt>
<rscale>  1 0.12589611E+03</rscale>
<asrwt>0</asrwt>
<pdfrwt beam="1">  1       21 0.58268698E-02 0.12589611E+03</pdfrwt>
<pdfrwt beam="2">  1       21 0.22792177E-01 0.12589611E+03</pdfrwt>
<totfact> 0.36953965E+06</totfact>
</mgrwt>
</event>
<event>
 6    1  0.4271609E-002  0.1270620E+03  0.7546771E-02  0.1231881E+00
         21   -1    0    0  504  502  0.00000000000E+00  0.00000000000E+00  0.46358597221E+03  0.46358597221E+03  0.00000000000E+00 0. -1.
         21   -1    0    0  502  503 -0.00000000000E+00 -0.00000000000E+00 -0.12151745204E+02  0.12151745204E+02  0.00000000000E+00 0. -1.
         25    2    1    2    0    0  0.11173622599E+02 -0.19893110774E+02  0.39176217660E+03  0.41185235682E+03  0.12499670039E+03 0.  0.
          5    1    3    3  501    0  0.57232479378E+02 -0.32109643384E+02  0.31293202379E+03  0.31973903016E+03  0.10000000000E+00 0.  1.
         -5    1    3    3    0  501 -0.46058856779E+02  0.12216532611E+02  0.78830152812E+02  0.92113326665E+02  0.10000000000E+00 0.  1.
         21    1    1    2  504  503 -0.11173622599E+02  0.19893110774E+02  0.59672050409E+02  0.63885360594E+02  0.00000000000E+00 0. -1.
<mgrwt>
<rscale>  1 0.12706204E+03</rscale>
<asrwt>0</asrwt>
<pdfrwt beam="1">  1       21 0.71320905E-01 0.12706204E+03</pdfrwt>
<pdfrwt beam="2">  1       21 0.18694996E-02 0.12706204E+03</pdfrwt>
<totfact> 0.24300529E+06</totfact>
</mgrwt>
</event>
<event>
 6    1  0.4271609E-002  0.1267211E+03  0.7546771E-02  0.1232404E+00
         21   -1    0    0  504  502  0.00000000000E+00  0.00000000000E+00  0.83718643193E+02  0.83718643193E+02  0.00000000000E+00 0.  1.
         21   -1    0    0  502  503 -0.00000000000E+00 -0.00000000000E+00 -0.82104018519E+02  0.82104018519E+02  0.00000000000E+00 0.  1.
         25    2    1    2    0    0  0.16029176910E+02 -0.13245660057E+02  0.30396055769E+02  0.13031558075E+03  0.12500339338E+03 0.  0.
          5    1    3    3  501    0 -0.47532332449E+02  0.65949277263E+01 -0.14354622186E+02  0.50088730048E+02  0.10000000000E+00 0.  1.
         -5    1    3    3    0  501  0.63561509358E+02 -0.19840587783E+02  0.44750677956E+02  0.80226850698E+02  0.10000000000E+00 0.  1.
         21    1    1    2  504  503 -0.16029176910E+02  0.13245660057E+02 -0.28781431095E+02  0.35507080965E+02  0.00000000000E+00 0.  1.
<mgrwt>
<rscale>  1 0.12672107E+03</rscale>
<asrwt>0</asrwt>
<pdfrwt beam="1">  1       21 0.12879791E-01 0.12672107E+03</pdfrwt>
<pdfrwt beam="2">  1       21 0.12631387E-01 0.12672107E+03</pdfrwt>
<totfact> 0.27395909E+06</totfact>
</mgrwt>
</event>
<event>
 6    1  0.4271609E-002  0.1270726E+03  0.7546771E-02  0.1231865E+00
         21   -1    0    0  503  502  0.00000000000E+00  0.00000000000E+00  0.17121952106E+04  0.17121952106E+04  0.00000000000E+00 0.  1.
         21   -1    0    0  504  503 -0.00000000000E+00 -0.00000000000E+00 -0.45361231569E+01  0.45361231569E+01  0.00000000000E+00 0.  1.
         25    2    1    2    0    0  0.12511674074E+02 -0.19072889643E+02  0.16474933518E+04  0.16523866926E+04  0.12500848113E+03 0.  0.
          5    1    3    3  501    0  0.33065990672E+02 -0.46466523285E+02  0.36435417573E+03  0.36879055424E+03  0.10000000000E+00 0. -1.
         -5    1    3    3    0  501 -0.20554316598E+02  0.27393633641E+02  0.12831391761E+04  0.12835961383E+04  0.10000000000E+00 0. -1.
         21    1    1    2  504  502 -0.12511674074E+02  0.19072889643E+02  0.60165735619E+02  0.64344641192E+02  0.00000000000E+00 0.  1.
<mgrwt>
<rscale>  1 0.12707257E+03</rscale>
<asrwt>0</asrwt>
<pdfrwt beam="1">  1       21 0.26341413E+00 0.12707257E+03</pdfrwt>
<pdfrwt beam="2">  1       21 0.69786647E-03 0.12707257E+03</pdfrwt>
<totfact> 0.38337862E+05</totfact>
</mgrwt>
</event>
<event>
 6    1  0.4271609E-002  0.1290133E+03  0.7546771E-02  0.1228927E+00
         21   -1    0    0  504  502  0.00000000000E+00  0.00000000000E+00  0.85814465919E+02  0.85814465919E+02  0.00000000000E+00 0.  1.
         21   -1    0    0  502  503 -0.00000000000E+00 -0.00000000000E+00 -0.76894820563E+02  0.76894820563E+02  0.00000000000E+00 0.  1.
         25    2    1    2    0    0  0.31927387256E+02 -0.53480104694E+00  0.16000569675E+02  0.13000174059E+03  0.12499916103E+03 0.  0.
          5    1    3    3  501    0  0.13713649084E+02 -0.39904105529E+02  0.56593693764E+02  0.70592194917E+02  0.10000000000E+00 0. -1.
         -5    1    3    3    0  501  0.18213738172E+02  0.39369304482E+02 -0.40593124089E+02  0.59409545672E+02  0.10000000000E+00 0. -1.
         21    1    1    2  504  503 -0.31927387256E+02  0.53480104694E+00 -0.70809243187E+01  0.32707545894E+02  0.00000000000E+00 0.  1.
<mgrwt>
<rscale>  1 0.12901331E+03</rscale>
<asrwt>0</asrwt>
<pdfrwt beam="1">  1       21 0.13202225E-01 0.12901331E+03</pdfrwt>
<pdfrwt beam="2">  1       21 0.11829972E-01 0.12901331E+03</pdfrwt>
<totfact> 0.29466197E+06</totfact>
</mgrwt>
</event>
<event>
 6    1  0.4271609E-002  0.1264356E+03  0.7546771E-02  0.1232843E+00
         21   -1    0    0  504  502  0.00000000000E+00  0.00000000000E+00  0.24280365450E+03  0.24280365450E+03  0.00000000000E+00 0.  1.
         21   -1    0    0  502  503 -0.00000000000E+00 -0.00000000000E+00 -0.26501750031E+02  0.26501750031E+02  0.00000000000E+00 0.  1.
         25    2    1    2    0    0  0.14078603119E+02 -0.12768538929E+02  0.21601518558E+03  0.25029685751E+03  0.12499885529E+03 0.  0.
          5    1    3    3  501    0  0.42529382133E+02  0.43948204125E+02  0.12726213651E+03  0.14119438509E+03  0.10000000000E+00 0. -1.
         -5    1    3    3    0  501 -0.28450779014E+02 -0.56716743054E+02  0.88753049071E+02  0.10910247242E+03  0.10000000000E+00 0. -1.
         21    1    1    2  504  503 -0.14078603119E+02  0.12768538929E+02  0.28671888487E+00  0.19008547022E+02  0.00000000000E+00 0.  1.
<mgrwt>
<rscale>  1 0.12643558E+03</rscale>
<asrwt>0</asrwt>
<pdfrwt beam="1">  1       21 0.37354407E-01 0.12643558E+03</pdfrwt>
<pdfrwt beam="2">  1       21 0.40771925E-02 0.12643558E+03</pdfrwt>
<totfact> 0.26015533E+06</totfact>
</mgrwt>
</event>
<event>
 6    1  0.4271609E-002  0.1275232E+03  0.7546771E-02  0.1231178E+00
         21   -1    0    0  503  502  0.00000000000E+00  0.00000000000E+00  0.38913987119E+02  0.38913987119E+02  0.00000000000E+00 0.  1.
         21   -1    0    0  504  503 -0.00000000000E+00 -0.00000000000E+00 -0.16713319375E+03  0.16713319375E+03  0.00000000000E+00 0.  1.
         25    2    1    2    0    0  0.11868689246E+02 -0.22277196599E+02 -0.77055250587E+02  0.14899554048E+03  0.12500008067E+03 0.  0.
          5    1    3    3  501    0  0.50772981283E+02 -0.36550164350E+02 -0.86247897434E+02  0.10654820484E+03  0.10000000000E+00 0.  1.
         -5    1    3    3    0  501 -0.38904292037E+02  0.14272967750E+02  0.91926468475E+01  0.42447335645E+02  0.10000000000E+00 0.  1.
         21    1    1    2  504  502 -0.11868689246E+02  0.22277196599E+02 -0.51163956046E+02  0.57051640389E+02  0.00000000000E+00 0. -1.
<mgrwt>
<rscale>  1 0.12752317E+03</rscale>
<asrwt>0</asrwt>
<pdfrwt beam="1">  1       21 0.59867672E-02 0.12752317E+03</pdfrwt>
<pdfrwt beam="2">  1       21 0.25712799E-01 0.12752317E+03</pdfrwt>
<totfact> 0.28144506E+06</totfact>
</mgrwt>
</event>
<event>
 6    1  0.4271609E-002  0.1261556E+03  0.7546771E-02  0.1233274E+00
         21   -1    0    0  503  502  0.00000000000E+00  0.00000000000E+00  0.25995947765E+02  0.25995947765E+02  0.00000000000E+00 0. -1.
         21   -1    0    0  504  503 -0.00000000000E+00 -0.00000000000E+00 -0.22445246218E+03  0.22445246218E+03  0.00000000000E+00 0. -1.
         25    2    1    2    0    0 -0.11394621546E+02  0.12508370595E+02 -0.13498297669E+03  0.18475832906E+03  0.12501575671E+03 0.  0.
          5    1    3    3  501    0 -0.66588653206E+02 -0.73155815649E+01 -0.63575971079E+02  0.92355187013E+02  0.10000000000E+00 0. -1.
         -5    1    3    3    0  501  0.55194031660E+02  0.19823952160E+02 -0.71407005609E+02  0.92403142047E+02  0.10000000000E+00 0. -1.
         21    1    1    2  504  502  0.11394621546E+02 -0.12508370595E+02 -0.63473537730E+02  0.65690080888E+02  0.00000000000E+00 0. -1.
<mgrwt>
<rscale>  1 0.12615560E+03</rscale>
<asrwt>0</asrwt>
<pdfrwt beam="1">  1       21 0.39993766E-02 0.12615560E+03</pdfrwt>
<pdfrwt beam="2">  1       21 0.34531148E-01 0.12615560E+03</pdfrwt>
<totfact> 0.31355956E+06</totfact>
</mgrwt>
</event>
<event>
 6    1  0.4271609E-002  0.1261168E+03  0.7546771E-02  0.1233334E+00
         21   -1    0    0  503  502  0.00000000000E+00  0.00000000000E+00  0.69646655940E+02  0.69646655940E+02  0.00000000000E+00 0. -1.
         21   -1    0    0  504  503 -0.00000000000E+00 -0.00000000000E+00 -0.13794604382E+03  0.13794604382E+03  0.00000000000E+00 0. -1.
         25    2    1    2    0    0  0.61555186016E+01 -0.15588433706E+02  0.10949281624E+02  0.12659121031E+03  0.12499823233E+03 0.  0.
          5    1    3    3  501    0 -0.55402718037E+02  0.16511588641E+01 -0.15276411356E+02  0.57494053914E+02  0.10000000000E+00 0.  1.
         -5    1    3    3    0  501  0.61558236639E+02 -0.17239592570E+02  0.26225692980E+02  0.69097156398E+02  0.10000000000E+00 0.  1.
         21    1    1    2  504  502 -0.61555186016E+01  0.15588433706E+02 -0.79248669507E+02  0.81001489451E+02  0.00000000000E+00 0. -1.
<mgrwt>
<rscale>  1 0.12611680E+03</rscale>
<asrwt>0</asrwt>
<pdfrwt beam="1">  1       21 0.10714870E-01 0.12611680E+03</pdfrwt>
<pdfrwt beam="2">  1       21 0.21222468E-01 0.12611680E+03</pdfrwt>
<totfact> 0.14781597E+06</totfact>
</mgrwt>
</event>
<event>
 6    1  0.4271609E-002  0.1282682E+03  0.7546771E-02  0.1230048E+00
         21   -1    0    0  504  502  0.00000000000E+00  0.00000000000E+00  0.32299541469E+03  0.32299541469E+03  0.00000000000E+00 0.  1.
         21   -1    0    0  502  503 -0.00000000000E+00 -0.00000000000E+00 -0.19961997069E+02  0.19961997069E+02  0.00000000000E+00 0.  1.
         25    2    1    2    0    0  0.22322806193E+02 -0.18132796605E+02  0.27152391267E+03  0.30029648242E+03  0.12500254485E+03 0.  0.
          5    1    3    3  501    0  0.21083829182E+02  0.37824824050E+02  0.30772525460E+02  0.53124415202E+02  0.10000000000E+00 0. -1.
         -5    1    3    3    0  501  0.12389770115E+01 -0.55957620655E+02  0.24075138721E+03  0.24717206722E+03  0.10000000000E+00 0. -1.
         21    1    1    2  504  503 -0.22322806193E+02  0.18132796605E+02  0.31509504951E+02  0.42660929330E+02  0.00000000000E+00 0.  1.
<mgrwt>
<rscale>  1 0.12826824E+03</rscale>
<asrwt>0</asrwt>
<pdfrwt beam="1">  1       21 0.49691599E-01 0.12826824E+03</pdfrwt>
<pdfrwt beam="2">  1       21 0.30710767E-02 0.12826824E+03</pdfrwt>
<totfact> 0.23355735E+06</totfact>
</mgrwt>
</event>
<event>
 6    1  0.4271609E-002  0.1261076E+03  0.7546771E-02  0.1233348E+00
         21   -1    0    0  504  502  0.00000000000E+00  0.00000000000E+00  0.71473767645E+02  0.71473767645E+02  0.00000000000E+00 0.  1.
         21   -1    0    0  502  503 -0.00000000000E+00 -0.00000000000E+00 -0.23490843534E+03  0.23490843534E+03  0.00000000000E+00 0.  1.
         25    2    1    2    0    0  0.20632006791E+01  0.16477153191E+02  0.15161422436E+02  0.12701577139E+03  0.12500953594E+03 0.  0.
          5    1    3    3  501    0 -0.42420726603E+02 -0.52396858606E+01 -0.35957901920E+02  0.55856540028E+02  0.10000000000E+00 0. -1.
         -5    1    3    3    0  501  0.44483927282E+02  0.21716839052E+02  0.51119324356E+02  0.71159231358E+02  0.10000000000E+00 0. -1.
         21    1    1    2  504  503 -0.20632006791E+01 -0.16477153191E+02 -0.17859609013E+03  0.17936643160E+03  0.00000000000E+00 0.  1.
<mgrwt>
<rscale>  1 0.12610764E+03</rscale>
<asrwt>0</asrwt>
<pdfrwt beam="1">  1       21 0.10995964E-01 0.12610764E+03</pdfrwt>
<pdfrwt beam="2">  1       21 0.36139759E-01 0.12610764E+03</pdfrwt>
<totfact> 0.51053666E+05</totfact>
</mgrwt>
</event>
<event>
 6    1  0.4271609E-002  0.1365358E+03  0.7546771E-02  0.1218068E+00
         21   -1    0    0  504  502  0.00000000000E+00  0.00000000000E+00  0.15949644204E+03  0.15949644204E+03  0.00000000000E+00 0.  1.
         21   -1    0    0  502  503 -0.00000000000E+00 -0.00000000000E+00 -0.67698656852E+02  0.67698656852E+02  0.00000000000E+00 0.  1.
         25    2    1    2    0    0 -0.54911266320E+02  0.74956974270E+00  0.10314749868E+03  0.17111814266E+03  0.12500481287E+03 0.  0.
          5    1    3    3  501    0  0.14836925459E+02  0.41682581341E+02  0.71892512211E+02  0.84416321031E+02  0.10000000000E+00 0.  1.
         -5    1    3    3    0  501 -0.69748191779E+02 -0.40933011599E+02  0.31254986468E+02  0.86701821631E+02  0.10000000000E+00 0.  1.
         21    1    1    2  504  503  0.54911266320E+02 -0.74956974270E+00 -0.11349713492E+02  0.56076956230E+02  0.00000000000E+00 0.  1.
<mgrwt>
<rscale>  1 0.13653575E+03</rscale>
<asrwt>0</asrwt>
<pdfrwt beam="1">  1       21 0.24537914E-01 0.13653575E+03</pdfrwt>
<pdfrwt beam="2">  1       21 0.10415178E-01 0.13653575E+03</pdfrwt>
<totfact> 0.11852281E+06</totfact>
</mgrwt>
</event>
<event>
 6    1  0.4271609E-002  0.1269215E+03  0.7546771E-02  0.1232096E+00
         21   -1    0    0  503  502  0.00000000000E+00  0.00000000000E+00  0.87934371447E+02  0.87934371447E+02  0.00000000000E+00 0. -1.
         21   -1    0    0  504  503 -0.00000000000E+00 -0.00000000000E+00 -0.10044669283E+03  0.10044669283E+03  0.00000000000E+00 0.  1.
         25    2    1    2    0    0  0.21779741902E+02 -0.26821040635E+01  0.38679145946E+02  0.13268441117E+03  0.12501010278E+03 0.  0.
          5    1    3    3  501    0 -0.20004443901E+02 -0.39096916559E+02 -0.23153206689E+02  0.49647030527E+02  0.10000000000E+00 0.  1.
         -5    1    3    3    0  501  0.41784185803E+02  0.36414812496E+02  0.61832352635E+02  0.83037380647E+02  0.10000000000E+00 0.  1.
         21    1    1    2  504  502 -0.21779741902E+02  0.26821040635E+01 -0.51191467324E+02  0.55696653098E+02  0.00000000000E+00 0.  1.
<mgrwt>
<rscale>  1 0.12692154E+03</rscale>
<asrwt>0</asrwt>
<pdfrwt beam="1">  1       21 0.13528365E-01 0.12692154E+03</pdfrwt>
<pdfrwt beam="2">  1       21 0.15453337E-01 0.12692154E+03</pdfrwt>
<totfact> 0.17487305E+06</totfact>
</mgrwt>
</event>
<event>
 6    1  0.4271609E-002  0.1431451E+03  0.7546771E-02  0.1209159E+00
         21   -1    0    0  503  502  0.00000000000E+00  0.00000000000E+00  0.84861897259E+03  0.84861897259E+03  0.00000000000E+00 0. -1.
         21   -1    0    0  504  503 -0.00000000000E+00 -0.00000000000E+00 -0.99273766410E+02  0.99273766410E+02  0.00000000000E+00 0. -1.
         25    2    1    2    0    0  0.61388773273E+02 -0.33112432080E+02  0.82943028502E+03  0.84169182331E+03  0.12500205231E+03 0.  0.
          5    1    3    3  501    0 -0.26994058225E+02 -0.25071456773E+02  0.47097180473E+03  0.47241052907E+03  0.10000000000E+00 0.  1.
         -5    1    3    3    0  501  0.88382831497E+02 -0.80409753068E+01  0.35845848029E+03  0.36928129425E+03  0.10000000000E+00 0.  1.
         21    1    1    2  504  502 -0.61388773273E+02  0.33112432080E+02 -0.80085078834E+02  0.10620091569E+03  0.00000000000E+00 0. -1.
<mgrwt>
<rscale>  1 0.14314513E+03</rscale>
<asrwt>0</asrwt>
<pdfrwt beam="1">  1       21 0.13055676E+00 0.14314513E+03</pdfrwt>
<pdfrwt beam="2">  1       21 0.15272888E-01 0.14314513E+03</pdfrwt>
<totfact> 0.16819841E+04</totfact>
</mgrwt>
</event>
<event>
 6    1  0.4271609E-002  0.1300216E+03  0.7546771E-02  0.1227424E+00
         21   -1    0    0  504  502  0.00000000000E+00  0.00000000000E+00  0.38880118362E+02  0.38880118362E+02  0.00000000000E+00 0. -1.
         21   -1    0    0  502  503 -0.00000000000E+00 -0.00000000000E+00 -0.68990065924E+03  0.68990065924E+03  0.00000000000E+00 0. -1.
         25    2    1    2    0    0  0.23504294773E+02  0.26740943237E+02 -0.71920307262E+02  0.14858718018E+03  0.12505234743E+03 0.  0.
          5    1    3    3  501    0  0.14010077020E+02 -0.17753117926E+02 -0.94941897585E+02  0.97598306190E+02  0.10000000000E+00 0. -1.
         -5    1    3    3    0  501  0.94942177529E+01  0.44494061163E+02  0.23021590323E+02  0.50988873988E+02  0.10000000000E+00 0. -1.
         21    1    1    2  504  503 -0.23504294773E+02 -0.26740943237E+02 -0.57910023361E+03  0.58019359742E+03  0.00000000000E+00 0. -1.
<mgrwt>
<rscale>  1 0.13002161E+03</rscale>
<asrwt>0</asrwt>
<pdfrwt beam="1">  1       21 0.59815569E-02 0.13002161E+03</pdfrwt>
<pdfrwt beam="2">  1       21 0.10613856E+00 0.13002161E+03</pdfrwt>
<totfact> 0.14448680E+05</totfact>
</mgrwt>
</event>
<event>
 6    1  0.4271609E-002  0.1316981E+03  0.7546771E-02  0.1224958E+00
         21   -1    0    0  504  502  0.00000000000E+00  0.00000000000E+00  0.19100743160E+03  0.19100743160E+03  0.00000000000E+00 0.  1.
         21   -1    0    0  502  503 -0.00000000000E+00 -0.00000000000E+00 -0.39308027874E+02  0.39308027874E+02  0.00000000000E+00 0.  1.
         25    2    1    2    0    0  0.34674872386E+02  0.22751848135E+02  0.11908882678E+03  0.17755711324E+03  0.12499754570E+03 0.  0.
          5    1    3    3  501    0 -0.32782934396E+02  0.48540060444E+02  0.63753290209E+02  0.86575690976E+02  0.10000000000E+00 0.  1.
         -5    1    3    3    0  501  0.67457806781E+02 -0.25788212309E+02  0.55335536571E+02  0.90981422266E+02  0.10000000000E+00 0.  1.
         21    1    1    2  504  503 -0.34674872386E+02 -0.22751848135E+02  0.32610576949E+02  0.52758346235E+02  0.00000000000E+00 0.  1.
<mgrwt>
<rscale>  1 0.13169806E+03</rscale>
<asrwt>0</asrwt>
<pdfrwt beam="1">  1       21 0.29385758E-01 0.13169806E+03</pdfrwt>
<pdfrwt beam="2">  1       21 0.60473890E-02 0.13169806E+03</pdfrwt>
<totfact> 0.21462346E+06</totfact>
</mgrwt>
</event>
<event>
 6    1  0.4271609E-002  0.1262447E+03  0.7546771E-02  0.1233137E+00
         21   -1    0    0  504  502  0.00000000000E+00  0.00000000000E+00  0.54274861803E+02  0.54274861803E+02  0.00000000000E+00 0. -1.
         21   -1    0    0  502  503 -0.00000000000E+00 -0.00000000000E+00 -0.95436155476E+02  0.95436155476E+02  0.00000000000E+00 0. -1.
         25    2    1    2    0    0 -0.16898907814E+02 -0.52120984298E+01 -0.35459398453E+02  0.13113009522E+03  0.12499997552E+03 0.  0.
          5    1    3    3  501    0  0.38379218491E+01  0.47584436512E+02  0.20037650472E+02  0.51773793358E+02  0.10000000000E+00 0.  1.
         -5    1    3    3    0  501 -0.20736829663E+02 -0.52796534942E+02 -0.55497048925E+02  0.79356301865E+02  0.10000000000E+00 0.  1.
         21    1    1    2  504  503  0.16898907814E+02  0.52120984298E+01 -0.57018952203E+01  0.18580922056E+02  0.00000000000E+00 0.  1.
<mgrwt>
<rscale>  1 0.12624473E+03</rscale>
<asrwt>0</asrwt>
<pdfrwt beam="1">  1       21 0.83499787E-02 0.12624473E+03</pdfrwt>
<pdfrwt beam="2">  1       21 0.14682486E-01 0.12624473E+03</pdfrwt>
<totfact> 0.44743390E+06</totfact>
</mgrwt>
</event>
<event>
 6    1  0.4271609E-002  0.1273463E+03  0.7546771E-02  0.1231447E+00
         21   -1    0    0  503  502  0.00000000000E+00  0.00000000000E+00  0.88550980260E+02  0.88550980260E+02  0.00000000000E+00 0. -1.
         21   -1    0    0  504  503 -0.00000000000E+00 -0.00000000000E+00 -0.29664750783E+03  0.29664750783E+03  0.00000000000E+00 0. -1.
         25    2    1    2    0    0  0.96948363324E+01  0.22329824081E+02  0.41867287639E+02  0.13405207699E+03  0.12499791469E+03 0.  0.
          5    1    3    3  501    0  0.18268103004E+02 -0.38873570507E+02  0.56078940167E+02  0.70638060573E+02  0.10000000000E+00 0.  1.
         -5    1    3    3    0  501 -0.85732666716E+01  0.61203394588E+02 -0.14211652528E+02  0.63414016416E+02  0.10000000000E+00 0.  1.
         21    1    1    2  504  502 -0.96948363324E+01 -0.22329824081E+02 -0.24996381520E+03  0.25114641110E+03  0.00000000000E+00 0. -1.
<mgrwt>
<rscale>  1 0.12734634E+03</rscale>
<asrwt>0</asrwt>
<pdfrwt beam="1">  1       21 0.13623228E-01 0.12734634E+03</pdfrwt>
<pdfrwt beam="2">  1       21 0.45638078E-01 0.12734634E+03</pdfrwt>
<totfact> 0.21876904E+05</totfact>
</mgrwt>
</event>
<event>
 6    1  0.4271609E-002  0.1269327E+03  0.7546771E-02  0.1232079E+00
         21   -1    0    0  504  502  0.00000000000E+00  0.00000000000E+00  0.24742868958E+03  0.24742868958E+03  0.00000000000E+00 0.  1.
         21   -1    0    0  502  503 -0.00000000000E+00 -0.00000000000E+00 -0.23333469680E+02  0.23333469680E+02  0.00000000000E+00 0.  1.
         25    2    1    2    0    0  0.18643512990E+02  0.11794453541E+02  0.16857863887E+03  0.21102288842E+03  0.12500084897E+03 0.  0.
          5    1    3    3  501    0 -0.43605112205E+02  0.19555560178E+02  0.24119072396E+02  0.53530976056E+02  0.10000000000E+00 0.  1.
         -5    1    3    3    0  501  0.62248625195E+02 -0.77611066369E+01  0.14445956647E+03  0.15749191236E+03  0.10000000000E+00 0.  1.
         21    1    1    2  504  503 -0.18643512990E+02 -0.11794453541E+02  0.55516581032E+02  0.59739270839E+02  0.00000000000E+00 0.  1.
<mgrwt>
<rscale>  1 0.12693267E+03</rscale>
<asrwt>0</asrwt>
<pdfrwt beam="1">  1       21 0.38065950E-01 0.12693267E+03</pdfrwt>
<pdfrwt beam="2">  1       21 0.35897647E-02 0.12693267E+03</pdfrwt>
<totfact> 0.30950800E+06</totfact>
</mgrwt>
</event>
<event>
 6    1  0.4271609E-002  0.1476940E+03  0.7546771E-02  0.1203336E+00
         21   -1    0    0  504  502  0.00000000000E+00  0.00000000000E+00  0.83057029145E+03  0.83057029145E+03  0.00000000000E+00 0.  1.
         21   -1    0    0  502  503 -0.00000000000E+00 -0.00000000000E+00 -0.50224227875E+03  0.50224227875E+03  0.00000000000E+00 0.  1.
         25    2    1    2    0    0 -0.55480863250E+02 -0.55790196197E+02  0.82085719685E+03  0.83403840344E+03  0.12499139415E+03 0.  0.
          5    1    3    3  501    0 -0.37488484270E+02  0.14959204612E+02  0.60150081660E+03  0.60285355321E+03  0.10000000000E+00 0. -1.
         -5    1    3    3    0  501 -0.17992378980E+02 -0.70749400809E+02  0.21935638025E+03  0.23118485023E+03  0.10000000000E+00 0. -1.
         21    1    1    2  504  503  0.55480863250E+02  0.55790196197E+02 -0.49252918416E+03  0.49877416676E+03  0.00000000000E+00 0.  1.
<mgrwt>
<rscale>  1 0.14769401E+03</rscale>
<asrwt>0</asrwt>
<pdfrwt beam="1">  1       21 0.12778005E+00 0.14769401E+03</pdfrwt>
<pdfrwt beam="2">  1       21 0.77268043E-01 0.14769401E+03</pdfrwt>
<totfact> 0.70849958E+02</totfact>
</mgrwt>
</event>
<event>
 6    1  0.4271609E-002  0.1308596E+03  0.7546771E-02  0.1226186E+00
         21   -1    0    0  504  502  0.00000000000E+00  0.00000000000E+00  0.82151506869E+03  0.82151506869E+03  0.00000000000E+00 0. -1.
         21   -1    0    0  502  503 -0.00000000000E+00 -0.00000000000E+00 -0.93942909294E+01  0.93942909294E+01  0.00000000000E+00 0. -1.
         25    2    1    2    0    0  0.13891125940E+02  0.36213207718E+02  0.70360157526E+03  0.71566710563E+03  0.12497947663E+03 0.  0.
          5    1    3    3  501    0 -0.33373224079E+02 -0.29564304219E+02  0.16123896470E+03  0.16728967065E+03  0.10000000000E+00 0.  1.
         -5    1    3    3    0  501  0.47264350019E+02  0.65777511937E+02  0.54236261057E+03  0.54837743498E+03  0.10000000000E+00 0.  1.
         21    1    1    2  504  503 -0.13891125940E+02 -0.36213207718E+02  0.10851920249E+03  0.11524225398E+03  0.00000000000E+00 0.  1.
<mgrwt>
<rscale>  1 0.13085958E+03</rscale>
<asrwt>0</asrwt>
<pdfrwt beam="1">  1       21 0.12638688E+00 0.13085958E+03</pdfrwt>
<pdfrwt beam="2">  1       21 0.14452762E-02 0.13085958E+03</pdfrwt>
<totfact> 0.97423790E+05</totfact>
</mgrwt>
</event>
<event>
 6    1  0.4271609E-002  0.1308717E+03  0.7546771E-02  0.1226168E+00
         21   -1    0    0  503  502  0.00000000000E+00  0.00000000000E+00  0.77884986293E+03  0.77884986293E+03  0.00000000000E+00 0. -1.
         21   -1    0    0  504  503 -0.00000000000E+00 -0.00000000000E+00 -0.33331246771E+02  0.33331246771E+02  0.00000000000E+00 0. -1.
         25    2    1    2    0    0 -0.16857483157E+02  0.34932718732E+02  0.75969424798E+03  0.77088440144E+03  0.12499176129E+03 0.  0.
          5    1    3    3  501    0  0.46217925903E+02 -0.49324828365E+01  0.44702009675E+03  0.44943008684E+03  0.10000000000E+00 0.  1.
         -5    1    3    3    0  501 -0.63075409060E+02  0.39865201568E+02  0.31267415123E+03  0.32145431459E+03  0.10000000000E+00 0.  1.
         21    1    1    2  504  502  0.16857483157E+02 -0.34932718732E+02 -0.14175631815E+02  0.41296708268E+02  0.00000000000E+00 0. -1.
<mgrwt>
<rscale>  1 0.13087173E+03</rscale>
<asrwt>0</asrwt>
<pdfrwt beam="1">  1       21 0.11982304E+00 0.13087173E+03</pdfrwt>
<pdfrwt beam="2">  1       21 0.51278847E-02 0.13087173E+03</pdfrwt>
<totfact> 0.14000423E+05</totfact>
</mgrwt>
</event>
<event>
 6    1  0.4271609E-002  0.1259074E+03  0.7546771E-02  0.1233658E+00
         21   -1    0    0  503  502  0.00000000000E+00  0.00000000000E+00  0.90901595647E+02  0.90901595647E+02  0.00000000000E+00 0.  1.
         21   -1    0    0  504  503 -0.00000000000E+00 -0.00000000000E+00 -0.55427300850E+02  0.55427300850E+02  0.00000000000E+00 0.  1.
         25    2    1    2    0    0 -0.34395184835E+01 -0.14984234970E+02  0.35977316327E+02  0.13094674399E+03  0.12496529473E+03 0.  0.
          5    1    3    3  501    0 -0.16958070959E+02  0.28660225249E+02 -0.33859365850E+02  0.47491592285E+02  0.10000000000E+00 0. -1.
         -5    1    3    3    0  501  0.13518552476E+02 -0.43644460219E+02  0.69836682177E+02  0.83455151707E+02  0.10000000000E+00 0. -1.
         21    1    1    2  504  502  0.34395184835E+01  0.14984234970E+02 -0.50302152988E+00  0.15382152505E+02  0.00000000000E+00 0.  1.
<mgrwt>
<rscale>  1 0.12590744E+03</rscale>
<asrwt>0</asrwt>
<pdfrwt beam="1">  1       21 0.13984861E-01 0.12590744E+03</pdfrwt>
<pdfrwt beam="2">  1       21 0.85272771E-02 0.12590744E+03</pdfrwt>
<totfact> 0.47081333E+06</totfact>
</mgrwt>
</event>
<event>
 6    1  0.4271609E-002  0.1271371E+03  0.7546771E-02  0.1231767E+00
         21   -1    0    0  503  502  0.00000000000E+00  0.00000000000E+00  0.12872353811E+03  0.12872353811E+03  0.00000000000E+00 0. -1.
         21   -1    0    0  504  503 -0.00000000000E+00 -0.00000000000E+00 -0.86619162534E+02  0.86619162534E+02  0.00000000000E+00 0.  1.
         25    2    1    2    0    0 -0.21134122944E+02 -0.95352528736E+01  0.94258438103E+02  0.15826715037E+03  0.12500506203E+03 0.  0.
          5    1    3    3  501    0  0.15313946272E+02 -0.59181888503E+02  0.26289163376E+02  0.66544293431E+02  0.10000000000E+00 0. -1.
         -5    1    3    3    0  501 -0.36448069216E+02  0.49646635629E+02  0.67969274727E+02  0.91722856943E+02  0.10000000000E+00 0. -1.
         21    1    1    2  504  502  0.21134122944E+02  0.95352528736E+01 -0.52154062529E+02  0.57075550267E+02  0.00000000000E+00 0.  1.
<mgrwt>
<rscale>  1 0.12713708E+03</rscale>
<asrwt>0</asrwt>
<pdfrwt beam="1">  1       21 0.19803621E-01 0.12713708E+03</pdfrwt>
<pdfrwt beam="2">  1       21 0.13326025E-01 0.12713708E+03</pdfrwt>
<totfact> 0.11422737E+06</totfact>
</mgrwt>
</event>
<event>
 6    1  0.4271609E-002  0.1260429E+03  0.7546771E-02  0.1233448E+00
         21   -1    0    0  503  502  0.00000000000E+00  0.00000000000E+00  0.48190121794E+02  0.48190121794E+02  0.00000000000E+00 0. -1.
         21   -1    0    0  504  503 -0.00000000000E+00 -0.00000000000E+00 -0.13176720638E+03  0.13176720638E+03  0.00000000000E+00 0. -1.
         25    2    1    2    0    0 -0.75571272364E+01  0.14321081274E+02 -0.38087721941E+02  0.13167186810E+03  0.12499841097E+03 0.  0.
          5    1    3    3  501    0 -0.11907318848E+02  0.72589497605E+01  0.45543210755E+02  0.47630564133E+02  0.10000000000E+00 0.  1.
         -5    1    3    3    0  501  0.43501916114E+01  0.70621315134E+01 -0.83630932696E+02  0.84041303965E+02  0.10000000000E+00 0.  1.
         21    1    1    2  504  502  0.75571272364E+01 -0.14321081274E+02 -0.45489362641E+02  0.48285460073E+02  0.00000000000E+00 0. -1.
<mgrwt>
<rscale>  1 0.12604287E+03</rscale>
<asrwt>0</asrwt>
<pdfrwt beam="1">  1       21 0.74138650E-02 0.12604287E+03</pdfrwt>
<pdfrwt beam="2">  1       21 0.20271878E-01 0.12604287E+03</pdfrwt>
<totfact> 0.30490126E+06</totfact>
</mgrwt>
</event>
<event>
 6    1  0.4271609E-002  0.1262885E+03  0.7546771E-02  0.1233069E+00
         21   -1    0    0  503  502  0.00000000000E+00  0.00000000000E+00  0.63411359811E+02  0.63411359811E+02  0.00000000000E+00 0. -1.
         21   -1    0    0  504  503 -0.00000000000E+00 -0.00000000000E+00 -0.66824961299E+03  0.66824961299E+03  0.00000000000E+00 0. -1.
         25    2    1    2    0    0 -0.13425793666E+02 -0.12095102291E+02  0.26412893820E+00  0.12628882587E+03  0.12498901688E+03 0.  0.
          5    1    3    3  501    0 -0.67183752547E+02 -0.19261164746E+02 -0.11403072395E+02  0.70814469804E+02  0.10000000000E+00 0. -1.
         -5    1    3    3    0  501  0.53757958880E+02  0.71660624546E+01  0.11667201333E+02  0.55474356067E+02  0.10000000000E+00 0. -1.
         21    1    1    2  504  502  0.13425793666E+02  0.12095102291E+02 -0.60510238212E+03  0.60537214693E+03  0.00000000000E+00 0. -1.
<mgrwt>
<rscale>  1 0.12628855E+03</rscale>
<asrwt>0</asrwt>
<pdfrwt beam="1">  1       21 0.97555937E-02 0.12628855E+03</pdfrwt>
<pdfrwt beam="2">  1       21 0.10280763E+00 0.12628855E+03</pdfrwt>
<totfact> 0.67305189E+04</totfact>
</mgrwt>
</event>
<event>
 6    1  0.4271609E-002  0.1280077E+03  0.7546771E-02  0.1230442E+00
         21   -1    0    0  504  502  0.00000000000E+00  0.00000000000E+00  0.22477260331E+03  0.22477260331E+03  0.00000000000E+00 0. -1.
         21   -1    0    0  502  503 -0.00000000000E+00 -0.00000000000E+00 -0.10636392335E+03  0.10636392335E+03  0.00000000000E+00 0. -1.
         25    2    1    2    0    0 -0.16260305042E+01 -0.27555725567E+02  0.20420464812E+03  0.24100933798E+03  0.12499600270E+03 0.  0.
          5    1    3    3  501    0  0.56688731898E+02 -0.94330826269E+01  0.53967791131E+02  0.78836082168E+02  0.10000000000E+00 0. -1.
         -5    1    3    3    0  501 -0.58314762402E+02 -0.18122642940E+02  0.15023685699E+03  0.16217325581E+03  0.10000000000E+00 0. -1.
         21    1    1    2  504  503  0.16260305042E+01  0.27555725567E+02 -0.85795968168E+02  0.90127188687E+02  0.00000000000E+00 0. -1.
<mgrwt>
<rscale>  1 0.12800767E+03</rscale>
<asrwt>0</asrwt>
<pdfrwt beam="1">  1       21 0.34580401E-01 0.12800767E+03</pdfrwt>
<pdfrwt beam="2">  1       21 0.16363680E-01 0.12800767E+03</pdfrwt>
<totfact> 0.27361837E+05</totfact>
</mgrwt>
</event>
<event>
 6    1  0.4271609E-002  0.1266040E+03  0.7546771E-02  0.1232584E+00
         21   -1    0    0  504  502  0.00000000000E+00  0.00000000000E+00  0.19152211172E+02  0.19152211172E+02  0.00000000000E+00 0.  1.
         21   -1    0    0  502  503 -0.00000000000E+00 -0.00000000000E+00 -0.30769975212E+03  0.30769975212E+03  0.00000000000E+00 0.  1.
         25    2    1    2    0    0 -0.20058921811E+02  0.84003586988E+00 -0.20514016672E+03  0.24106235973E+03  0.12500202906E+03 0.  0.
          5    1    3    3  501    0  0.44827050196E+02 -0.20392307071E+02 -0.13258920483E+03  0.14143980293E+03  0.10000000000E+00 0. -1.
         -5    1    3    3    0  501 -0.64885972008E+02  0.21232342941E+02 -0.72550961893E+02  0.99622556792E+02  0.10000000000E+00 0. -1.
         21    1    1    2  504  503  0.20058921811E+02 -0.84003586988E+00 -0.83407374227E+02  0.85789603566E+02  0.00000000000E+00 0.  1.
<mgrwt>
<rscale>  1 0.12660400E+03</rscale>
<asrwt>0</asrwt>
<pdfrwt beam="1">  1       21 0.29464944E-02 0.12660400E+03</pdfrwt>
<pdfrwt beam="2">  1       21 0.47338418E-01 0.12660400E+03</pdfrwt>
<totfact> 0.27604242E+06</totfact>
</mgrwt>
</event>
<event>
 6    1  0.4271609E-002  0.1433855E+03  0.7546771E-02  0.1208845E+00
         21   -1    0    0  503  502  0.00000000000E+00  0.00000000000E+00  0.25134362413E+02  0.25134362413E+02  0.00000000000E+00 0.  1.
         21   -1    0    0  504  503 -0.00000000000E+00 -0.00000000000E+00 -0.74906391615E+03  0.74906391615E+03  0.00000000000E+00 0. -1.
         25    2    1    2    0    0 -0.80938064232E+01 -0.69779113574E+02 -0.20287850389E+03  0.24843328263E+03  0.12499909675E+03 0.  0.
          5    1    3    3  501    0 -0.28354617175E+02 -0.24382490780E+02  0.21555280602E+01  0.37458596783E+02  0.10000000000E+00 0. -1.
         -5    1    3    3    0  501  0.20260810752E+02 -0.45396622795E+02 -0.20503403195E+03  0.21097468585E+03  0.10000000000E+00 0. -1.
         21    1    1    2  504  502  0.80938064232E+01  0.69779113574E+02 -0.52105104985E+03  0.52576499593E+03  0.00000000000E+00 0. -1.
<mgrwt>
<rscale>  1 0.14338552E+03</rscale>
<asrwt>0</asrwt>
<pdfrwt beam="1">  1       21 0.38668247E-02 0.14338552E+03</pdfrwt>
<pdfrwt beam="2">  1       21 0.11524061E+00 0.14338552E+03</pdfrwt>
<totfact> 0.24566141E+05</totfact>
</mgrwt>
</event>
<event>
 6    1  0.4271609E-002  0.1337763E+03  0.7546771E-02  0.1221958E+00
         21   -1    0    0  504  502  0.00000000000E+00  0.00000000000E+00  0.97322077540E+01  0.97322077540E+01  0.00000000000E+00 0. -1.
         21   -1    0    0  502  503 -0.00000000000E+00 -0.00000000000E+00 -0.19086830503E+04  0.19086830503E+04  0.00000000000E+00 0. -1.
         25    2    1    2    0    0  0.12319984092E+02 -0.46066965109E+02 -0.46996603829E+03  0.48863502387E+03  0.12498864796E+03 0.  0.
          5    1    3    3  501    0 -0.18830867411E+01 -0.86640558393E+02 -0.36625072971E+03  0.37636383911E+03  0.10000000000E+00 0. -1.
         -5    1    3    3    0  501  0.14203070833E+02  0.40573593285E+02 -0.10371530858E+03  0.11227118476E+03  0.10000000000E+00 0. -1.
         21    1    1    2  504  503 -0.12319984092E+02  0.46066965109E+02 -0.14289848043E+04  0.14297802342E+04  0.00000000000E+00 0. -1.
<mgrwt>
<rscale>  1 0.13377634E+03</rscale>
<asrwt>0</asrwt>
<pdfrwt beam="1">  1       21 0.14972622E-02 0.13377634E+03</pdfrwt>
<pdfrwt beam="2">  1       21 0.29364365E+00 0.13377634E+03</pdfrwt>
<totfact> 0.77172707E+04</totfact>
</mgrwt>
</event>
<event>
 6    1  0.4271609E-002  0.1275093E+03  0.7546771E-02  0.1231199E+00
         21   -1    0    0  503  502  0.00000000000E+00  0.00000000000E+00  0.16732814942E+03  0.16732814942E+03  0.00000000000E+00 0. -1.
         21   -1    0    0  504  503 -0.00000000000E+00 -0.00000000000E+00 -0.15472546595E+03  0.15472546595E+03  0.00000000000E+00 0. -1.
         25    2    1    2    0    0 -0.10570851153E+01 -0.25141531392E+02  0.14164359027E+03  0.19058206081E+03  0.12500160483E+03 0.  0.
          5    1    3    3  501    0  0.53105634895E+02 -0.73108760726E+00  0.22963322951E+02  0.57862484804E+02  0.10000000000E+00 0. -1.
         -5    1    3    3    0  501 -0.54162720011E+02 -0.24410443785E+02  0.11868026732E+03  0.13271957601E+03  0.10000000000E+00 0. -1.
         21    1    1    2  504  502  0.10570851153E+01  0.25141531392E+02 -0.12904090680E+03  0.13147155456E+03  0.00000000000E+00 0. -1.
<mgrwt>
<rscale>  1 0.12750928E+03</rscale>
<asrwt>0</asrwt>
<pdfrwt beam="1">  1       21 0.25742792E-01 0.12750928E+03</pdfrwt>
<pdfrwt beam="2">  1       21 0.23803918E-01 0.12750928E+03</pdfrwt>
<totfact> 0.24193333E+05</totfact>
</mgrwt>
</event>
<event>
 6    1  0.4271609E-002  0.1395333E+03  0.7546771E-02  0.1213958E+00
         21   -1    0    0  503  502  0.00000000000E+00  0.00000000000E+00  0.28758633431E+02  0.28758633431E+02  0.00000000000E+00 0. -1.
         21   -1    0    0  504  503 -0.00000000000E+00 -0.00000000000E+00 -0.60597471824E+03  0.60597471824E+03  0.00000000000E+00 0. -1.
         25    2    1    2    0    0 -0.53658981428E+02 -0.31060442389E+02 -0.15731518813E+03  0.21027982018E+03  0.12500198793E+03 0.  0.
          5    1    3    3  501    0 -0.50399445148E+02 -0.52587109559E+02 -0.26259455459E+02  0.77427883634E+02  0.10000000000E+00 0. -1.
         -5    1    3    3    0  501 -0.32595362802E+01  0.21526667170E+02 -0.13105573267E+03  0.13285193654E+03  0.10000000000E+00 0. -1.
         21    1    1    2  504  502  0.53658981428E+02  0.31060442389E+02 -0.41990089668E+03  0.42445353149E+03  0.00000000000E+00 0. -1.
<mgrwt>
<rscale>  1 0.13953327E+03</rscale>
<asrwt>0</asrwt>
<pdfrwt beam="1">  1       21 0.44244055E-02 0.13953327E+03</pdfrwt>
<pdfrwt beam="2">  1       21 0.93226873E-01 0.13953327E+03</pdfrwt>
<totfact> 0.32439127E+05</totfact>
</mgrwt>
</event>
<event>
 6    1  0.4271609E-002  0.1353845E+03  0.7546771E-02  0.1219678E+00
         21   -1    0    0  503  502  0.00000000000E+00  0.00000000000E+00  0.10333161870E+03  0.10333161870E+03  0.00000000000E+00 0.  1.
         21   -1    0    0  504  503 -0.00000000000E+00 -0.00000000000E+00 -0.93687489812E+02  0.93687489812E+02  0.00000000000E+00 0.  1.
         25    2    1    2    0    0 -0.51987190695E+02  0.80603287590E-01  0.34031127588E+02  0.13959611486E+03  0.12500513248E+03 0.  0.
          5    1    3    3  501    0 -0.52773665623E+02  0.57384486092E+02  0.22430229094E+02  0.81124374910E+02  0.10000000000E+00 0. -1.
         -5    1    3    3    0  501  0.78647492852E+00 -0.57303882805E+02  0.11600898494E+02  0.58471739953E+02  0.10000000000E+00 0. -1.
         21    1    1    2  504  502  0.51987190695E+02 -0.80603287590E-01 -0.24386998704E+02  0.57422993644E+02  0.00000000000E+00 0.  1.
<mgrwt>
<rscale>  1 0.13538448E+03</rscale>
<asrwt>0</asrwt>
<pdfrwt beam="1">  1       21 0.15897172E-01 0.13538448E+03</pdfrwt>
<pdfrwt beam="2">  1       21 0.14413460E-01 0.13538448E+03</pdfrwt>
<totfact> 0.14849298E+06</totfact>
</mgrwt>
</event>
<event>
 6    1  0.4271609E-002  0.1264866E+03  0.7546771E-02  0.1232764E+00
         21   -1    0    0  504  502  0.00000000000E+00  0.00000000000E+00  0.86440752974E+02  0.86440752974E+02  0.00000000000E+00 0. -1.
         21   -1    0    0  502  503 -0.00000000000E+00 -0.00000000000E+00 -0.97080509783E+02  0.97080509783E+02  0.00000000000E+00 0. -1.
         25    2    1    2    0    0 -0.12202642424E+02 -0.14995051497E+02  0.37265597054E+02  0.13186200434E+03  0.12500042965E+03 0.  0.
          5    1    3    3  501    0 -0.84463143553E+01 -0.48466956109E+02  0.69559668695E+02  0.85199434092E+02  0.10000000000E+00 0. -1.
         -5    1    3    3    0  501 -0.37563280687E+01  0.33471904612E+02 -0.32294071641E+02  0.46662570247E+02  0.10000000000E+00 0. -1.
         21    1    1    2  504  503  0.12202642424E+02  0.14995051497E+02 -0.47905353863E+02  0.51659258418E+02  0.00000000000E+00 0. -1.
<mgrwt>
<rscale>  1 0.12648661E+03</rscale>
<asrwt>0</asrwt>
<pdfrwt beam="1">  1       21 0.13298577E-01 0.12648661E+03</pdfrwt>
<pdfrwt beam="2">  1       21 0.14935463E-01 0.12648661E+03</pdfrwt>
<totfact> 0.19172328E+06</totfact>
</mgrwt>
</event>
<event>
 6    1  0.4271609E-002  0.1600026E+03  0.7546771E-02  0.1188694E+00
         21   -1    0    0  503  502  0.00000000000E+00  0.00000000000E+00  0.48546579845E+03  0.48546579845E+03  0.00000000000E+00 0. -1.
         21   -1    0    0  504  503 -0.00000000000E+00 -0.00000000000E+00 -0.14873502960E+03  0.14873502960E+03  0.00000000000E+00 0. -1.
         25    2    1    2    0    0 -0.51874395747E+01 -0.99743950713E+02  0.45329121360E+03  0.48070130847E+03  0.12500023362E+03 0.  0.
          5    1    3    3  501    0  0.32734458043E+02 -0.85794668690E+02  0.41498526830E+03  0.42502359091E+03  0.10000000000E+00 0.  1.
         -5    1    3    3    0  501 -0.37921897618E+02 -0.13949282023E+02  0.38305945298E+02  0.55677717563E+02  0.10000000000E+00 0.  1.
         21    1    1    2  504  502  0.51874395747E+01  0.99743950713E+02 -0.11656044474E+03  0.15349951958E+03  0.00000000000E+00 0. -1.
<mgrwt>
<rscale>  1 0.16000257E+03</rscale>
<asrwt>0</asrwt>
<pdfrwt beam="1">  1       21 0.74687045E-01 0.16000257E+03</pdfrwt>
<pdfrwt beam="2">  1       21 0.22882312E-01 0.16000257E+03</pdfrwt>
<totfact> 0.29311444E+04</totfact>
</mgrwt>
</event>
<event>
 6    1  0.4271609E-002  0.1598464E+03  0.7546771E-02  0.1188870E+00
         21   -1    0    0  503  502  0.00000000000E+00  0.00000000000E+00  0.22774618080E+03  0.22774618080E+03  0.00000000000E+00 0. -1.
         21   -1    0    0  504  503 -0.00000000000E+00 -0.00000000000E+00 -0.10970906153E+03  0.10970906153E+03  0.00000000000E+00 0. -1.
         25    2    1    2    0    0  0.98624964738E+02  0.14023346185E+02  0.16287856609E+03  0.22821105136E+03  0.12500927471E+03 0.  0.
          5    1    3    3  501    0 -0.22663748450E+02 -0.16902627302E+02  0.59479987218E+02  0.65857597762E+02  0.10000000000E+00 0. -1.
         -5    1    3    3    0  501  0.12128871319E+03  0.30925973487E+02  0.10339857887E+03  0.16235345360E+03  0.10000000000E+00 0. -1.
         21    1    1    2  504  502 -0.98624964738E+02 -0.14023346185E+02 -0.44841446825E+02  0.10924419097E+03  0.00000000000E+00 0. -1.
<mgrwt>
<rscale>  1 0.15984635E+03</rscale>
<asrwt>0</asrwt>
<pdfrwt beam="1">  1       21 0.35037874E-01 0.15984635E+03</pdfrwt>
<pdfrwt beam="2">  1       21 0.16878317E-01 0.15984635E+03</pdfrwt>
<totfact> 0.25039979E+05</totfact>
</mgrwt>
</event>
<event>
 6    1  0.4271609E-002  0.1550906E+03  0.7546771E-02  0.1194354E+00
         21   -1    0    0  503  502  0.00000000000E+00  0.00000000000E+00  0.23518896473E+03  0.23518896473E+03  0.00000000000E+00 0. -1.
         21   -1    0    0  504  503 -0.00000000000E+00 -0.00000000000E+00 -0.83324229978E+02  0.83324229978E+02  0.00000000000E+00 0. -1.
         25    2    1    2    0    0  0.24342184956E+02  0.88514247661E+02  0.16422715350E+03  0.22588413121E+03  0.12500307507E+03 0.  0.
          5    1    3    3  501    0 -0.43213771851E+02  0.21370859055E+01  0.30453848241E+02  0.52909773071E+02  0.10000000000E+00 0.  1.
         -5    1    3    3    0  501  0.67555956807E+02  0.86377161755E+02  0.13377330526E+03  0.17297435814E+03  0.10000000000E+00 0.  1.
         21    1    1    2  504  502 -0.24342184956E+02 -0.88514247661E+02 -0.12362418748E+02  0.92629063499E+02  0.00000000000E+00 0. -1.
<mgrwt>
<rscale>  1 0.15509056E+03</rscale>
<asrwt>0</asrwt>
<pdfrwt beam="1">  1       21 0.36182918E-01 0.15509056E+03</pdfrwt>
<pdfrwt beam="2">  1       21 0.12819112E-01 0.15509056E+03</pdfrwt>
<totfact> 0.38679713E+05</totfact>
</mgrwt>
</event>
<event>
 6    1  0.4271609E-002  0.1265725E+03  0.7546771E-02  0.1232632E+00
         21   -1    0    0  504  502  0.00000000000E+00  0.00000000000E+00  0.10485448197E+03  0.10485448197E+03  0.00000000000E+00 0.  1.
         21   -1    0    0  502  503 -0.00000000000E+00 -0.00000000000E+00 -0.55867714909E+02  0.55867714909E+02  0.00000000000E+00 0.  1.
         25    2    1    2    0    0 -0.43852618355E+01 -0.19425344958E+02  0.57554015034E+02  0.13904335268E+03  0.12499605885E+03 0.  0.
          5    1    3    3  501    0 -0.26563575596E+02  0.44585488833E+02  0.28627849746E+01  0.51977830859E+02  0.10000000000E+00 0.  1.
         -5    1    3    3    0  501  0.22178313761E+02 -0.64010833792E+02  0.54691230059E+02  0.87065521817E+02  0.10000000000E+00 0.  1.
         21    1    1    2  504  503  0.43852618355E+01  0.19425344958E+02 -0.85672479734E+01  0.21678844202E+02  0.00000000000E+00 0.  1.
<mgrwt>
<rscale>  1 0.12657247E+03</rscale>
<asrwt>0</asrwt>
<pdfrwt beam="1">  1       21 0.16131459E-01 0.12657247E+03</pdfrwt>
<pdfrwt beam="2">  1       21 0.85950331E-02 0.12657247E+03</pdfrwt>
<totfact> 0.35913701E+06</totfact>
</mgrwt>
</event>
<event>
 6    1  0.4271609E-002  0.1271077E+03  0.7546771E-02  0.1231812E+00
         21   -1    0    0  503  502  0.00000000000E+00  0.00000000000E+00  0.47397801446E+02  0.47397801446E+02  0.00000000000E+00 0. -1.
         21   -1    0    0  504  503 -0.00000000000E+00 -0.00000000000E+00 -0.17723971978E+03  0.17723971978E+03  0.00000000000E+00 0. -1.
         25    2    1    2    0    0  0.22520196314E+01 -0.22972752557E+02 -0.42082022805E+02  0.13389272404E+03  0.12499418369E+03 0.  0.
          5    1    3    3  501    0  0.45718454525E+02 -0.42125298118E+02 -0.56756478749E+02  0.84178534709E+02  0.10000000000E+00 0. -1.
         -5    1    3    3    0  501 -0.43466434894E+02  0.19152545561E+02  0.14674455945E+02  0.49714189334E+02  0.10000000000E+00 0. -1.
         21    1    1    2  504  502 -0.22520196314E+01  0.22972752557E+02 -0.87759895531E+02  0.90744797184E+02  0.00000000000E+00 0. -1.
<mgrwt>
<rscale>  1 0.12710769E+03</rscale>
<asrwt>0</asrwt>
<pdfrwt beam="1">  1       21 0.72919694E-02 0.12710769E+03</pdfrwt>
<pdfrwt beam="2">  1       21 0.27267649E-01 0.12710769E+03</pdfrwt>
<totfact> 0.17984291E+06</totfact>
</mgrwt>
</event>
<event>
 6    1  0.4271609E-002  0.1298191E+03  0.7546771E-02  0.1227724E+00
         21   -1    0    0  504  502  0.00000000000E+00  0.00000000000E+00  0.40966687479E+03  0.40966687479E+03  0.00000000000E+00 0. -1.
         21   -1    0    0  502  503 -0.00000000000E+00 -0.00000000000E+00 -0.47139538501E+02  0.47139538501E+02  0.00000000000E+00 0.  1.
         25    2    1    2    0    0 -0.27147646343E+02 -0.22175444348E+02  0.39078355127E+03  0.41178243392E+03  0.12499697561E+03 0.  0.
          5    1    3    3  501    0 -0.16905622337E+02 -0.59320188272E+02  0.35107489232E+03  0.35645234579E+03  0.10000000000E+00 0.  1.
         -5    1    3    3    0  501 -0.10242024006E+02  0.37144743924E+02  0.39708658946E+02  0.55330088128E+02  0.10000000000E+00 0.  1.
         21    1    1    2  504  503  0.27147646343E+02  0.22175444348E+02 -0.28256214975E+02  0.45023979374E+02  0.00000000000E+00 0.  1.
<mgrwt>
<rscale>  1 0.12981906E+03</rscale>
<asrwt>0</asrwt>
<pdfrwt beam="1">  1       21 0.63025671E-01 0.12981906E+03</pdfrwt>
<pdfrwt beam="2">  1       21 0.72522370E-02 0.12981906E+03</pdfrwt>
<totfact> 0.33594850E+05</totfact>
</mgrwt>
</event>
<event>
 6    1  0.4271609E-002  0.1261210E+03  0.7546771E-02  0.1233328E+00
         21   -1    0    0  503  502  0.00000000000E+00  0.00000000000E+00  0.79305674491E+01  0.79305674491E+01  0.00000000000E+00 0.  1.
         21   -1    0    0  504  503 -0.00000000000E+00 -0.00000000000E+00 -0.65260824586E+03  0.65260824586E+03  0.00000000000E+00 0.  1.
         25    2    1    2    0    0 -0.16499058973E+02 -0.22963418976E+01 -0.53918958282E+03  0.55374353980E+03  0.12501603702E+03 0.  0.
          5    1    3    3  501    0 -0.26821735938E+02 -0.54616514689E+02 -0.16673935545E+03  0.17749476571E+03  0.10000000000E+00 0.  1.
         -5    1    3    3    0  501  0.10322676965E+02  0.52320172791E+02 -0.37245022737E+03  0.37624877409E+03  0.10000000000E+00 0.  1.
         21    1    1    2  504  502  0.16499058973E+02  0.22963418976E+01 -0.10548809559E+03  0.10679527351E+03  0.00000000000E+00 0.  1.
<mgrwt>
<rscale>  1 0.12612098E+03</rscale>
<asrwt>0</asrwt>
<pdfrwt beam="1">  1       21 0.12200875E-02 0.12612098E+03</pdfrwt>
<pdfrwt beam="2">  1       21 0.10040125E+00 0.12612098E+03</pdfrwt>
<totfact> 0.22179755E+06</totfact>
</mgrwt>
</event>
<event>
 6    1  0.4271609E-002  0.1744185E+03  0.7546771E-02  0.1173317E+00
         21   -1    0    0  504  502  0.00000000000E+00  0.00000000000E+00  0.46417548122E+03  0.46417548122E+03  0.00000000000E+00 0. -1.
         21   -1    0    0  502  503 -0.00000000000E+00 -0.00000000000E+00 -0.50215286475E+02  0.50215286475E+02  0.00000000000E+00 0. -1.
         25    2    1    2    0    0  0.11959176057E+03  0.22257323000E+02  0.30364507049E+03  0.35017443397E+03  0.12499691095E+03 0.  0.
          5    1    3    3  501    0  0.30776349187E+02 -0.44557862645E+02  0.15763003555E+03  0.16667280792E+03  0.10000000000E+00 0. -1.
         -5    1    3    3    0  501  0.88815411386E+02  0.66815185645E+02  0.14601503494E+03  0.18350162605E+03  0.10000000000E+00 0. -1.
         21    1    1    2  504  503 -0.11959176057E+03 -0.22257323000E+02  0.11031512425E+03  0.16421633373E+03  0.00000000000E+00 0. -1.
<mgrwt>
<rscale>  1 0.17441848E+03</rscale>
<asrwt>0</asrwt>
<pdfrwt beam="1">  1       21 0.71411610E-01 0.17441848E+03</pdfrwt>
<pdfrwt beam="2">  1       21 0.77254290E-02 0.17441848E+03</pdfrwt>
<totfact> 0.22726779E+05</totfact>
</mgrwt>
</event>
<event>
 6    1  0.4271609E-002  0.1334672E+03  0.7546771E-02  0.1222400E+00
         21   -1    0    0  503  502  0.00000000000E+00  0.00000000000E+00  0.46122695867E+02  0.46122695867E+02  0.00000000000E+00 0.  1.
         21   -1    0    0  504  503 -0.00000000000E+00 -0.00000000000E+00 -0.18654104894E+03  0.18654104894E+03  0.00000000000E+00 0.  1.
         25    2    1    2    0    0 -0.33027209348E+02 -0.33139567298E+02 -0.77768562259E+02  0.15447152162E+03  0.12499789693E+03 0.  0.
          5    1    3    3  501    0  0.39036835183E+02 -0.42254652859E+02 -0.17626385482E+02  0.60166682262E+02  0.10000000000E+00 0.  1.
         -5    1    3    3    0  501 -0.72064044531E+02  0.91150855610E+01 -0.60142176777E+02  0.94304839358E+02  0.10000000000E+00 0.  1.
         21    1    1    2  504  502  0.33027209348E+02  0.33139567298E+02 -0.62649790816E+02  0.78192223189E+02  0.00000000000E+00 0. -1.
<mgrwt>
<rscale>  1 0.13346723E+03</rscale>
<asrwt>0</asrwt>
<pdfrwt beam="1">  1       21 0.70957995E-02 0.13346723E+03</pdfrwt>
<pdfrwt beam="2">  1       21 0.28698622E-01 0.13346723E+03</pdfrwt>
<totfact> 0.17106573E+06</totfact>
</mgrwt>
</event>
<event>
 6    1  0.4271609E-002  0.1288067E+03  0.7546771E-02  0.1229237E+00
         21   -1    0    0  503  502  0.00000000000E+00  0.00000000000E+00  0.42075915564E+02  0.42075915564E+02  0.00000000000E+00 0.  1.
         21   -1    0    0  504  503 -0.00000000000E+00 -0.00000000000E+00 -0.15351448709E+03  0.15351448709E+03  0.00000000000E+00 0.  1.
         25    2    1    2    0    0 -0.20457410930E+01 -0.31023081417E+02 -0.81477645780E+02  0.15241316665E+03  0.12499819987E+03 0.  0.
          5    1    3    3  501    0 -0.13434044227E+02  0.47009680055E+02 -0.40807426940E+02  0.63683904219E+02  0.10000000000E+00 0.  1.
         -5    1    3    3    0  501  0.11388303134E+02 -0.78032761472E+02 -0.40670218840E+02  0.88729262432E+02  0.10000000000E+00 0.  1.
         21    1    1    2  504  502  0.20457410930E+01  0.31023081417E+02 -0.29960925744E+02  0.43177236001E+02  0.00000000000E+00 0.  1.
<mgrwt>
<rscale>  1 0.12880670E+03</rscale>
<asrwt>0</asrwt>
<pdfrwt beam="1">  1       21 0.64732178E-02 0.12880670E+03</pdfrwt>
<pdfrwt beam="2">  1       21 0.23617613E-01 0.12880670E+03</pdfrwt>
<totfact> 0.28943560E+06</totfact>
</mgrwt>
</event>
<event>
 6    1  0.4271609E-002  0.1514711E+03  0.7546771E-02  0.1198677E+00
         21   -1    0    0  504  502  0.00000000000E+00  0.00000000000E+00  0.46657227141E+02  0.46657227141E+02  0.00000000000E+00 0. -1.
         21   -1    0    0  502  503 -0.00000000000E+00 -0.00000000000E+00 -0.30110061906E+03  0.30110061906E+03  0.00000000000E+00 0. -1.
         25    2    1    2    0    0  0.64452382727E+02 -0.56252601829E+02 -0.16541476522E+03  0.22428897877E+03  0.12500014638E+03 0.  0.
          5    1    3    3  501    0  0.90386659291E+02 -0.76520774285E+02 -0.12555326588E+03  0.17259434999E+03  0.10000000000E+00 0. -1.
         -5    1    3    3    0  501 -0.25934276564E+02  0.20268172456E+02 -0.39861499338E+02  0.51694628783E+02  0.10000000000E+00 0. -1.
         21    1    1    2  504  503 -0.64452382727E+02  0.56252601829E+02 -0.89028626694E+02  0.12346886742E+03  0.00000000000E+00 0. -1.
<mgrwt>
<rscale>  1 0.15147112E+03</rscale>
<asrwt>0</asrwt>
<pdfrwt beam="1">  1       21 0.71780346E-02 0.15147112E+03</pdfrwt>
<pdfrwt beam="2">  1       21 0.46323175E-01 0.15147112E+03</pdfrwt>
<totfact> 0.64985993E+05</totfact>
</mgrwt>
</event>
<event>
 6    1  0.4271609E-002  0.1291563E+03  0.7546771E-02  0.1228713E+00
         21   -1    0    0  504  502  0.00000000000E+00  0.00000000000E+00  0.15911945992E+03  0.15911945992E+03  0.00000000000E+00 0. -1.
         21   -1    0    0  502  503 -0.00000000000E+00 -0.00000000000E+00 -0.54989779840E+02  0.54989779840E+02  0.00000000000E+00 0. -1.
         25    2    1    2    0    0  0.32481484975E+02 -0.80209009986E+00  0.12145037826E+03  0.17728945161E+03  0.12500266020E+03 0.  0.
          5    1    3    3  501    0  0.10721061226E+02  0.23012320426E+02 -0.19929815991E+02  0.32275619446E+02  0.10000000000E+00 0. -1.
         -5    1    3    3    0  501  0.21760423750E+02 -0.23814410526E+02  0.14138019425E+03  0.14501383216E+03  0.10000000000E+00 0. -1.
         21    1    1    2  504  503 -0.32481484975E+02  0.80209009986E+00 -0.17320698177E+02  0.36819788159E+02  0.00000000000E+00 0. -1.
<mgrwt>
<rscale>  1 0.12915632E+03</rscale>
<asrwt>0</asrwt>
<pdfrwt beam="1">  1       21 0.24479917E-01 0.12915632E+03</pdfrwt>
<pdfrwt beam="2">  1       21 0.84599662E-02 0.12915632E+03</pdfrwt>
<totfact> 0.17090730E+06</totfact>
</mgrwt>
</event>
<event>
 6    1  0.4271609E-002  0.1269117E+03  0.7546771E-02  0.1232112E+00
         21   -1    0    0  504  502  0.00000000000E+00  0.00000000000E+00  0.37415564297E+02  0.37415564297E+02  0.00000000000E+00 0. -1.
         21   -1    0    0  502  503 -0.00000000000E+00 -0.00000000000E+00 -0.45729232307E+03  0.45729232307E+03  0.00000000000E+00 0. -1.
         25    2    1    2    0    0 -0.21689481568E+02 -0.34793876953E+01 -0.71554329092E+02  0.14569348255E+03  0.12499611633E+03 0.  0.
          5    1    3    3  501    0 -0.74264452420E+02 -0.26995472065E+01 -0.40719971397E+02  0.84738553911E+02  0.10000000000E+00 0. -1.
         -5    1    3    3    0  501  0.52574970852E+02 -0.77984048877E+00 -0.30834357695E+02  0.60954928642E+02  0.10000000000E+00 0. -1.
         21    1    1    2  504  503  0.21689481568E+02  0.34793876953E+01 -0.34832242968E+03  0.34901440481E+03  0.00000000000E+00 0. -1.
<mgrwt>
<rscale>  1 0.12691166E+03</rscale>
<asrwt>0</asrwt>
<pdfrwt beam="1">  1       21 0.57562403E-02 0.12691166E+03</pdfrwt>
<pdfrwt beam="2">  1       21 0.70352669E-01 0.12691166E+03</pdfrwt>
<totfact> 0.39271993E+05</totfact>
</mgrwt>
</event>
<event>
 6    1  0.4271609E-002  0.1550320E+03  0.7546771E-02  0.1194423E+00
         21   -1    0    0  503  502  0.00000000000E+00  0.00000000000E+00  0.76694210480E+03  0.76694210480E+03  0.00000000000E+00 0.  1.
         21   -1    0    0  504  503 -0.00000000000E+00 -0.00000000000E+00 -0.24532914766E+02  0.24532914766E+02  0.00000000000E+00 0.  1.
         25    2    1    2    0    0 -0.79847064677E+02  0.45116753968E+02  0.61656858124E+03  0.63576074903E+03  0.12499535756E+03 0.  0.
          5    1    3    3  501    0 -0.36897331796E+02 -0.37697475584E+02  0.12936703007E+03  0.13970809292E+03  0.10000000000E+00 0. -1.
         -5    1    3    3    0  501 -0.42949732880E+02  0.82814229552E+02  0.48720155117E+03  0.49605265611E+03  0.10000000000E+00 0. -1.
         21    1    1    2  504  502  0.79847064677E+02 -0.45116753968E+02  0.12584060880E+03  0.15571427054E+03  0.00000000000E+00 0.  1.
<mgrwt>
<rscale>  1 0.15503198E+03</rscale>
<asrwt>0</asrwt>
<pdfrwt beam="1">  1       21 0.11799107E+00 0.15503198E+03</pdfrwt>
<pdfrwt beam="2">  1       21 0.37742952E-02 0.15503198E+03</pdfrwt>
<totfact> 0.24074499E+05</totfact>
</mgrwt>
</event>
<event>
 6    1  0.4271609E-002  0.1292566E+03  0.7546771E-02  0.1228563E+00
         21   -1    0    0  503  502  0.00000000000E+00  0.00000000000E+00  0.63993691637E+03  0.63993691637E+03  0.00000000000E+00 0. -1.
         21   -1    0    0  504  503 -0.00000000000E+00 -0.00000000000E+00 -0.11660388236E+02  0.11660388236E+02  0.00000000000E+00 0. -1.
         25    2    1    2    0    0 -0.17408554817E+02 -0.27917475226E+02  0.57188150928E+03  0.58630686614E+03  0.12499934967E+03 0.  0.
          5    1    3    3  501    0 -0.34358178525E+02 -0.16917794233E+02  0.45222098502E+02  0.59259972883E+02  0.10000000000E+00 0.  1.
         -5    1    3    3    0  501  0.16949623708E+02 -0.10999680994E+02  0.52665941078E+03  0.52704689326E+03  0.10000000000E+00 0.  1.
         21    1    1    2  504  502  0.17408554817E+02  0.27917475226E+02  0.56395018847E+02  0.65290438462E+02  0.00000000000E+00 0. -1.
<mgrwt>
<rscale>  1 0.12925665E+03</rscale>
<asrwt>0</asrwt>
<pdfrwt beam="1">  1       21 0.98451806E-01 0.12925665E+03</pdfrwt>
<pdfrwt beam="2">  1       21 0.17939064E-02 0.12925665E+03</pdfrwt>
<totfact> 0.12554207E+06</totfact>
</mgrwt>
</event>
<event>
 6    1  0.4271609E-002  0.1262567E+03  0.7546771E-02  0.1233118E+00
         21   -1    0    0  503  502  0.00000000000E+00  0.00000000000E+00  0.14308862768E+03  0.14308862768E+03  0.00000000000E+00 0.  1.
         21   -1    0    0  504  503 -0.00000000000E+00 -0.00000000000E+00 -0.36845970576E+02  0.36845970576E+02  0.00000000000E+00 0.  1.
         25    2    1    2    0    0  0.46075926099E+01  0.16968366763E+02  0.10070608931E+03  0.16150069028E+03  0.12502640185E+03 0.  0.
          5    1    3    3  501    0  0.49802387435E+02  0.22373273281E+02  0.10229819731E+03  0.11595590681E+03  0.10000000000E+00 0.  1.
         -5    1    3    3    0  501 -0.45194794825E+02 -0.54049065179E+01 -0.15921080032E+01  0.45544783473E+02  0.10000000000E+00 0.  1.
         21    1    1    2  504  502 -0.46075926099E+01 -0.16968366763E+02  0.55365678010E+01  0.18433907976E+02  0.00000000000E+00 0. -1.
<mgrwt>
<rscale>  1 0.12625671E+03</rscale>
<asrwt>0</asrwt>
<pdfrwt beam="1">  1       21 0.22013635E-01 0.12625671E+03</pdfrwt>
<pdfrwt beam="2">  1       21 0.56686109E-02 0.12625671E+03</pdfrwt>
<totfact> 0.41316957E+06</totfact>
</mgrwt>
</event>
<event>
 6    1  0.4271609E-002  0.1270897E+03  0.7546771E-02  0.1231839E+00
         21   -1    0    0  504  502  0.00000000000E+00  0.00000000000E+00  0.59406489111E+03  0.59406489111E+03  0.00000000000E+00 0. -1.
         21   -1    0    0  502  503 -0.00000000000E+00 -0.00000000000E+00 -0.13170933727E+02  0.13170933727E+02  0.00000000000E+00 0. -1.
         25    2    1    2    0    0 -0.14925335169E+02 -0.17392327941E+02  0.56555296590E+03  0.57965676175E+03  0.12500618186E+03 0.  0.
          5    1    3    3  501    0 -0.64516148839E+02 -0.30659186108E+02  0.25195094640E+03  0.26188090527E+03  0.10000000000E+00 0. -1.
         -5    1    3    3    0  501  0.49590813670E+02  0.13266858167E+02  0.31360201950E+03  0.31777585648E+03  0.10000000000E+00 0. -1.
         21    1    1    2  504  503  0.14925335169E+02  0.17392327941E+02  0.15340991483E+02  0.27579063088E+02  0.00000000000E+00 0. -1.
<mgrwt>
<rscale>  1 0.12708975E+03</rscale>
<asrwt>0</asrwt>
<pdfrwt beam="1">  1       21 0.91394578E-01 0.12708975E+03</pdfrwt>
<pdfrwt beam="2">  1       21 0.20262980E-02 0.12708975E+03</pdfrwt>
<totfact> 0.12252659E+06</totfact>
</mgrwt>
</event>
<event>
 6    1  0.4271609E-002  0.1297913E+03  0.7546771E-02  0.1227766E+00
         21   -1    0    0  503  502  0.00000000000E+00  0.00000000000E+00  0.87906105949E+01  0.87906105949E+01  0.00000000000E+00 0.  1.
         21   -1    0    0  504  503 -0.00000000000E+00 -0.00000000000E+00 -0.85373008269E+03  0.85373008269E+03  0.00000000000E+00 0.  1.
         25    2    1    2    0    0 -0.29008772176E+02  0.19470124953E+02 -0.53051174017E+03  0.54615793752E+03  0.12500076653E+03 0.  0.
          5    1    3    3  501    0  0.35414655370E+02  0.47642492066E+02 -0.25428870668E+03  0.26112594894E+03  0.10000000000E+00 0.  1.
         -5    1    3    3    0  501 -0.64423427545E+02 -0.28172367113E+02 -0.27622303349E+03  0.28503198858E+03  0.10000000000E+00 0.  1.
         21    1    1    2  504  502  0.29008772176E+02 -0.19470124953E+02 -0.31442773192E+03  0.31636275576E+03  0.00000000000E+00 0.  1.
<mgrwt>
<rscale>  1 0.12979132E+03</rscale>
<asrwt>0</asrwt>
<pdfrwt beam="1">  1       21 0.13524020E-02 0.12979132E+03</pdfrwt>
<pdfrwt beam="2">  1       21 0.13134306E+00 0.12979132E+03</pdfrwt>
<totfact> 0.98444086E+05</totfact>
</mgrwt>
</event>
<event>
 6    1  0.4271609E-002  0.1289037E+03  0.7546771E-02  0.1229092E+00
         21   -1    0    0  503  502  0.00000000000E+00  0.00000000000E+00  0.82789594547E+02  0.82789594547E+02  0.00000000000E+00 0. -1.
         21   -1    0    0  504  503 -0.00000000000E+00 -0.00000000000E+00 -0.25031140248E+03  0.25031140248E+03  0.00000000000E+00 0. -1.
         25    2    1    2    0    0 -0.46410097961E+01 -0.31118322926E+02  0.30608712793E+02  0.13248795598E+03  0.12500510465E+03 0.  0.
          5    1    3    3  501    0 -0.42484743341E+02  0.21371212077E+02  0.45793540295E+02  0.66020757759E+02  0.10000000000E+00 0.  1.
         -5    1    3    3    0  501  0.37843733545E+02 -0.52489535004E+02 -0.15184827502E+02  0.66467198224E+02  0.10000000000E+00 0.  1.
         21    1    1    2  504  502  0.46410097961E+01  0.31118322926E+02 -0.19813052072E+03  0.20061304104E+03  0.00000000000E+00 0. -1.
<mgrwt>
<rscale>  1 0.12890371E+03</rscale>
<asrwt>0</asrwt>
<pdfrwt beam="1">  1       21 0.12736861E-01 0.12890371E+03</pdfrwt>
<pdfrwt beam="2">  1       21 0.38509446E-01 0.12890371E+03</pdfrwt>
<totfact> 0.34703436E+05</totfact>
</mgrwt>
</event>
<event>
 6    1  0.4271609E-002  0.1260575E+03  0.7546771E-02  0.1233426E+00
         21   -1    0    0  503  502  0.00000000000E+00  0.00000000000E+00  0.40627337184E+03  0.40627337184E+03  0.00000000000E+00 0.  1.
         21   -1    0    0  504  503 -0.00000000000E+00 -0.00000000000E+00 -0.25618589135E+02  0.25618589135E+02  0.00000000000E+00 0.  1.
         25    2    1    2    0    0  0.17574311305E+00 -0.16278796565E+02  0.39218274310E+03  0.41194392914E+03  0.12500186667E+03 0.  0.
          5    1    3    3  501    0  0.61247617332E+02  0.15965521551E+01  0.22025627336E+03  0.22861901837E+03  0.10000000000E+00 0. -1.
         -5    1    3    3    0  501 -0.61071874219E+02 -0.17875348720E+02  0.17192646974E+03  0.18332491078E+03  0.10000000000E+00 0. -1.
         21    1    1    2  504  502 -0.17574311305E+00  0.16278796565E+02 -0.11527960391E+02  0.19948031833E+02  0.00000000000E+00 0.  1.
<mgrwt>
<rscale>  1 0.12605751E+03</rscale>
<asrwt>0</asrwt>
<pdfrwt beam="1">  1       21 0.62503591E-01 0.12605751E+03</pdfrwt>
<pdfrwt beam="2">  1       21 0.39413217E-02 0.12605751E+03</pdfrwt>
<totfact> 0.95611222E+05</totfact>
</mgrwt>
</event>
<event>
 6    1  0.4271609E-002  0.1283434E+03  0.7546771E-02  0.1229935E+00
         21   -1    0    0  504  502  0.00000000000E+00  0.00000000000E+00  0.20618518274E+02  0.20618518274E+02  0.00000000000E+00 0.  1.
         21   -1    0    0  502  503 -0.00000000000E+00 -0.00000000000E+00 -0.30245092351E+03  0.30245092351E+03  0.00000000000E+00 0.  1.
         25    2    1    2    0    0  0.16553475527E+02  0.24350462025E+02 -0.22358199723E+03  0.25780021024E+03  0.12492028003E+03 0.  0.
          5    1    3    3  501    0  0.38743422452E+02 -0.30948167796E+02 -0.17195053809E+03  0.17895764701E+03  0.10000000000E+00 0. -1.
         -5    1    3    3    0  501 -0.22189946924E+02  0.55298629821E+02 -0.51631459136E+02  0.78842563233E+02  0.10000000000E+00 0. -1.
         21    1    1    2  504  503 -0.16553475527E+02 -0.24350462025E+02 -0.58250408004E+02  0.65269231538E+02  0.00000000000E+00 0.  1.
<mgrwt>
<rscale>  1 0.12834344E+03</rscale>
<asrwt>0</asrwt>
<pdfrwt beam="1">  1       21 0.31720796E-02 0.12834344E+03</pdfrwt>
<pdfrwt beam="2">  1       21 0.46530914E-01 0.12834344E+03</pdfrwt>
<totfact> 0.25342715E+06</totfact>
</mgrwt>
</event>
<event>
 6    1  0.4271609E-002  0.1772290E+03  0.7546771E-02  0.1170512E+00
         21   -1    0    0  503  502  0.00000000000E+00  0.00000000000E+00  0.16667922192E+03  0.16667922192E+03  0.00000000000E+00 0.  1.
         21   -1    0    0  504  503 -0.00000000000E+00 -0.00000000000E+00 -0.13767250444E+03  0.13767250444E+03  0.00000000000E+00 0.  1.
         25    2    1    2    0    0  0.10495951464E+03  0.69057462442E+02  0.20770104353E+02  0.17844193871E+03  0.12499878169E+03 0.  0.
          5    1    3    3  501    0  0.24886030260E+02  0.67877913940E+02 -0.35524854535E+02  0.80552783892E+02  0.10000000000E+00 0. -1.
         -5    1    3    3    0  501  0.80073484376E+02  0.11795485022E+01  0.56294958888E+02  0.97889154818E+02  0.10000000000E+00 0. -1.
         21    1    1    2  504  502 -0.10495951464E+03 -0.69057462442E+02  0.82366131295E+01  0.12590978766E+03  0.00000000000E+00 0.  1.
<mgrwt>
<rscale>  1 0.17722903E+03</rscale>
<asrwt>0</asrwt>
<pdfrwt beam="1">  1       21 0.25642957E-01 0.17722903E+03</pdfrwt>
<pdfrwt beam="2">  1       21 0.21180385E-01 0.17722903E+03</pdfrwt>
<totfact> 0.30020482E+05</totfact>
</mgrwt>
</event>
<event>
 6    1  0.4271609E-002  0.1445174E+03  0.7546771E-02  0.1207377E+00
         21   -1    0    0  503  502  0.00000000000E+00  0.00000000000E+00  0.42036339240E+02  0.42036339240E+02  0.00000000000E+00 0.  1.
         21   -1    0    0  504  503 -0.00000000000E+00 -0.00000000000E+00 -0.31421944635E+03  0.31421944635E+03  0.00000000000E+00 0.  1.
         25    2    1    2    0    0  0.19469152801E+02  0.69821676859E+02 -0.12057829750E+03  0.18821372904E+03  0.12502466758E+03 0.  0.
          5    1    3    3  501    0 -0.12250041612E+02 -0.32890561523E+02 -0.17251323269E+02  0.39108448082E+02  0.10000000000E+00 0.  1.
         -5    1    3    3    0  501  0.31719194413E+02  0.10271223838E+03 -0.10332697423E+03  0.14910528096E+03  0.10000000000E+00 0.  1.
         21    1    1    2  504  502 -0.19469152801E+02 -0.69821676859E+02 -0.15160480961E+03  0.16804205655E+03  0.00000000000E+00 0.  1.
<mgrwt>
<rscale>  1 0.14451741E+03</rscale>
<asrwt>0</asrwt>
<pdfrwt beam="1">  1       21 0.64671291E-02 0.14451741E+03</pdfrwt>
<pdfrwt beam="2">  1       21 0.48341453E-01 0.14451741E+03</pdfrwt>
<totfact> 0.71208744E+05</totfact>
</mgrwt>
</event>
<event>
 6    1  0.4271609E-002  0.1272640E+03  0.7546771E-02  0.1231573E+00
         21   -1    0    0  504  502  0.00000000000E+00  0.00000000000E+00  0.14036848761E+03  0.14036848761E+03  0.00000000000E+00 0.  1.
         21   -1    0    0  502  503 -0.00000000000E+00 -0.00000000000E+00 -0.40750632246E+02  0.40750632246E+02  0.00000000000E+00 0.  1.
         25    2    1    2    0    0 -0.22582285178E+02  0.78233265963E+01  0.86223318202E+02  0.15372244727E+03  0.12499986460E+03 0.  0.
          5    1    3    3  501    0 -0.41226775734E+02 -0.77790832040E+01 -0.18762298201E+02  0.45958622768E+02  0.10000000000E+00 0.  1.
         -5    1    3    3    0  501  0.18644490555E+02  0.15602409800E+02  0.10498561640E+03  0.10776382450E+03  0.10000000000E+00 0.  1.
         21    1    1    2  504  503  0.22582285178E+02 -0.78233265963E+01  0.13394537158E+02  0.27396672583E+02  0.00000000000E+00 0.  1.
<mgrwt>
<rscale>  1 0.12726402E+03</rscale>
<asrwt>0</asrwt>
<pdfrwt beam="1">  1       21 0.21595152E-01 0.12726402E+03</pdfrwt>
<pdfrwt beam="2">  1       21 0.62693281E-02 0.12726402E+03</pdfrwt>
<totfact> 0.36116060E+06</totfact>
</mgrwt>
</event>
<event>
 6    1  0.4271609E-002  0.1685829E+03  0.7546771E-02  0.1179334E+00
         21   -1    0    0  504  502  0.00000000000E+00  0.00000000000E+00  0.10074853217E+04  0.10074853217E+04  0.00000000000E+00 0.  1.
         21   -1    0    0  502  503 -0.00000000000E+00 -0.00000000000E+00 -0.48354703198E+02  0.48354703198E+02  0.00000000000E+00 0.  1.
         25    2    1    2    0    0  0.75080913598E+02 -0.84602292425E+02  0.92125633668E+03  0.93655401273E+03  0.12500195766E+03 0.  0.
          5    1    3    3  501    0  0.87765674809E+02 -0.94886923622E+02  0.55175965296E+03  0.56669662659E+03  0.10000000000E+00 0.  1.
         -5    1    3    3    0  501 -0.12684761211E+02  0.10284631197E+02  0.36949668372E+03  0.36985738614E+03  0.10000000000E+00 0.  1.
         21    1    1    2  504  503 -0.75080913598E+02  0.84602292425E+02  0.37874281792E+02  0.11928601214E+03  0.00000000000E+00 0.  1.
<mgrwt>
<rscale>  1 0.16858286E+03</rscale>
<asrwt>0</asrwt>
<pdfrwt beam="1">  1       21 0.15499773E+00 0.16858286E+03</pdfrwt>
<pdfrwt beam="2">  1       21 0.74391859E-02 0.16858286E+03</pdfrwt>
<totfact> 0.37878267E+04</totfact>
</mgrwt>
</event>
<event>
 6    1  0.4271609E-002  0.1514760E+03  0.7546771E-02  0.1198671E+00
         21   -1    0    0  503  502  0.00000000000E+00  0.00000000000E+00  0.51027394647E+02  0.51027394647E+02  0.00000000000E+00 0.  1.
         21   -1    0    0  504  503 -0.00000000000E+00 -0.00000000000E+00 -0.35022907533E+03  0.35022907533E+03  0.00000000000E+00 0. -1.
         25    2    1    2    0    0 -0.44166995236E+02 -0.73273846885E+02 -0.92345212563E+02  0.17740522806E+03  0.12500078621E+03 0.  0.
          5    1    3    3  501    0  0.20110971029E+02 -0.82143938869E+02 -0.37781107993E+02  0.92625590253E+02  0.10000000000E+00 0.  1.
         -5    1    3    3    0  501 -0.64277966264E+02  0.88700919835E+01 -0.54564104570E+02  0.84779637806E+02  0.10000000000E+00 0.  1.
         21    1    1    2  504  502  0.44166995236E+02  0.73273846885E+02 -0.20685646812E+03  0.22385124192E+03  0.00000000000E+00 0. -1.
<mgrwt>
<rscale>  1 0.15147599E+03</rscale>
<asrwt>0</asrwt>
<pdfrwt beam="1">  1       21 0.78503682E-02 0.15147599E+03</pdfrwt>
<pdfrwt beam="2">  1       21 0.53881397E-01 0.15147599E+03</pdfrwt>
<totfact> 0.40715702E+05</totfact>
</mgrwt>
</event>
<event>
 6    1  0.4271609E-002  0.1265751E+03  0.7546771E-02  0.1232628E+00
         21   -1    0    0  503  502  0.00000000000E+00  0.00000000000E+00  0.72307543811E+02  0.72307543811E+02  0.00000000000E+00 0. -1.
         21   -1    0    0  504  503 -0.00000000000E+00 -0.00000000000E+00 -0.23713841368E+03  0.23713841368E+03  0.00000000000E+00 0. -1.
         25    2    1    2    0    0  0.19307121513E+02  0.44327515513E+01  0.15956134482E+02  0.12757689698E+03  0.12501540781E+03 0.  0.
          5    1    3    3  501    0 -0.27813517815E+02 -0.38218143186E+02 -0.23481186470E+02  0.52778730185E+02  0.10000000000E+00 0. -1.
         -5    1    3    3    0  501  0.47120639329E+02  0.42650894738E+02  0.39437320953E+02  0.74798166799E+02  0.10000000000E+00 0. -1.
         21    1    1    2  504  502 -0.19307121513E+02 -0.44327515513E+01 -0.18078700436E+03  0.18186906051E+03  0.00000000000E+00 0. -1.
<mgrwt>
<rscale>  1 0.12657514E+03</rscale>
<asrwt>0</asrwt>
<pdfrwt beam="1">  1       21 0.11124238E-01 0.12657514E+03</pdfrwt>
<pdfrwt beam="2">  1       21 0.36482833E-01 0.12657514E+03</pdfrwt>
<totfact> 0.49096814E+05</totfact>
</mgrwt>
</event>
<event>
 6    1  0.4271609E-002  0.1335496E+03  0.7546771E-02  0.1222282E+00
         21   -1    0    0  504  502  0.00000000000E+00  0.00000000000E+00  0.37627673672E+03  0.37627673672E+03  0.00000000000E+00 0.  1.
         21   -1    0    0  502  503 -0.00000000000E+00 -0.00000000000E+00 -0.25185964006E+02  0.25185964006E+02  0.00000000000E+00 0. -1.
         25    2    1    2    0    0 -0.35966906519E+02 -0.30269832094E+02  0.31517884253E+03  0.34230572456E+03  0.12500250073E+03 0.  0.
          5    1    3    3  501    0  0.43952908504E+02 -0.30617103975E+02  0.12133597598E+03  0.13263368460E+03  0.10000000000E+00 0.  1.
         -5    1    3    3    0  501 -0.79919815023E+02  0.34727188099E+00  0.19384286655E+03  0.20967203996E+03  0.10000000000E+00 0.  1.
         21    1    1    2  504  503  0.35966906519E+02  0.30269832094E+02  0.35911930182E+02  0.59156976164E+02  0.00000000000E+00 0. -1.
<mgrwt>
<rscale>  1 0.13354964E+03</rscale>
<asrwt>0</asrwt>
<pdfrwt beam="1">  1       21 0.57888725E-01 0.13354964E+03</pdfrwt>
<pdfrwt beam="2">  1       21 0.38747640E-02 0.13354964E+03</pdfrwt>
<totfact> 0.11580562E+06</totfact>
</mgrwt>
</event>
<event>
 6    1  0.4271609E-002  0.1305650E+03  0.7546771E-02  0.1226620E+00
         21   -1    0    0  503  502  0.00000000000E+00  0.00000000000E+00  0.33388840300E+03  0.33388840300E+03  0.00000000000E+00 0.  1.
         21   -1    0    0  504  503 -0.00000000000E+00 -0.00000000000E+00 -0.23542316590E+02  0.23542316590E+02  0.00000000000E+00 0.  1.
         25    2    1    2    0    0  0.14678214532E+02  0.34732850736E+02  0.28029814516E+03  0.30921558010E+03  0.12500161558E+03 0.  0.
          5    1    3    3  501    0  0.22058706991E+02  0.28947903111E+02  0.29197753620E+03  0.29423708008E+03  0.10000000000E+00 0.  1.
         -5    1    3    3    0  501 -0.73804924588E+01  0.57849476247E+01 -0.11679391040E+02  0.14978500026E+02  0.10000000000E+00 0.  1.
         21    1    1    2  504  502 -0.14678214532E+02 -0.34732850736E+02  0.30047941251E+02  0.48215139485E+02  0.00000000000E+00 0.  1.
<mgrwt>
<rscale>  1 0.13056502E+03</rscale>
<asrwt>0</asrwt>
<pdfrwt beam="1">  1       21 0.51367443E-01 0.13056502E+03</pdfrwt>
<pdfrwt beam="2">  1       21 0.36218951E-02 0.13056502E+03</pdfrwt>
<totfact> 0.16624625E+06</totfact>
</mgrwt>
</event>
<event>
 6    1  0.4271609E-002  0.1312527E+03  0.7546771E-02  0.1225609E+00
         21   -1    0    0  504  502  0.00000000000E+00  0.00000000000E+00  0.24759434070E+04  0.24759434070E+04  0.00000000000E+00 0. -1.
         21   -1    0    0  502  503 -0.00000000000E+00 -0.00000000000E+00 -0.10751473008E+02  0.10751473008E+02  0.00000000000E+00 0. -1.
         25    2    1    2    0    0  0.12255966985E+02  0.38098906084E+02  0.24295808146E+04  0.24331235519E+04  0.12500219499E+03 0.  0.
          5    1    3    3  501    0 -0.74749039353E+01 -0.20314398998E+02  0.18751677215E+04  0.18752926552E+04  0.10000000000E+00 0.  1.
         -5    1    3    3    0  501  0.19730870920E+02  0.58413305082E+02  0.55441309306E+03  0.55783089663E+03  0.10000000000E+00 0.  1.
         21    1    1    2  504  503 -0.12255966985E+02 -0.38098906084E+02  0.35611119402E+02  0.53571328121E+02  0.00000000000E+00 0. -1.
<mgrwt>
<rscale>  1 0.13125275E+03</rscale>
<asrwt>0</asrwt>
<pdfrwt beam="1">  1       21 0.38091392E+00 0.13125275E+03</pdfrwt>
<pdfrwt beam="2">  1       21 0.16540747E-02 0.13125275E+03</pdfrwt>
<totfact> 0.20806633E+04</totfact>
</mgrwt>
</event>
<event>
 6    1  0.4271609E-002  0.1260552E+03  0.7546771E-02  0.1233429E+00
         21   -1    0    0  503  502  0.00000000000E+00  0.00000000000E+00  0.14337847880E+03  0.14337847880E+03  0.00000000000E+00 0.  1.
         21   -1    0    0  504  503 -0.00000000000E+00 -0.00000000000E+00 -0.64775992939E+02  0.64775992939E+02  0.00000000000E+00 0. -1.
         25    2    1    2    0    0  0.69745450008E+01  0.14729529075E+02  0.11350981715E+03  0.16963012772E+03  0.12499719331E+03 0.  0.
          5    1    3    3  501    0 -0.16393589424E+01  0.51434535553E+02  0.15406892500E+01  0.51483809772E+02  0.10000000000E+00 0.  1.
         -5    1    3    3    0  501  0.86139039433E+01 -0.36705006478E+02  0.11196912790E+03  0.11814631795E+03  0.10000000000E+00 0.  1.
         21    1    1    2  504  502 -0.69745450008E+01 -0.14729529075E+02 -0.34907331287E+02  0.38524344021E+02  0.00000000000E+00 0. -1.
<mgrwt>
<rscale>  1 0.12605515E+03</rscale>
<asrwt>0</asrwt>
<pdfrwt beam="1">  1       21 0.22058227E-01 0.12605515E+03</pdfrwt>
<pdfrwt beam="2">  1       21 0.99655374E-02 0.12605515E+03</pdfrwt>
<totfact> 0.15619176E+06</totfact>
</mgrwt>
</event>
<event>
 6    1  0.4271609E-002  0.1264210E+03  0.7546771E-02  0.1232865E+00
         21   -1    0    0  503  502  0.00000000000E+00  0.00000000000E+00  0.48757201677E+02  0.48757201677E+02  0.00000000000E+00 0. -1.
         21   -1    0    0  504  503 -0.00000000000E+00 -0.00000000000E+00 -0.11265508445E+03  0.11265508445E+03  0.00000000000E+00 0. -1.
         25    2    1    2    0    0 -0.13066459836E+02  0.13611938931E+02 -0.43671647145E+02  0.13375152219E+03  0.12500495858E+03 0.  0.
          5    1    3    3  501    0  0.43206650002E+02 -0.17546735505E+02 -0.50888466728E+02  0.69024260787E+02  0.10000000000E+00 0. -1.
         -5    1    3    3    0  501 -0.56273109838E+02  0.31158674436E+02  0.72168195823E+01  0.64727261399E+02  0.10000000000E+00 0. -1.
         21    1    1    2  504  502  0.13066459836E+02 -0.13611938931E+02 -0.20226235624E+02  0.27660763937E+02  0.00000000000E+00 0. -1.
<mgrwt>
<rscale>  1 0.12642095E+03</rscale>
<asrwt>0</asrwt>
<pdfrwt beam="1">  1       21 0.75011080E-02 0.12642095E+03</pdfrwt>
<pdfrwt beam="2">  1       21 0.17331551E-01 0.12642095E+03</pdfrwt>
<totfact> 0.39855407E+06</totfact>
</mgrwt>
</event>
<event>
 6    1  0.4271609E-002  0.1346602E+03  0.7546771E-02  0.1220700E+00
         21   -1    0    0  504  502  0.00000000000E+00  0.00000000000E+00  0.21638414580E+03  0.21638414580E+03  0.00000000000E+00 0. -1.
         21   -1    0    0  502  503 -0.00000000000E+00 -0.00000000000E+00 -0.46845627691E+02  0.46845627691E+02  0.00000000000E+00 0. -1.
         25    2    1    2    0    0  0.47963144188E+02  0.14414989149E+02  0.16495182183E+03  0.21293769762E+03  0.12500041773E+03 0.  0.
          5    1    3    3  501    0 -0.27767699963E+02  0.18801920754E+02  0.24762372451E+01  0.33625870044E+02  0.10000000000E+00 0. -1.
         -5    1    3    3    0  501  0.75730844151E+02 -0.43869316049E+01  0.16247558458E+03  0.17931182758E+03  0.10000000000E+00 0. -1.
         21    1    1    2  504  503 -0.47963144188E+02 -0.14414989149E+02  0.45866962850E+01  0.50292075870E+02  0.00000000000E+00 0. -1.
<mgrwt>
<rscale>  1 0.13466016E+03</rscale>
<asrwt>0</asrwt>
<pdfrwt beam="1">  1       21 0.33289868E-01 0.13466016E+03</pdfrwt>
<pdfrwt beam="2">  1       21 0.72070197E-02 0.13466016E+03</pdfrwt>
<totfact> 0.12495482E+06</totfact>
</mgrwt>
</event>
<event>
 6    1  0.4271609E-002  0.1258981E+03  0.7546771E-02  0.1233672E+00
         21   -1    0    0  503  502  0.00000000000E+00  0.00000000000E+00  0.89911478016E+02  0.89911478016E+02  0.00000000000E+00 0. -1.
         21   -1    0    0  504  503 -0.00000000000E+00 -0.00000000000E+00 -0.55346419343E+02  0.55346419343E+02  0.00000000000E+00 0. -1.
         25    2    1    2    0    0  0.13737647236E+02  0.60859556311E+01  0.33000308158E+02  0.13015126796E+03  0.12499828161E+03 0.  0.
          5    1    3    3  501    0  0.42615900781E+02 -0.41345992485E+02  0.43538155423E+02  0.73628710919E+02  0.10000000000E+00 0.  1.
         -5    1    3    3    0  501 -0.28878253545E+02  0.47431948116E+02 -0.10537847265E+02  0.56522557044E+02  0.10000000000E+00 0.  1.
         21    1    1    2  504  502 -0.13737647236E+02 -0.60859556311E+01  0.15647505151E+01  0.15106629396E+02  0.00000000000E+00 0. -1.
<mgrwt>
<rscale>  1 0.12589810E+03</rscale>
<asrwt>0</asrwt>
<pdfrwt beam="1">  1       21 0.13832535E-01 0.12589810E+03</pdfrwt>
<pdfrwt beam="2">  1       21 0.85148337E-02 0.12589810E+03</pdfrwt>
<totfact> 0.48135148E+06</totfact>
</mgrwt>
</event>
<event>
 6    1  0.4271609E-002  0.1283398E+03  0.7546771E-02  0.1229940E+00
         21   -1    0    0  503  502  0.00000000000E+00  0.00000000000E+00  0.22699449236E+03  0.22699449236E+03  0.00000000000E+00 0.  1.
         21   -1    0    0  504  503 -0.00000000000E+00 -0.00000000000E+00 -0.10263903036E+03  0.10263903036E+03  0.00000000000E+00 0.  1.
         25    2    1    2    0    0 -0.80454700099E+01 -0.27955222625E+02  0.20614156706E+03  0.24282804455E+03  0.12499955795E+03 0.  0.
          5    1    3    3  501    0  0.50214895862E+02 -0.98339224098E+00  0.14771955632E+03  0.15602429345E+03  0.10000000000E+00 0.  1.
         -5    1    3    3    0  501 -0.58260365872E+02 -0.26971830384E+02  0.58422010739E+02  0.86803751097E+02  0.10000000000E+00 0.  1.
         21    1    1    2  504  502  0.80454700099E+01  0.27955222625E+02 -0.81786105064E+02  0.86805478175E+02  0.00000000000E+00 0.  1.
<mgrwt>
<rscale>  1 0.12833984E+03</rscale>
<asrwt>0</asrwt>
<pdfrwt beam="1">  1       21 0.34922229E-01 0.12833984E+03</pdfrwt>
<pdfrwt beam="2">  1       21 0.15790620E-01 0.12833984E+03</pdfrwt>
<totfact> 0.28628434E+05</totfact>
</mgrwt>
</event>
<event>
 6    1  0.4271609E-002  0.1286281E+03  0.7546771E-02  0.1229506E+00
         21   -1    0    0  504  502  0.00000000000E+00  0.00000000000E+00  0.18336530797E+04  0.18336530797E+04  0.00000000000E+00 0. -1.
         21   -1    0    0  502  503 -0.00000000000E+00 -0.00000000000E+00 -0.96826329395E+01  0.96826329395E+01  0.00000000000E+00 0.  1.
         25    2    1    2    0    0 -0.23794903610E+02 -0.18832261120E+02  0.18001973728E+04  0.18047869054E+04  0.12499736538E+03 0.  0.
          5    1    3    3  501    0  0.25876326522E+02 -0.53372978034E+02  0.56411803020E+03  0.56722783875E+03  0.10000000000E+00 0.  1.
         -5    1    3    3    0  501 -0.49671230132E+02  0.34540716914E+02  0.12360793426E+04  0.12375590666E+04  0.10000000000E+00 0.  1.
         21    1    1    2  504  503  0.23794903610E+02  0.18832261120E+02  0.23773074037E+02  0.38548807321E+02  0.00000000000E+00 0.  1.
<mgrwt>
<rscale>  1 0.12862812E+03</rscale>
<asrwt>0</asrwt>
<pdfrwt beam="1">  1       21 0.28210020E+00 0.12862812E+03</pdfrwt>
<pdfrwt beam="2">  1       21 0.14896373E-02 0.12862812E+03</pdfrwt>
<totfact> 0.90858299E+04</totfact>
</mgrwt>
</event>
<event>
 6    1  0.4271609E-002  0.1480318E+03  0.7546771E-02  0.1202913E+00
         21   -1    0    0  503  502  0.00000000000E+00  0.00000000000E+00  0.52202119504E+03  0.52202119504E+03  0.00000000000E+00 0.  1.
         21   -1    0    0  504  503 -0.00000000000E+00 -0.00000000000E+00 -0.57356737824E+02  0.57356737824E+02  0.00000000000E+00 0.  1.
         25    2    1    2    0    0 -0.70523881566E+02  0.36254246939E+02  0.47671567801E+03  0.49917057526E+03  0.12500174897E+03 0.  0.
          5    1    3    3  501    0 -0.79291351034E+02 -0.20287634789E+02  0.35997167742E+03  0.36915894276E+03  0.10000000000E+00 0. -1.
         -5    1    3    3    0  501  0.87674694676E+01  0.56541881728E+02  0.11674400059E+03  0.13001163249E+03  0.10000000000E+00 0. -1.
         21    1    1    2  504  502  0.70523881566E+02 -0.36254246939E+02 -0.12051220794E+02  0.80207357611E+02  0.00000000000E+00 0.  1.
<mgrwt>
<rscale>  1 0.14803184E+03</rscale>
<asrwt>0</asrwt>
<pdfrwt beam="1">  1       21 0.80310950E-01 0.14803184E+03</pdfrwt>
<pdfrwt beam="2">  1       21 0.88241139E-02 0.14803184E+03</pdfrwt>
<totfact> 0.14006666E+05</totfact>
</mgrwt>
</event>
<event>
 6    1  0.4271609E-002  0.1390668E+03  0.7546771E-02  0.1214590E+00
         21   -1    0    0  503  502  0.00000000000E+00  0.00000000000E+00  0.39205608070E+02  0.39205608070E+02  0.00000000000E+00 0.  1.
         21   -1    0    0  504  503 -0.00000000000E+00 -0.00000000000E+00 -0.36908035493E+03  0.36908035493E+03  0.00000000000E+00 0.  1.
         25    2    1    2    0    0  0.15121339275E+02 -0.59024287950E+02 -0.10215326789E+03  0.17255392561E+03  0.12500818226E+03 0.  0.
          5    1    3    3  501    0 -0.39549675388E+02  0.14237751575E+02 -0.10977309002E+02  0.43444236742E+02  0.10000000000E+00 0.  1.
         -5    1    3    3    0  501  0.54671014662E+02 -0.73262039525E+02 -0.91175958891E+02  0.12910968887E+03  0.10000000000E+00 0.  1.
         21    1    1    2  504  502 -0.15121339275E+02  0.59024287950E+02 -0.22772147897E+03  0.23573203739E+03  0.00000000000E+00 0.  1.
<mgrwt>
<rscale>  1 0.13906677E+03</rscale>
<asrwt>0</asrwt>
<pdfrwt beam="1">  1       21 0.60316323E-02 0.13906677E+03</pdfrwt>
<pdfrwt beam="2">  1       21 0.56781591E-01 0.13906677E+03</pdfrwt>
<totfact> 0.57368190E+05</totfact>
</mgrwt>
</event>
<event>
 6    1  0.4271609E-002  0.1313650E+03  0.7546771E-02  0.1225444E+00
         21   -1    0    0  503  502  0.00000000000E+00  0.00000000000E+00  0.48759141965E+02  0.48759141965E+02  0.00000000000E+00 0.  1.
         21   -1    0    0  504  503 -0.00000000000E+00 -0.00000000000E+00 -0.26613212915E+03  0.26613212915E+03  0.00000000000E+00 0.  1.
         25    2    1    2    0    0  0.21871640148E+02  0.33950061126E+02 -0.46564813923E+02  0.13937372969E+03  0.12500311732E+03 0.  0.
          5    1    3    3  501    0  0.73564822954E+02  0.98410007168E+01 -0.23552621056E+02  0.77867608349E+02  0.10000000000E+00 0. -1.
         -5    1    3    3    0  501 -0.51693182806E+02  0.24109060410E+02 -0.23012192867E+02  0.61506121346E+02  0.10000000000E+00 0. -1.
         21    1    1    2  504  502 -0.21871640148E+02 -0.33950061126E+02 -0.17080817326E+03  0.17551754142E+03  0.00000000000E+00 0.  1.
<mgrwt>
<rscale>  1 0.13136497E+03</rscale>
<asrwt>0</asrwt>
<pdfrwt beam="1">  1       21 0.75014064E-02 0.13136497E+03</pdfrwt>
<pdfrwt beam="2">  1       21 0.40943405E-01 0.13136497E+03</pdfrwt>
<totfact> 0.77433127E+05</totfact>
</mgrwt>
</event>
<event>
 6    1  0.4271609E-002  0.1357671E+03  0.7546771E-02  0.1219141E+00
         21   -1    0    0  504  502  0.00000000000E+00  0.00000000000E+00  0.15102893560E+02  0.15102893560E+02  0.00000000000E+00 0. -1.
         21   -1    0    0  502  503 -0.00000000000E+00 -0.00000000000E+00 -0.63331302066E+03  0.63331302066E+03  0.00000000000E+00 0. -1.
         25    2    1    2    0    0  0.61896116813E+01 -0.52637745952E+02 -0.35836866199E+03  0.38322422773E+03  0.12499466882E+03 0.  0.
          5    1    3    3  501    0 -0.24379576543E+02 -0.78409287395E+01 -0.30846019558E+03  0.30952147934E+03  0.10000000000E+00 0. -1.
         -5    1    3    3    0  501  0.30569188225E+02 -0.44796817213E+02 -0.49908466410E+02  0.73702748392E+02  0.10000000000E+00 0. -1.
         21    1    1    2  504  503 -0.61896116813E+01  0.52637745952E+02 -0.25984146511E+03  0.26519168649E+03  0.00000000000E+00 0. -1.
<mgrwt>
<rscale>  1 0.13576712E+03</rscale>
<asrwt>0</asrwt>
<pdfrwt beam="1">  1       21 0.23235220E-02 0.13576712E+03</pdfrwt>
<pdfrwt beam="2">  1       21 0.97432774E-01 0.13576712E+03</pdfrwt>
<totfact> 0.84668448E+05</totfact>
</mgrwt>
</event>
<event>
 6    1  0.4271609E-002  0.1280983E+03  0.7546771E-02  0.1230305E+00
         21   -1    0    0  503  502  0.00000000000E+00  0.00000000000E+00  0.28251408225E+03  0.28251408225E+03  0.00000000000E+00 0. -1.
         21   -1    0    0  504  503 -0.00000000000E+00 -0.00000000000E+00 -0.22116933235E+03  0.22116933235E+03  0.00000000000E+00 0.  1.
         25    2    1    2    0    0 -0.10934738596E+02  0.25784670481E+02  0.26699526757E+03  0.29613449710E+03  0.12499899890E+03 0.  0.
          5    1    3    3  501    0 -0.36648479172E+02  0.31198002422E+02  0.27964599240E+02  0.55663769109E+02  0.10000000000E+00 0. -1.
         -5    1    3    3    0  501  0.25713740576E+02 -0.54133319404E+01  0.23903066833E+03  0.24047072799E+03  0.10000000000E+00 0. -1.
         21    1    1    2  504  502  0.10934738596E+02 -0.25784670481E+02 -0.20565051767E+03  0.20754891750E+03  0.00000000000E+00 0.  1.
<mgrwt>
<rscale>  1 0.12809827E+03</rscale>
<asrwt>0</asrwt>
<pdfrwt beam="1">  1       21 0.43463705E-01 0.12809827E+03</pdfrwt>
<pdfrwt beam="2">  1       21 0.34026051E-01 0.12809827E+03</pdfrwt>
<totfact> 0.43794941E+04</totfact>
</mgrwt>
</event>
<event>
 6    1  0.4271609E-002  0.1448113E+03  0.7546771E-02  0.1206998E+00
         21   -1    0    0  504  502  0.00000000000E+00  0.00000000000E+00  0.76083737437E+02  0.76083737437E+02  0.00000000000E+00 0.  1.
         21   -1    0    0  502  503 -0.00000000000E+00 -0.00000000000E+00 -0.49373465037E+03  0.49373465037E+03  0.00000000000E+00 0. -1.
         25    2    1    2    0    0 -0.71814563675E+02  0.13982103447E+02  0.10078752594E+01  0.14481484464E+03  0.12496996697E+03 0.  0.
          5    1    3    3  501    0  0.34246247553E+02  0.58108911699E+01 -0.13873219167E+02  0.37403851910E+02  0.10000000000E+00 0.  1.
         -5    1    3    3    0  501 -0.10606081123E+03  0.81712122774E+01  0.14881094427E+02  0.10741099273E+03  0.10000000000E+00 0.  1.
         21    1    1    2  504  503  0.71814563675E+02 -0.13982103447E+02 -0.41865878819E+03  0.42500354316E+03  0.00000000000E+00 0. -1.
<mgrwt>
<rscale>  1 0.14481134E+03</rscale>
<asrwt>0</asrwt>
<pdfrwt beam="1">  1       21 0.11705190E-01 0.14481134E+03</pdfrwt>
<pdfrwt beam="2">  1       21 0.75959178E-01 0.14481134E+03</pdfrwt>
<totfact> 0.96662930E+04</totfact>
</mgrwt>
</event>
<event>
 6    1  0.4271609E-002  0.1299030E+03  0.7546771E-02  0.1227600E+00
         21   -1    0    0  504  502  0.00000000000E+00  0.00000000000E+00  0.19974004904E+02  0.19974004904E+02  0.00000000000E+00 0.  1.
         21   -1    0    0  502  503 -0.00000000000E+00 -0.00000000000E+00 -0.38537921180E+03  0.38537921180E+03  0.00000000000E+00 0.  1.
         25    2    1    2    0    0  0.11690404067E+02 -0.33361626668E+02 -0.21800662704E+03  0.25377483756E+03  0.12500046025E+03 0.  0.
          5    1    3    3  501    0  0.36504122646E+02  0.16893346163E+02 -0.14605893102E+02  0.42793436740E+02  0.10000000000E+00 0. -1.
         -5    1    3    3    0  501 -0.24813718579E+02 -0.50254972831E+02 -0.20340073394E+03  0.21098140082E+03  0.10000000000E+00 0. -1.
         21    1    1    2  504  503 -0.11690404067E+02  0.33361626668E+02 -0.14739857985E+03  0.15157837915E+03  0.00000000000E+00 0. -1.
<mgrwt>
<rscale>  1 0.12990296E+03</rscale>
<asrwt>0</asrwt>
<pdfrwt beam="1">  1       21 0.30729240E-02 0.12990296E+03</pdfrwt>
<pdfrwt beam="2">  1       21 0.59289106E-01 0.12990296E+03</pdfrwt>
<totfact> 0.16137930E+06</totfact>
</mgrwt>
</event>
<event>
 6    1  0.4271609E-002  0.1438423E+03  0.7546771E-02  0.1208250E+00
         21   -1    0    0  504  502  0.00000000000E+00  0.00000000000E+00  0.21587089811E+03  0.21587089811E+03  0.00000000000E+00 0.  1.
         21   -1    0    0  502  503 -0.00000000000E+00 -0.00000000000E+00 -0.29940385315E+03  0.29940385315E+03  0.00000000000E+00 0. -1.
         25    2    1    2    0    0 -0.67509072267E+02  0.22539034748E+02  0.18678033900E+03  0.23574879565E+03  0.12500046676E+03 0.  0.
          5    1    3    3  501    0  0.27095674303E+02  0.27169847068E+02  0.18398177336E+02  0.42554424975E+02  0.10000000000E+00 0. -1.
         -5    1    3    3    0  501 -0.94604746570E+02 -0.46308123208E+01  0.16838216166E+03  0.19319437068E+03  0.10000000000E+00 0. -1.
         21    1    1    2  504  503  0.67509072267E+02 -0.22539034748E+02 -0.27031329404E+03  0.27952595561E+03  0.00000000000E+00 0. -1.
<mgrwt>
<rscale>  1 0.14384227E+03</rscale>
<asrwt>0</asrwt>
<pdfrwt beam="1">  1       21 0.33210908E-01 0.14384227E+03</pdfrwt>
<pdfrwt beam="2">  1       21 0.46062131E-01 0.14384227E+03</pdfrwt>
<totfact> 0.40450071E+04</totfact>
</mgrwt>
</event>
<event>
 6    1  0.4271609E-002  0.1263214E+03  0.7546771E-02  0.1233019E+00
         21   -1    0    0  503  502  0.00000000000E+00  0.00000000000E+00  0.26952830547E+02  0.26952830547E+02  0.00000000000E+00 0. -1.
         21   -1    0    0  504  503 -0.00000000000E+00 -0.00000000000E+00 -0.23602236056E+03  0.23602236056E+03  0.00000000000E+00 0. -1.
         25    2    1    2    0    0  0.15375742662E+02  0.99979981591E+01 -0.12792162149E+03  0.17978050085E+03  0.12498285407E+03 0.  0.
          5    1    3    3  501    0  0.28868112374E+02  0.58558130064E+02 -0.35016080231E+02  0.74084805347E+02  0.10000000000E+00 0.  1.
         -5    1    3    3    0  501 -0.13492369712E+02 -0.48560131905E+02 -0.92905541260E+02  0.10569569550E+03  0.10000000000E+00 0.  1.
         21    1    1    2  504  502 -0.15375742662E+02 -0.99979981591E+01 -0.81147908522E+02  0.83194690258E+02  0.00000000000E+00 0. -1.
<mgrwt>
<rscale>  1 0.12632136E+03</rscale>
<asrwt>0</asrwt>
<pdfrwt beam="1">  1       21 0.41465893E-02 0.12632136E+03</pdfrwt>
<pdfrwt beam="2">  1       21 0.36311132E-01 0.12632136E+03</pdfrwt>
<totfact> 0.26751050E+06</totfact>
</mgrwt>
</event>
<event>
 6    1  0.4271609E-002  0.1264469E+03  0.7546771E-02  0.1232825E+00
         21   -1    0    0  504  502  0.00000000000E+00  0.00000000000E+00  0.21718520806E+03  0.21718520806E+03  0.00000000000E+00 0. -1.
         21   -1    0    0  502  503 -0.00000000000E+00 -0.00000000000E+00 -0.32548136940E+02  0.32548136940E+02  0.00000000000E+00 0. -1.
         25    2    1    2    0    0  0.51758899579E+01  0.18189012568E+02  0.19161494252E+03  0.22957594675E+03  0.12502479399E+03 0.  0.
          5    1    3    3  501    0  0.10634630161E+02  0.64909890870E+02  0.57199604455E+02  0.87167620371E+02  0.10000000000E+00 0.  1.
         -5    1    3    3    0  501 -0.54587402035E+01 -0.46720878301E+02  0.13441533807E+03  0.14240832638E+03  0.10000000000E+00 0.  1.
         21    1    1    2  504  503 -0.51758899579E+01 -0.18189012568E+02 -0.69778714006E+01  0.20157398254E+02  0.00000000000E+00 0.  1.
<mgrwt>
<rscale>  1 0.12644694E+03</rscale>
<asrwt>0</asrwt>
<pdfrwt beam="1">  1       21 0.33413108E-01 0.12644694E+03</pdfrwt>
<pdfrwt beam="2">  1       21 0.50074058E-02 0.12644694E+03</pdfrwt>
<totfact> 0.22979358E+06</totfact>
</mgrwt>
</event>
<event>
 6    1  0.4271609E-002  0.1989976E+03  0.7546771E-02  0.1150588E+00
         21   -1    0    0  504  502  0.00000000000E+00  0.00000000000E+00  0.88687256326E+02  0.88687256326E+02  0.00000000000E+00 0.  1.
         21   -1    0    0  502  503 -0.00000000000E+00 -0.00000000000E+00 -0.35341397194E+03  0.35341397194E+03  0.00000000000E+00 0. -1.
         25    2    1    2    0    0 -0.13477583828E+03  0.76217928896E+02 -0.14063885274E+03  0.24367870691E+03  0.12500530401E+03 0.  0.
          5    1    3    3  501    0 -0.14053827782E+03  0.97572792999E+02 -0.10208523537E+03  0.19923067723E+03  0.10000000000E+00 0. -1.
         -5    1    3    3    0  501  0.57624395449E+01 -0.21354864103E+02 -0.38553617368E+02  0.44448029681E+02  0.10000000000E+00 0. -1.
         21    1    1    2  504  503  0.13477583828E+03 -0.76217928896E+02 -0.12408786288E+03  0.19842252136E+03  0.00000000000E+00 0. -1.
<mgrwt>
<rscale>  1 0.19899755E+03</rscale>
<asrwt>0</asrwt>
<pdfrwt beam="1">  1       21 0.13644193E-01 0.19899755E+03</pdfrwt>
<pdfrwt beam="2">  1       21 0.54371381E-01 0.19899755E+03</pdfrwt>
<totfact> 0.14853942E+05</totfact>
</mgrwt>
</event>
<event>
 6    1  0.4271609E-002  0.1269758E+03  0.7546771E-02  0.1232013E+00
         21   -1    0    0  504  502  0.00000000000E+00  0.00000000000E+00  0.12725059564E+03  0.12725059564E+03  0.00000000000E+00 0.  1.
         21   -1    0    0  502  503 -0.00000000000E+00 -0.00000000000E+00 -0.66373778623E+02  0.66373778623E+02  0.00000000000E+00 0.  1.
         25    2    1    2    0    0 -0.32277311052E+01  0.22084458641E+02  0.90939679056E+02  0.15618218903E+03  0.12499883752E+03 0.  0.
          5    1    3    3  501    0  0.29116034304E+02  0.65228850221E+02  0.39338020043E+02  0.81547753958E+02  0.10000000000E+00 0.  1.
         -5    1    3    3    0  501 -0.32343765410E+02 -0.43144391580E+02  0.51601659013E+02  0.74634435073E+02  0.10000000000E+00 0.  1.
         21    1    1    2  504  503  0.32277311052E+01 -0.22084458641E+02 -0.30062862035E+02  0.37442185237E+02  0.00000000000E+00 0.  1.
<mgrwt>
<rscale>  1 0.12697579E+03</rscale>
<asrwt>0</asrwt>
<pdfrwt beam="1">  1       21 0.19577015E-01 0.12697579E+03</pdfrwt>
<pdfrwt beam="2">  1       21 0.10211351E-01 0.12697579E+03</pdfrwt>
<totfact> 0.18678442E+06</totfact>
</mgrwt>
</event>
<event>
 6    1  0.4271609E-002  0.1262282E+03  0.7546771E-02  0.1233162E+00
         21   -1    0    0  504  502  0.00000000000E+00  0.00000000000E+00  0.79375558430E+03  0.79375558430E+03  0.00000000000E+00 0. -1.
         21   -1    0    0  502  503 -0.00000000000E+00 -0.00000000000E+00 -0.24945117245E+02  0.24945117245E+02  0.00000000000E+00 0. -1.
         25    2    1    2    0    0  0.17638685108E+02  0.49900834597E-01  0.78480410148E+03  0.79489057671E+03  0.12498970178E+03 0.  0.
          5    1    3    3  501    0 -0.18517930853E+02  0.41129994468E+02  0.61126755865E+03  0.61292954608E+03  0.10000000000E+00 0. -1.
         -5    1    3    3    0  501  0.36156615961E+02 -0.41080093634E+02  0.17353654283E+03  0.18196103063E+03  0.10000000000E+00 0. -1.
         21    1    1    2  504  503 -0.17638685108E+02 -0.49900834597E-01 -0.15993634422E+02  0.23810124831E+02  0.00000000000E+00 0. -1.
<mgrwt>
<rscale>  1 0.12622817E+03</rscale>
<asrwt>0</asrwt>
<pdfrwt beam="1">  1       21 0.12211622E+00 0.12622817E+03</pdfrwt>
<pdfrwt beam="2">  1       21 0.38377109E-02 0.12622817E+03</pdfrwt>
<totfact> 0.21720817E+05</totfact>
</mgrwt>
</event>
<event>
 6    1  0.4271609E-002  0.1391830E+03  0.7546771E-02  0.1214432E+00
         21   -1    0    0  504  502  0.00000000000E+00  0.00000000000E+00  0.84150559347E+03  0.84150559347E+03  0.00000000000E+00 0.  1.
         21   -1    0    0  502  503 -0.00000000000E+00 -0.00000000000E+00 -0.13050198906E+02  0.13050198906E+02  0.00000000000E+00 0.  1.
         25    2    1    2    0    0  0.18464701635E+02  0.58364378944E+02  0.67771949466E+03  0.69186388276E+03  0.12499829153E+03 0.  0.
          5    1    3    3  501    0 -0.75446037392E+01 -0.26330424796E+02  0.38640144700E+03  0.38737101151E+03  0.10000000000E+00 0.  1.
         -5    1    3    3    0  501  0.26009305375E+02  0.84694803740E+02  0.29131804766E+03  0.30449287124E+03  0.10000000000E+00 0.  1.
         21    1    1    2  504  503 -0.18464701635E+02 -0.58364378944E+02  0.15073589991E+03  0.16269190963E+03  0.00000000000E+00 0.  1.
<mgrwt>
<rscale>  1 0.13918304E+03</rscale>
<asrwt>0</asrwt>
<pdfrwt beam="1">  1       21 0.12946236E+00 0.13918304E+03</pdfrwt>
<pdfrwt beam="2">  1       21 0.20077236E-02 0.13918304E+03</pdfrwt>
<totfact> 0.54077381E+05</totfact>
</mgrwt>
</event>
<event>
 6    1  0.4271609E-002  0.2325898E+03  0.7546771E-02  0.1124830E+00
         21   -1    0    0  504  502  0.00000000000E+00  0.00000000000E+00  0.16221133363E+03  0.16221133363E+03  0.00000000000E+00 0. -1.
         21   -1    0    0  502  503 -0.00000000000E+00 -0.00000000000E+00 -0.49600346689E+03  0.49600346689E+03  0.00000000000E+00 0. -1.
         25    2    1    2    0    0 -0.12826817835E+03  0.14839485399E+03 -0.39007280699E+03  0.45415286751E+03  0.12499709613E+03 0.  0.
          5    1    3    3  501    0 -0.80166330925E+02  0.36185651176E+02 -0.72708907576E+02  0.11411677005E+03  0.10000000000E+00 0. -1.
         -5    1    3    3    0  501 -0.48101847426E+02  0.11220920281E+03 -0.31736389942E+03  0.34003609746E+03  0.10000000000E+00 0. -1.
         21    1    1    2  504  503  0.12826817835E+03 -0.14839485399E+03  0.56280673739E+02  0.20406193301E+03  0.00000000000E+00 0. -1.
<mgrwt>
<rscale>  1 0.23258984E+03</rscale>
<asrwt>0</asrwt>
<pdfrwt beam="1">  1       21 0.24955590E-01 0.23258984E+03</pdfrwt>
<pdfrwt beam="2">  1       21 0.76308225E-01 0.23258984E+03</pdfrwt>
<totfact> 0.22734073E+04</totfact>
</mgrwt>
</event>
<event>
 6    1  0.4271609E-002  0.1277178E+03  0.7546771E-02  0.1230882E+00
         21   -1    0    0  503  502  0.00000000000E+00  0.00000000000E+00  0.82894775773E+01  0.82894775773E+01  0.00000000000E+00 0.  1.
         21   -1    0    0  504  503 -0.00000000000E+00 -0.00000000000E+00 -0.75437042362E+03  0.75437042362E+03  0.00000000000E+00 0.  1.
         25    2    1    2    0    0  0.15937750033E+02  0.20832722987E+02 -0.53903111575E+03  0.55395521402E+03  0.12499528462E+03 0.  0.
          5    1    3    3  501    0  0.25843281331E+02  0.29301667194E+02 -0.53950113381E+03  0.54091399156E+03  0.10000000000E+00 0.  1.
         -5    1    3    3    0  501 -0.99055312987E+01 -0.84689442074E+01  0.47001805815E+00  0.13041222461E+02  0.10000000000E+00 0.  1.
         21    1    1    2  504  502 -0.15937750033E+02 -0.20832722987E+02 -0.20704983030E+03  0.20870468718E+03  0.00000000000E+00 0.  1.
<mgrwt>
<rscale>  1 0.12771780E+03</rscale>
<asrwt>0</asrwt>
<pdfrwt beam="1">  1       21 0.12753038E-02 0.12771780E+03</pdfrwt>
<pdfrwt beam="2">  1       21 0.11605703E+00 0.12771780E+03</pdfrwt>
<totfact> 0.14647945E+06</totfact>
</mgrwt>
</event>
<event>
 6    1  0.4271609E-002  0.1270921E+03  0.7546771E-02  0.1231835E+00
         21   -1    0    0  504  502  0.00000000000E+00  0.00000000000E+00  0.19794166198E+02  0.19794166198E+02  0.00000000000E+00 0.  1.
         21   -1    0    0  502  503 -0.00000000000E+00 -0.00000000000E+00 -0.68450493900E+03  0.68450493900E+03  0.00000000000E+00 0.  1.
         25    2    1    2    0    0 -0.17242813793E+02 -0.15164906920E+02 -0.18737117613E+03  0.22640750705E+03  0.12500045030E+03 0.  0.
          5    1    3    3  501    0  0.51197015899E+02 -0.25612873494E+02 -0.95946193832E+02  0.11172661203E+03  0.10000000000E+00 0. -1.
         -5    1    3    3    0  501 -0.68439829692E+02  0.10447966573E+02 -0.91424982297E+02  0.11468089502E+03  0.10000000000E+00 0. -1.
         21    1    1    2  504  503  0.17242813793E+02  0.15164906920E+02 -0.47733959668E+03  0.47789159815E+03  0.00000000000E+00 0.  1.
<mgrwt>
<rscale>  1 0.12709210E+03</rscale>
<asrwt>0</asrwt>
<pdfrwt beam="1">  1       21 0.30452562E-02 0.12709210E+03</pdfrwt>
<pdfrwt beam="2">  1       21 0.10530846E+00 0.12709210E+03</pdfrwt>
<totfact> 0.45392249E+05</totfact>
</mgrwt>
</event>
<event>
 6    1  0.4271609E-002  0.1353974E+03  0.7546771E-02  0.1219660E+00
         21   -1    0    0  504  502  0.00000000000E+00  0.00000000000E+00  0.28421099494E+03  0.28421099494E+03  0.00000000000E+00 0.  1.
         21   -1    0    0  502  503 -0.00000000000E+00 -0.00000000000E+00 -0.98562908530E+02  0.98562908530E+02  0.00000000000E+00 0.  1.
         25    2    1    2    0    0  0.57514285460E+01 -0.51705848405E+02  0.25934648123E+03  0.29256288923E+03  0.12500349251E+03 0.  0.
          5    1    3    3  501    0  0.28185104029E+02 -0.88175941246E+02  0.17578073976E+03  0.19866624065E+03  0.10000000000E+00 0.  1.
         -5    1    3    3    0  501 -0.22433675483E+02  0.36470092841E+02  0.83565741475E+02  0.93896648587E+02  0.10000000000E+00 0.  1.
         21    1    1    2  504  503 -0.57514285460E+01  0.51705848405E+02 -0.73698394824E+02  0.90211014234E+02  0.00000000000E+00 0.  1.
<mgrwt>
<rscale>  1 0.13539737E+03</rscale>
<asrwt>0</asrwt>
<pdfrwt beam="1">  1       21 0.43724768E-01 0.13539737E+03</pdfrwt>
<pdfrwt beam="2">  1       21 0.15163525E-01 0.13539737E+03</pdfrwt>
<totfact> 0.19644636E+05</totfact>
</mgrwt>
</event>
<event>
 6    1  0.4271609E-002  0.1297910E+03  0.7546771E-02  0.1227766E+00
         21   -1    0    0  504  502  0.00000000000E+00  0.00000000000E+00  0.34371396761E+01  0.34371396761E+01  0.00000000000E+00 0.  1.
         21   -1    0    0  502  503 -0.00000000000E+00 -0.00000000000E+00 -0.33177135119E+04  0.33177135119E+04  0.00000000000E+00 0.  1.
         25    2    1    2    0    0  0.29698984582E+02  0.18298717172E+02 -0.12776456048E+04  0.12842211595E+04  0.12501528864E+03 0.  0.
          5    1    3    3  501    0  0.61187963255E+02  0.53540778807E+02 -0.71988558918E+03  0.72446245821E+03  0.10000000000E+00 0.  1.
         -5    1    3    3    0  501 -0.31488978673E+02 -0.35242061635E+02 -0.55776001563E+03  0.55975870134E+03  0.10000000000E+00 0.  1.
         21    1    1    2  504  503 -0.29698984582E+02 -0.18298717172E+02 -0.20366307674E+04  0.20369294920E+04  0.00000000000E+00 0.  1.
<mgrwt>
<rscale>  1 0.12979097E+03</rscale>
<asrwt>0</asrwt>
<pdfrwt beam="1">  1       21 0.52879244E-03 0.12979097E+03</pdfrwt>
<pdfrwt beam="2">  1       21 0.51041580E+00 0.12979097E+03</pdfrwt>
<totfact> 0.18001905E+04</totfact>
</mgrwt>
</event>
<event>
 6    1  0.4271609E-002  0.1307282E+03  0.7546771E-02  0.1226379E+00
         21   -1    0    0  503  502  0.00000000000E+00  0.00000000000E+00  0.37270284625E+03  0.37270284625E+03  0.00000000000E+00 0.  1.
         21   -1    0    0  504  503 -0.00000000000E+00 -0.00000000000E+00 -0.49961630068E+02  0.49961630068E+02  0.00000000000E+00 0.  1.
         25    2    1    2    0    0  0.38128229903E+02  0.33840806562E+01  0.35134637302E+03  0.37487882036E+03  0.12499856882E+03 0.  0.
          5    1    3    3  501    0  0.25371978938E+02  0.40348997608E+02  0.32320679620E+03  0.32670234470E+03  0.10000000000E+00 0. -1.
         -5    1    3    3    0  501  0.12756250965E+02 -0.36964916952E+02  0.28139576823E+02  0.48176475667E+02  0.10000000000E+00 0. -1.
         21    1    1    2  504  502 -0.38128229903E+02 -0.33840806562E+01 -0.28605156837E+02  0.47785655955E+02  0.00000000000E+00 0.  1.
<mgrwt>
<rscale>  1 0.13072818E+03</rscale>
<asrwt>0</asrwt>
<pdfrwt beam="1">  1       21 0.57338898E-01 0.13072818E+03</pdfrwt>
<pdfrwt beam="2">  1       21 0.76864048E-02 0.13072818E+03</pdfrwt>
<totfact> 0.37164067E+05</totfact>
</mgrwt>
</event>
<event>
 6    1  0.4271609E-002  0.1273609E+03  0.7546771E-02  0.1231425E+00
         21   -1    0    0  504  502  0.00000000000E+00  0.00000000000E+00  0.12268993860E+04  0.12268993860E+04  0.00000000000E+00 0.  1.
         21   -1    0    0  502  503 -0.00000000000E+00 -0.00000000000E+00 -0.22377801307E+02  0.22377801307E+02  0.00000000000E+00 0. -1.
         25    2    1    2    0    0 -0.23683863263E+02 -0.59377519991E+01  0.12157495726E+04  0.12224024781E+04  0.12499845161E+03 0.  0.
          5    1    3    3  501    0  0.38045751157E+02 -0.40312029549E+02  0.45028278356E+03  0.45368175418E+03  0.10000000000E+00 0.  1.
         -5    1    3    3    0  501 -0.61729614419E+02  0.34374277550E+02  0.76546678909E+03  0.76872072396E+03  0.10000000000E+00 0.  1.
         21    1    1    2  504  503  0.23683863263E+02  0.59377519991E+01 -0.11227987970E+02  0.26874709146E+02  0.00000000000E+00 0. -1.
<mgrwt>
<rscale>  1 0.12736089E+03</rscale>
<asrwt>0</asrwt>
<pdfrwt beam="1">  1       21 0.18875370E+00 0.12736089E+03</pdfrwt>
<pdfrwt beam="2">  1       21 0.34427396E-02 0.12736089E+03</pdfrwt>
<totfact> 0.83322467E+04</totfact>
</mgrwt>
</event>
<event>
 6    1  0.4271609E-002  0.1283645E+03  0.7546771E-02  0.1229903E+00
         21   -1    0    0  504  502  0.00000000000E+00  0.00000000000E+00  0.27148129242E+03  0.27148129242E+03  0.00000000000E+00 0. -1.
         21   -1    0    0  502  503 -0.00000000000E+00 -0.00000000000E+00 -0.23319860873E+02  0.23319860873E+02  0.00000000000E+00 0. -1.
         25    2    1    2    0    0 -0.12445039651E+02  0.26414325423E+02  0.21679421860E+03  0.25194677607E+03  0.12499939661E+03 0.  0.
          5    1    3    3  501    0 -0.51808420425E+02  0.48204290006E+01  0.19540641211E+03  0.20221529333E+03  0.10000000000E+00 0. -1.
         -5    1    3    3    0  501  0.39363380775E+02  0.21593896422E+02  0.21387806490E+02  0.49731482736E+02  0.10000000000E+00 0. -1.
         21    1    1    2  504  503  0.12445039651E+02 -0.26414325423E+02  0.31367212947E+02  0.42854377227E+02  0.00000000000E+00 0. -1.
<mgrwt>
<rscale>  1 0.12836450E+03</rscale>
<asrwt>0</asrwt>
<pdfrwt beam="1">  1       21 0.41766350E-01 0.12836450E+03</pdfrwt>
<pdfrwt beam="2">  1       21 0.35876711E-02 0.12836450E+03</pdfrwt>
<totfact> 0.25749751E+06</totfact>
</mgrwt>
</event>
<event>
 6    1  0.4271609E-002  0.1293465E+03  0.7546771E-02  0.1228429E+00
         21   -1    0    0  504  502  0.00000000000E+00  0.00000000000E+00  0.44916108123E+03  0.44916108123E+03  0.00000000000E+00 0.  1.
         21   -1    0    0  502  503 -0.00000000000E+00 -0.00000000000E+00 -0.16791007788E+02  0.16791007788E+02  0.00000000000E+00 0.  1.
         25    2    1    2    0    0  0.14209721050E+01  0.32987689555E+02  0.25941488422E+03  0.28987340120E+03  0.12506118401E+03 0.  0.
          5    1    3    3  501    0  0.48605012153E+02  0.38794063574E+02  0.21841412940E+03  0.22709506489E+03  0.10000000000E+00 0. -1.
         -5    1    3    3    0  501 -0.47184040048E+02 -0.58063740188E+01  0.41000754821E+02  0.62778336314E+02  0.10000000000E+00 0. -1.
         21    1    1    2  504  503 -0.14209721050E+01 -0.32987689555E+02  0.17295518922E+03  0.17607868782E+03  0.00000000000E+00 0.  1.
<mgrwt>
<rscale>  1 0.12934646E+03</rscale>
<asrwt>0</asrwt>
<pdfrwt beam="1">  1       21 0.69101696E-01 0.12934646E+03</pdfrwt>
<pdfrwt beam="2">  1       21 0.25832323E-02 0.12934646E+03</pdfrwt>
<totfact> 0.15427785E+06</totfact>
</mgrwt>
</event>
<event>
 6    1  0.4271609E-002  0.1260844E+03  0.7546771E-02  0.1233384E+00
         21   -1    0    0  503  502  0.00000000000E+00  0.00000000000E+00  0.83106898668E+02  0.83106898668E+02  0.00000000000E+00 0. -1.
         21   -1    0    0  504  503 -0.00000000000E+00 -0.00000000000E+00 -0.90542871642E+02  0.90542871642E+02  0.00000000000E+00 0.  1.
         25    2    1    2    0    0 -0.81516408541E+01 -0.14318411717E+02  0.32706652853E+02  0.13025741418E+03  0.12500321054E+03 0.  0.
          5    1    3    3  501    0 -0.36616567741E-01  0.37491473795E+02  0.60295676621E+02  0.71001342010E+02  0.10000000000E+00 0.  1.
         -5    1    3    3    0  501 -0.81150242864E+01 -0.51809885512E+02 -0.27589023768E+02  0.59256072165E+02  0.10000000000E+00 0.  1.
         21    1    1    2  504  502  0.81516408541E+01  0.14318411717E+02 -0.40142625827E+02  0.43392356135E+02  0.00000000000E+00 0.  1.
<mgrwt>
<rscale>  1 0.12608437E+03</rscale>
<asrwt>0</asrwt>
<pdfrwt beam="1">  1       21 0.12785677E-01 0.12608437E+03</pdfrwt>
<pdfrwt beam="2">  1       21 0.13929673E-01 0.12608437E+03</pdfrwt>
<totfact> 0.23305389E+06</totfact>
</mgrwt>
</event>
<event>
 6    1  0.4271609E-002  0.1261048E+03  0.7546771E-02  0.1233353E+00
         21   -1    0    0  504  502  0.00000000000E+00  0.00000000000E+00  0.11585364416E+03  0.11585364416E+03  0.00000000000E+00 0.  1.
         21   -1    0    0  502  503 -0.00000000000E+00 -0.00000000000E+00 -0.44021263270E+02  0.44021263270E+02  0.00000000000E+00 0.  1.
         25    2    1    2    0    0  0.30622156431E+01 -0.16326673435E+02  0.65467309223E+02  0.14208582180E+03  0.12500589886E+03 0.  0.
          5    1    3    3  501    0  0.27614857615E+01 -0.45422412299E+01  0.10279932003E+03  0.10293671822E+03  0.10000000000E+00 0.  1.
         -5    1    3    3    0  501  0.30072988160E+00 -0.11784432206E+02 -0.37332010805E+02  0.39149103587E+02  0.10000000000E+00 0.  1.
         21    1    1    2  504  503 -0.30622156431E+01  0.16326673435E+02  0.63650716689E+01  0.17789085627E+02  0.00000000000E+00 0.  1.
<mgrwt>
<rscale>  1 0.12610477E+03</rscale>
<asrwt>0</asrwt>
<pdfrwt beam="1">  1       21 0.17823637E-01 0.12610477E+03</pdfrwt>
<pdfrwt beam="2">  1       21 0.67725021E-02 0.12610477E+03</pdfrwt>
<totfact> 0.45101353E+06</totfact>
</mgrwt>
</event>
<event>
 6    1  0.4271609E-002  0.1289507E+03  0.7546771E-02  0.1229021E+00
         21   -1    0    0  503  502  0.00000000000E+00  0.00000000000E+00  0.38670885065E+03  0.38670885065E+03  0.00000000000E+00 0.  1.
         21   -1    0    0  504  503 -0.00000000000E+00 -0.00000000000E+00 -0.75952482163E+02  0.75952482163E+02  0.00000000000E+00 0.  1.
         25    2    1    2    0    0 -0.31626378274E+02  0.12079693710E+00  0.37200963397E+03  0.39372509468E+03  0.12501215949E+03 0.  0.
          5    1    3    3  501    0 -0.50785706325E+01 -0.60302989983E+02  0.14020107208E+03  0.15270426678E+03  0.10000000000E+00 0.  1.
         -5    1    3    3    0  501 -0.26547807642E+02  0.60423786920E+02  0.23180856189E+03  0.24102082790E+03  0.10000000000E+00 0.  1.
         21    1    1    2  504  502  0.31626378274E+02 -0.12079693710E+00 -0.61253265487E+02  0.68936238129E+02  0.00000000000E+00 0.  1.
<mgrwt>
<rscale>  1 0.12895070E+03</rscale>
<asrwt>0</asrwt>
<pdfrwt beam="1">  1       21 0.59493668E-01 0.12895070E+03</pdfrwt>
<pdfrwt beam="2">  1       21 0.11684997E-01 0.12895070E+03</pdfrwt>
<totfact> 0.16566727E+05</totfact>
</mgrwt>
</event>
<event>
 6    1  0.4271609E-002  0.1263924E+03  0.7546771E-02  0.1232909E+00
         21   -1    0    0  504  502  0.00000000000E+00  0.00000000000E+00  0.19744320103E+03  0.19744320103E+03  0.00000000000E+00 0. -1.
         21   -1    0    0  502  503 -0.00000000000E+00 -0.00000000000E+00 -0.32722406235E+02  0.32722406235E+02  0.00000000000E+00 0. -1.
         25    2    1    2    0    0 -0.10326569128E+02  0.15541707486E+02  0.16898626510E+03  0.21102463189E+03  0.12500741886E+03 0.  0.
          5    1    3    3  501    0  0.31263237582E+02 -0.40563359038E+02  0.10258221606E+03  0.11465555884E+03  0.10000000000E+00 0.  1.
         -5    1    3    3    0  501 -0.41589806710E+02  0.56105066524E+02  0.66404049038E+02  0.96369073050E+02  0.10000000000E+00 0.  1.
         21    1    1    2  504  503  0.10326569128E+02 -0.15541707486E+02 -0.42654703028E+01  0.19140975378E+02  0.00000000000E+00 0. -1.
<mgrwt>
<rscale>  1 0.12639239E+03</rscale>
<asrwt>0</asrwt>
<pdfrwt beam="1">  1       21 0.30375876E-01 0.12639239E+03</pdfrwt>
<pdfrwt beam="2">  1       21 0.50342165E-02 0.12639239E+03</pdfrwt>
<totfact> 0.27402230E+06</totfact>
</mgrwt>
</event>
<event>
 6    1  0.4271609E-002  0.1272804E+03  0.7546771E-02  0.1231548E+00
         21   -1    0    0  504  502  0.00000000000E+00  0.00000000000E+00  0.25696269851E+02  0.25696269851E+02  0.00000000000E+00 0.  1.
         21   -1    0    0  502  503 -0.00000000000E+00 -0.00000000000E+00 -0.22278310749E+03  0.22278310749E+03  0.00000000000E+00 0.  1.
         25    2    1    2    0    0 -0.37018710383E+01 -0.23702716368E+02 -0.16338229170E+03  0.20710886816E+03  0.12499914968E+03 0.  0.
          5    1    3    3  501    0 -0.16197710438E+02 -0.51433711874E+02 -0.15466701415E+02  0.56098318987E+02  0.10000000000E+00 0.  1.
         -5    1    3    3    0  501  0.12495839399E+02  0.27730995506E+02 -0.14791559028E+03  0.15101054918E+03  0.10000000000E+00 0.  1.
         21    1    1    2  504  503  0.37018710383E+01  0.23702716368E+02 -0.33704545943E+02  0.41370509177E+02  0.00000000000E+00 0.  1.
<mgrwt>
<rscale>  1 0.12728044E+03</rscale>
<asrwt>0</asrwt>
<pdfrwt beam="1">  1       21 0.39532723E-02 0.12728044E+03</pdfrwt>
<pdfrwt beam="2">  1       21 0.34274324E-01 0.12728044E+03</pdfrwt>
<totfact> 0.32447184E+06</totfact>
</mgrwt>
</event>
<event>
 6    1  0.4271609E-002  0.1281593E+03  0.7546771E-02  0.1230213E+00
         21   -1    0    0  503  502  0.00000000000E+00  0.00000000000E+00  0.57348604244E+03  0.57348604244E+03  0.00000000000E+00 0.  1.
         21   -1    0    0  504  503 -0.00000000000E+00 -0.00000000000E+00 -0.22547815553E+02  0.22547815553E+02  0.00000000000E+00 0.  1.
         25    2    1    2    0    0 -0.17389828436E+02  0.22205151084E+02  0.55309345729E+03  0.56774746752E+03  0.12501735686E+03 0.  0.
          5    1    3    3  501    0 -0.64045223613E+02 -0.16343025846E+02  0.33229149744E+03  0.33880161516E+03  0.10000000000E+00 0.  1.
         -5    1    3    3    0  501  0.46655395177E+02  0.38548176930E+02  0.22080195985E+03  0.22894585237E+03  0.10000000000E+00 0.  1.
         21    1    1    2  504  502  0.17389828436E+02 -0.22205151084E+02 -0.21552304016E+01  0.28286390469E+02  0.00000000000E+00 0.  1.
<mgrwt>
<rscale>  1 0.12815933E+03</rscale>
<asrwt>0</asrwt>
<pdfrwt beam="1">  1       21 0.88228611E-01 0.12815933E+03</pdfrwt>
<pdfrwt beam="2">  1       21 0.34688951E-02 0.12815933E+03</pdfrwt>
<totfact> 0.55242858E+05</totfact>
</mgrwt>
</event>
<event>
 6    1  0.4271609E-002  0.1275396E+03  0.7546771E-02  0.1231153E+00
         21   -1    0    0  503  502  0.00000000000E+00  0.00000000000E+00  0.15907521763E+02  0.15907521763E+02  0.00000000000E+00 0. -1.
         21   -1    0    0  504  503 -0.00000000000E+00 -0.00000000000E+00 -0.43361518437E+03  0.43361518437E+03  0.00000000000E+00 0. -1.
         25    2    1    2    0    0  0.18845281699E+01 -0.25245258750E+02 -0.25779773522E+03  0.28762131820E+03  0.12500190345E+03 0.  0.
          5    1    3    3  501    0  0.12954372969E+02  0.48301639534E+02 -0.13608787471E+03  0.14498546066E+03  0.10000000000E+00 0.  1.
         -5    1    3    3    0  501 -0.11069844799E+02 -0.73546898284E+02 -0.12170986051E+03  0.14263585754E+03  0.10000000000E+00 0.  1.
         21    1    1    2  504  502 -0.18845281699E+01  0.25245258750E+02 -0.15990992739E+03  0.16190138793E+03  0.00000000000E+00 0. -1.
<mgrwt>
<rscale>  1 0.12753960E+03</rscale>
<asrwt>0</asrwt>
<pdfrwt beam="1">  1       21 0.24473111E-02 0.12753960E+03</pdfrwt>
<pdfrwt beam="2">  1       21 0.66710026E-01 0.12753960E+03</pdfrwt>
<totfact> 0.18179667E+06</totfact>
</mgrwt>
</event>
<event>
 6    1  0.4271609E-002  0.1268904E+03  0.7546771E-02  0.1232144E+00
         21   -1    0    0  503  502  0.00000000000E+00  0.00000000000E+00  0.70484676204E+03  0.70484676204E+03  0.00000000000E+00 0.  1.
         21   -1    0    0  504  503 -0.00000000000E+00 -0.00000000000E+00 -0.83714680377E+01  0.83714680377E+01  0.00000000000E+00 0.  1.
         25    2    1    2    0    0  0.19528740400E+02  0.97270336424E+01  0.64411042282E+03  0.65649022448E+03  0.12500076467E+03 0.  0.
          5    1    3    3  501    0  0.51340976346E+02 -0.29185097697E+02  0.17502587705E+03  0.18472069028E+03  0.10000000000E+00 0.  1.
         -5    1    3    3    0  501 -0.31812235946E+02  0.38912131339E+02  0.46908454576E+03  0.47176953420E+03  0.10000000000E+00 0.  1.
         21    1    1    2  504  502 -0.19528740400E+02 -0.97270336424E+01  0.52364871179E+02  0.56728005594E+02  0.00000000000E+00 0.  1.
<mgrwt>
<rscale>  1 0.12689042E+03</rscale>
<asrwt>0</asrwt>
<pdfrwt beam="1">  1       21 0.10843792E+00 0.12689042E+03</pdfrwt>
<pdfrwt beam="2">  1       21 0.12879187E-02 0.12689042E+03</pdfrwt>
<totfact> 0.16966907E+06</totfact>
</mgrwt>
</event>
<event>
 6    1  0.4271609E-002  0.1265720E+03  0.7546771E-02  0.1232633E+00
         21   -1    0    0  504  502  0.00000000000E+00  0.00000000000E+00  0.35332360876E+03  0.35332360876E+03  0.00000000000E+00 0. -1.
         21   -1    0    0  502  503 -0.00000000000E+00 -0.00000000000E+00 -0.16866127245E+02  0.16866127245E+02  0.00000000000E+00 0. -1.
         25    2    1    2    0    0 -0.10519635284E+02 -0.16868125486E+02  0.32085677552E+03  0.34491962695E+03  0.12500112910E+03 0.  0.
          5    1    3    3  501    0 -0.34584304451E+02 -0.10658492195E+02  0.16887265325E+02  0.39935789717E+02  0.10000000000E+00 0.  1.
         -5    1    3    3    0  501  0.24064669167E+02 -0.62096332911E+01  0.30396951019E+03  0.30498383723E+03  0.10000000000E+00 0.  1.
         21    1    1    2  504  503  0.10519635284E+02  0.16868125486E+02  0.15600706000E+02  0.25270109055E+02  0.00000000000E+00 0. -1.
<mgrwt>
<rscale>  1 0.12657203E+03</rscale>
<asrwt>0</asrwt>
<pdfrwt beam="1">  1       21 0.54357473E-01 0.12657203E+03</pdfrwt>
<pdfrwt beam="2">  1       21 0.25947891E-02 0.12657203E+03</pdfrwt>
<totfact> 0.25530649E+06</totfact>
</mgrwt>
</event>
<event>
 6    1  0.4271609E-002  0.1259174E+03  0.7546771E-02  0.1233642E+00
         21   -1    0    0  504  502  0.00000000000E+00  0.00000000000E+00  0.66971580864E+03  0.66971580864E+03  0.00000000000E+00 0.  1.
         21   -1    0    0  502  503 -0.00000000000E+00 -0.00000000000E+00 -0.67226896339E+02  0.67226896339E+02  0.00000000000E+00 0.  1.
         25    2    1    2    0    0 -0.80591126114E+01  0.12783348105E+02  0.66285760528E+03  0.67471134329E+03  0.12500731418E+03 0.  0.
          5    1    3    3  501    0 -0.27241002808E+02  0.34596176713E+02  0.81553844712E+02  0.92682292076E+02  0.10000000000E+00 0.  1.
         -5    1    3    3    0  501  0.19181890197E+02 -0.21812828609E+02  0.58130376057E+03  0.58202905121E+03  0.10000000000E+00 0.  1.
         21    1    1    2  504  503  0.80591126114E+01 -0.12783348105E+02 -0.60368692984E+02  0.62231361687E+02  0.00000000000E+00 0.  1.
<mgrwt>
<rscale>  1 0.12591740E+03</rscale>
<asrwt>0</asrwt>
<pdfrwt beam="1">  1       21 0.10303320E+00 0.12591740E+03</pdfrwt>
<pdfrwt beam="2">  1       21 0.10342600E-01 0.12591740E+03</pdfrwt>
<totfact> 0.60466231E+04</totfact>
</mgrwt>
</event>
<event>
 6    1  0.4271609E-002  0.1260193E+03  0.7546771E-02  0.1233485E+00
         21   -1    0    0  503  502  0.00000000000E+00  0.00000000000E+00  0.55227473781E+03  0.55227473781E+03  0.00000000000E+00 0.  1.
         21   -1    0    0  504  503 -0.00000000000E+00 -0.00000000000E+00 -0.11471124019E+02  0.11471124019E+02  0.00000000000E+00 0.  1.
         25    2    1    2    0    0  0.10909373978E+02 -0.11547591560E+02  0.52939600290E+03  0.54418838506E+03  0.12501403615E+03 0.  0.
          5    1    3    3  501    0  0.74091804068E-01  0.53865549377E+02  0.15825011194E+03  0.16716641657E+03  0.10000000000E+00 0. -1.
         -5    1    3    3    0  501  0.10835282174E+02 -0.65413140938E+02  0.37114589096E+03  0.37702196849E+03  0.10000000000E+00 0. -1.
         21    1    1    2  504  502 -0.10909373978E+02  0.11547591560E+02  0.11407610891E+02  0.19557476772E+02  0.00000000000E+00 0. -1.
<mgrwt>
<rscale>  1 0.12601933E+03</rscale>
<asrwt>0</asrwt>
<pdfrwt beam="1">  1       21 0.84965324E-01 0.12601933E+03</pdfrwt>
<pdfrwt beam="2">  1       21 0.17647887E-02 0.12601933E+03</pdfrwt>
<totfact> 0.18065842E+06</totfact>
</mgrwt>
</event>
<event>
 6    1  0.4271609E-002  0.1265827E+03  0.7546771E-02  0.1232616E+00
         21   -1    0    0  504  502  0.00000000000E+00  0.00000000000E+00  0.38939079914E+02  0.38939079914E+02  0.00000000000E+00 0.  1.
         21   -1    0    0  502  503 -0.00000000000E+00 -0.00000000000E+00 -0.17050567565E+03  0.17050567565E+03  0.00000000000E+00 0.  1.
         25    2    1    2    0    0 -0.12325706835E+02 -0.15547992423E+02 -0.69761882576E+02  0.14453338764E+03  0.12501806575E+03 0.  0.
          5    1    3    3  501    0  0.21966735595E+02  0.38153555826E+02 -0.67733708232E+02  0.80784259145E+02  0.10000000000E+00 0.  1.
         -5    1    3    3    0  501 -0.34292442430E+02 -0.53701548250E+02 -0.20281743445E+01  0.63749128491E+02  0.10000000000E+00 0.  1.
         21    1    1    2  504  503  0.12325706835E+02  0.15547992423E+02 -0.61804713162E+02  0.64911367929E+02  0.00000000000E+00 0.  1.
<mgrwt>
<rscale>  1 0.12658270E+03</rscale>
<asrwt>0</asrwt>
<pdfrwt beam="1">  1       21 0.59906277E-02 0.12658270E+03</pdfrwt>
<pdfrwt beam="2">  1       21 0.26231642E-01 0.12658270E+03</pdfrwt>
<totfact> 0.27061384E+06</totfact>
</mgrwt>
</event>
<event>
 6    1  0.4271609E-002  0.1295403E+03  0.7546771E-02  0.1228139E+00
         21   -1    0    0  504  502  0.00000000000E+00  0.00000000000E+00  0.87039626600E+02  0.87039626600E+02  0.00000000000E+00 0.  1.
         21   -1    0    0  502  503 -0.00000000000E+00 -0.00000000000E+00 -0.10222597987E+03  0.10222597987E+03  0.00000000000E+00 0.  1.
         25    2    1    2    0    0  0.33912330105E+02  0.17190954318E+01  0.29779393751E+02  0.13291917954E+03  0.12501077784E+03 0.  0.
          5    1    3    3  501    0 -0.89458978093E+01  0.56621353756E+02  0.39640238532E+00  0.57325159604E+02  0.10000000000E+00 0.  1.
         -5    1    3    3    0  501  0.42858227915E+02 -0.54902258324E+02  0.29382991365E+02  0.75594019940E+02  0.10000000000E+00 0.  1.
         21    1    1    2  504  503 -0.33912330105E+02 -0.17190954318E+01 -0.44965747021E+02  0.56346426927E+02  0.00000000000E+00 0.  1.
<mgrwt>
<rscale>  1 0.12954033E+03</rscale>
<asrwt>0</asrwt>
<pdfrwt beam="1">  1       21 0.13390712E-01 0.12954033E+03</pdfrwt>
<pdfrwt beam="2">  1       21 0.15727074E-01 0.12954033E+03</pdfrwt>
<totfact> 0.17262214E+06</totfact>
</mgrwt>
</event>
<event>
 6    1  0.4271609E-002  0.1305874E+03  0.7546771E-02  0.1226587E+00
         21   -1    0    0  504  502  0.00000000000E+00  0.00000000000E+00  0.35912398167E+02  0.35912398167E+02  0.00000000000E+00 0. -1.
         21   -1    0    0  502  503 -0.00000000000E+00 -0.00000000000E+00 -0.19832639269E+03  0.19832639269E+03  0.00000000000E+00 0. -1.
         25    2    1    2    0    0  0.37782009706E+02  0.20438688807E+00 -0.11886266413E+03  0.17658256474E+03  0.12500218884E+03 0.  0.
          5    1    3    3  501    0 -0.25308098966E+02 -0.40828586238E+02 -0.76183251917E+02  0.90063151178E+02  0.10000000000E+00 0. -1.
         -5    1    3    3    0  501  0.63090108672E+02  0.41032973126E+02 -0.42679412210E+02  0.86519413558E+02  0.10000000000E+00 0. -1.
         21    1    1    2  504  503 -0.37782009706E+02 -0.20438688807E+00 -0.43551330397E+02  0.57656226123E+02  0.00000000000E+00 0. -1.
<mgrwt>
<rscale>  1 0.13058740E+03</rscale>
<asrwt>0</asrwt>
<pdfrwt beam="1">  1       21 0.55249844E-02 0.13058740E+03</pdfrwt>
<pdfrwt beam="2">  1       21 0.30511752E-01 0.13058740E+03</pdfrwt>
<totfact> 0.23253004E+06</totfact>
</mgrwt>
</event>
<event>
 6    1  0.4271609E-002  0.1301288E+03  0.7546771E-02  0.1227265E+00
         21   -1    0    0  503  502  0.00000000000E+00  0.00000000000E+00  0.21554009322E+03  0.21554009322E+03  0.00000000000E+00 0.  1.
         21   -1    0    0  504  503 -0.00000000000E+00 -0.00000000000E+00 -0.42776475670E+02  0.42776475670E+02  0.00000000000E+00 0.  1.
         25    2    1    2    0    0  0.33835376945E+02 -0.12908706321E+02  0.17927229894E+03  0.22152213500E+03  0.12498812621E+03 0.  0.
          5    1    3    3  501    0  0.45275474679E+02 -0.29142219989E+02  0.14780195746E+02  0.55835488532E+02  0.10000000000E+00 0.  1.
         -5    1    3    3    0  501 -0.11440097734E+02  0.16233513668E+02  0.16449210320E+03  0.16568664646E+03  0.10000000000E+00 0.  1.
         21    1    1    2  504  502 -0.33835376945E+02  0.12908706321E+02 -0.65086813956E+01  0.36794433891E+02  0.00000000000E+00 0.  1.
<mgrwt>
<rscale>  1 0.13012878E+03</rscale>
<asrwt>0</asrwt>
<pdfrwt beam="1">  1       21 0.33160014E-01 0.13012878E+03</pdfrwt>
<pdfrwt beam="2">  1       21 0.65809964E-02 0.13012878E+03</pdfrwt>
<totfact> 0.14700828E+06</totfact>
</mgrwt>
</event>
<event>
 6    1  0.4271609E-002  0.1259869E+03  0.7546771E-02  0.1233535E+00
         21   -1    0    0  503  502  0.00000000000E+00  0.00000000000E+00  0.10200282284E+03  0.10200282284E+03  0.00000000000E+00 0.  1.
         21   -1    0    0  504  503 -0.00000000000E+00 -0.00000000000E+00 -0.95367150523E+02  0.95367150523E+02  0.00000000000E+00 0. -1.
         25    2    1    2    0    0 -0.35760743848E+01 -0.15304326836E+02  0.61573419846E+02  0.14022833503E+03  0.12500275671E+03 0.  0.
          5    1    3    3  501    0  0.55136839898E+02 -0.23858747145E+01  0.57915316312E+02  0.79999733597E+02  0.10000000000E+00 0.  1.
         -5    1    3    3    0  501 -0.58712914283E+02 -0.12918452122E+02  0.36581035344E+01  0.60228601431E+02  0.10000000000E+00 0.  1.
         21    1    1    2  504  502  0.35760743848E+01  0.15304326836E+02 -0.54937747530E+02  0.57141638335E+02  0.00000000000E+00 0. -1.
<mgrwt>
<rscale>  1 0.12598690E+03</rscale>
<asrwt>0</asrwt>
<pdfrwt beam="1">  1       21 0.15692742E-01 0.12598690E+03</pdfrwt>
<pdfrwt beam="2">  1       21 0.14671869E-01 0.12598690E+03</pdfrwt>
<totfact> 0.14702782E+06</totfact>
</mgrwt>
</event>
<event>
 6    1  0.4271609E-002  0.1335522E+03  0.7546771E-02  0.1222278E+00
         21   -1    0    0  503  502  0.00000000000E+00  0.00000000000E+00  0.36774799319E+03  0.36774799319E+03  0.00000000000E+00 0.  1.
         21   -1    0    0  504  503 -0.00000000000E+00 -0.00000000000E+00 -0.54057987472E+02  0.54057987472E+02  0.00000000000E+00 0.  1.
         25    2    1    2    0    0  0.41729526424E+02 -0.21640959361E+02  0.34184836334E+03  0.36701019979E+03  0.12500599478E+03 0.  0.
          5    1    3    3  501    0 -0.92275374682E+01  0.46471165642E+02  0.10044770896E+03  0.11106065423E+03  0.10000000000E+00 0. -1.
         -5    1    3    3    0  501  0.50957063892E+02 -0.68112125003E+02  0.24140065439E+03  0.25594954556E+03  0.10000000000E+00 0. -1.
         21    1    1    2  504  502 -0.41729526424E+02  0.21640959361E+02 -0.28158357622E+02  0.54795780874E+02  0.00000000000E+00 0.  1.
<mgrwt>
<rscale>  1 0.13355217E+03</rscale>
<asrwt>0</asrwt>
<pdfrwt beam="1">  1       21 0.56576613E-01 0.13355217E+03</pdfrwt>
<pdfrwt beam="2">  1       21 0.83166137E-02 0.13355217E+03</pdfrwt>
<totfact> 0.33352734E+05</totfact>
</mgrwt>
</event>
<event>
 6    1  0.4271609E-002  0.1404286E+03  0.7546771E-02  0.1212753E+00
         21   -1    0    0  503  502  0.00000000000E+00  0.00000000000E+00  0.18842990976E+03  0.18842990976E+03  0.00000000000E+00 0. -1.
         21   -1    0    0  504  503 -0.00000000000E+00 -0.00000000000E+00 -0.22027563599E+04  0.22027563599E+04  0.00000000000E+00 0.  1.
         25    2    1    2    0    0  0.51576648918E+02  0.37881376004E+02  0.16173024171E+03  0.21418882467E+03  0.12500012867E+03 0.  0.
          5    1    3    3  501    0  0.25687110121E+02 -0.51644910075E+01  0.16184986410E+03  0.16395697028E+03  0.10000000000E+00 0.  1.
         -5    1    3    3    0  501  0.25889538797E+02  0.43045867012E+02 -0.11962238796E+00  0.50231854389E+02  0.10000000000E+00 0.  1.
         21    1    1    2  504  502 -0.51576648918E+02 -0.37881376004E+02 -0.21760566919E+04  0.21769974450E+04  0.00000000000E+00 0.  1.
<mgrwt>
<rscale>  1 0.14042856E+03</rscale>
<asrwt>0</asrwt>
<pdfrwt beam="1">  1       21 0.28989217E-01 0.14042856E+03</pdfrwt>
<pdfrwt beam="2">  1       21 0.33888559E+00 0.14042856E+03</pdfrwt>
<totfact> 0.25528745E+02</totfact>
</mgrwt>
</event>
<event>
 6    1  0.4271609E-002  0.1277330E+03  0.7546771E-02  0.1230859E+00
         21   -1    0    0  503  502  0.00000000000E+00  0.00000000000E+00  0.64085218377E+03  0.64085218377E+03  0.00000000000E+00 0.  1.
         21   -1    0    0  504  503 -0.00000000000E+00 -0.00000000000E+00 -0.13418536095E+02  0.13418536095E+02  0.00000000000E+00 0.  1.
         25    2    1    2    0    0  0.21650998070E+02 -0.14925723935E+02  0.60876350768E+03  0.62201987368E+03  0.12499668801E+03 0.  0.
          5    1    3    3  501    0  0.53598189549E+02  0.16069697077E+02  0.13454305965E+03  0.14571494771E+03  0.10000000000E+00 0.  1.
         -5    1    3    3    0  501 -0.31947191480E+02 -0.30995421012E+02  0.47422044804E+03  0.47630492597E+03  0.10000000000E+00 0.  1.
         21    1    1    2  504  502 -0.21650998070E+02  0.14925723935E+02  0.18670139994E+02  0.32250846187E+02  0.00000000000E+00 0.  1.
<mgrwt>
<rscale>  1 0.12773298E+03</rscale>
<asrwt>0</asrwt>
<pdfrwt beam="1">  1       21 0.98592620E-01 0.12773298E+03</pdfrwt>
<pdfrwt beam="2">  1       21 0.20643907E-02 0.12773298E+03</pdfrwt>
<totfact> 0.99788826E+05</totfact>
</mgrwt>
</event>
