<event>
 6    1  0.4259848E-002  0.1337452E+03  0.7546771E-02  0.1222002E+00
         21   -1    0    0  504  502  0.00000000000E+00  0.00000000000E+00  0.12400923511E+03  0.12400923511E+03  0.00000000000E+00 0. -1.
         21   -1    0    0  502  503 -0.00000000000E+00 -0.00000000000E+00 -0.66328103982E+02  0.66328103982E+02  0.00000000000E+00 0. -1.
         25    2    1    2    0    0 -0.74676516770E+01 -0.46988741044E+02  0.40325820890E+02  0.13969235513E+03  0.12499629853E+03 0.  0.
          5    1    3    3  501    0  0.37244377538E+02  0.27887703644E+02  0.13371780455E+02  0.48411591435E+02  0.10000000000E+00 0.  1.
         -5    1    3    3    0  501 -0.44712029215E+02 -0.74876444688E+02  0.26954040435E+02  0.91280763699E+02  0.10000000000E+00 0.  1.
         21    1    1    2  504  503  0.74676516770E+01  0.46988741044E+02  0.17355310237E+02  0.50644983956E+02  0.00000000000E+00 0. -1.
<mgrwt>
<rscale>  1 0.13374521E+03</rscale>
<asrwt>0</asrwt>
<pdfrwt beam="1">  1       21 0.19078344E-01 0.13374521E+03</pdfrwt>
<pdfrwt beam="2">  1       21 0.10204324E-01 0.13374521E+03</pdfrwt>
<totfact> 0.19639114E+06</totfact>
</mgrwt>
</event>
<event>
 6    1  0.4259848E-002  0.1263272E+03  0.7546771E-02  0.1233010E+00
         21   -1    0    0  503  502  0.00000000000E+00  0.00000000000E+00  0.20832648383E+03  0.20832648383E+03  0.00000000000E+00 0.  1.
         21   -1    0    0  504  503 -0.00000000000E+00 -0.00000000000E+00 -0.75471565399E+02  0.75471565399E+02  0.00000000000E+00 0. -1.
         25    2    1    2    0    0  0.18118803195E+02  0.23776445450E+01  0.18755202812E+03  0.22612901046E+03  0.12499848758E+03 0.  0.
          5    1    3    3  501    0  0.17345046982E+02  0.55143100757E+02  0.42421809847E+02  0.71702386059E+02  0.10000000000E+00 0. -1.
         -5    1    3    3    0  501  0.77375621343E+00 -0.52765456212E+02  0.14513021828E+03  0.15442662441E+03  0.10000000000E+00 0. -1.
         21    1    1    2  504  502 -0.18118803195E+02 -0.23776445450E+01 -0.54697109695E+02  0.57669038763E+02  0.00000000000E+00 0. -1.
<mgrwt>
<rscale>  1 0.12632722E+03</rscale>
<asrwt>0</asrwt>
<pdfrwt beam="1">  1       21 0.32050228E-01 0.12632722E+03</pdfrwt>
<pdfrwt beam="2">  1       21 0.11611010E-01 0.12632722E+03</pdfrwt>
<totfact> 0.58667251E+05</totfact>
</mgrwt>
</event>
<event>
 6    1  0.4259848E-002  0.1282119E+03  0.7546771E-02  0.1230133E+00
         21   -1    0    0  503  502  0.00000000000E+00  0.00000000000E+00  0.71315926945E+02  0.71315926945E+02  0.00000000000E+00 0.  1.
         21   -1    0    0  504  503 -0.00000000000E+00 -0.00000000000E+00 -0.95100642517E+03  0.95100642517E+03  0.00000000000E+00 0.  1.
         25    2    1    2    0    0  0.23869246332E+02  0.15726171535E+02  0.13276985395E+02  0.12889749227E+03  0.12498492621E+03 0.  0.
          5    1    3    3  501    0  0.60524413078E+02  0.40263970422E+01  0.47779947906E+02  0.77216253946E+02  0.10000000000E+00 0. -1.
         -5    1    3    3    0  501 -0.36655166745E+02  0.11699774493E+02 -0.34502962511E+02  0.51681238321E+02  0.10000000000E+00 0. -1.
         21    1    1    2  504  502 -0.23869246332E+02 -0.15726171535E+02 -0.89296748362E+03  0.89342485984E+03  0.00000000000E+00 0.  1.
<mgrwt>
<rscale>  1 0.12821188E+03</rscale>
<asrwt>0</asrwt>
<pdfrwt beam="1">  1       21 0.10971682E-01 0.12821188E+03</pdfrwt>
<pdfrwt beam="2">  1       21 0.14630867E+00 0.12821188E+03</pdfrwt>
<totfact> 0.23009574E+04</totfact>
</mgrwt>
</event>
<event>
 6    1  0.4259848E-002  0.2039337E+03  0.7546771E-02  0.1146462E+00
         21   -1    0    0  503  502  0.00000000000E+00  0.00000000000E+00  0.23329404970E+03  0.23329404970E+03  0.00000000000E+00 0.  1.
         21   -1    0    0  504  503 -0.00000000000E+00 -0.00000000000E+00 -0.16900658471E+03  0.16900658471E+03  0.00000000000E+00 0.  1.
         25    2    1    2    0    0  0.11815528962E+02  0.16069920161E+03  0.11404992021E+03  0.23365858131E+03  0.12500043278E+03 0.  0.
          5    1    3    3  501    0  0.11586339169E+02  0.75176449504E+02  0.12612588326E+03  0.14728710141E+03  0.10000000000E+00 0. -1.
         -5    1    3    3    0  501  0.22918979353E+00  0.85522752108E+02 -0.12075963045E+02  0.86371479897E+02  0.10000000000E+00 0. -1.
         21    1    1    2  504  502 -0.11815528962E+02 -0.16069920161E+03 -0.49762455224E+02  0.16864205310E+03  0.00000000000E+00 0.  1.
<mgrwt>
<rscale>  1 0.20393369E+03</rscale>
<asrwt>0</asrwt>
<pdfrwt beam="1">  1       21 0.35891392E-01 0.20393369E+03</pdfrwt>
<pdfrwt beam="2">  1       21 0.26001013E-01 0.20393369E+03</pdfrwt>
<totfact> 0.10470932E+05</totfact>
</mgrwt>
</event>
<event>
 6    1  0.4259848E-002  0.1274364E+03  0.7546771E-02  0.1231310E+00
         21   -1    0    0  503  502  0.00000000000E+00  0.00000000000E+00  0.18196436159E+03  0.18196436159E+03  0.00000000000E+00 0.  1.
         21   -1    0    0  504  503 -0.00000000000E+00 -0.00000000000E+00 -0.36961704651E+02  0.36961704651E+02  0.00000000000E+00 0.  1.
         25    2    1    2    0    0 -0.10449136207E+01 -0.24795815476E+02  0.82847150217E+02  0.15199900650E+03  0.12499649343E+03 0.  0.
          5    1    3    3  501    0  0.49734699282E+02  0.23569580305E+02  0.50793815300E+02  0.74893838874E+02  0.10000000000E+00 0. -1.
         -5    1    3    3    0  501 -0.50779612903E+02 -0.48365395781E+02  0.32053334917E+02  0.77105167628E+02  0.10000000000E+00 0. -1.
         21    1    1    2  504  502  0.10449136207E+01  0.24795815476E+02  0.62155506724E+02  0.66927059741E+02  0.00000000000E+00 0.  1.
<mgrwt>
<rscale>  1 0.12743645E+03</rscale>
<asrwt>0</asrwt>
<pdfrwt beam="1">  1       21 0.27994517E-01 0.12743645E+03</pdfrwt>
<pdfrwt beam="2">  1       21 0.56864162E-02 0.12743645E+03</pdfrwt>
<totfact> 0.26117016E+06</totfact>
</mgrwt>
</event>
<event>
 6    1  0.4259848E-002  0.1288215E+03  0.7546771E-02  0.1229215E+00
         21   -1    0    0  504  502  0.00000000000E+00  0.00000000000E+00  0.50465357017E+02  0.50465357017E+02  0.00000000000E+00 0. -1.
         21   -1    0    0  502  503 -0.00000000000E+00 -0.00000000000E+00 -0.41799821965E+03  0.41799821965E+03  0.00000000000E+00 0. -1.
         25    2    1    2    0    0  0.31129142213E+02 -0.29735904608E+01 -0.33682789858E+02  0.13315217390E+03  0.12496841739E+03 0.  0.
          5    1    3    3  501    0  0.60908975872E+02  0.22855477326E+02  0.18609864193E+02  0.67665450792E+02  0.10000000000E+00 0.  1.
         -5    1    3    3    0  501 -0.29779833659E+02 -0.25829067787E+02 -0.52292654051E+02  0.65486723106E+02  0.10000000000E+00 0.  1.
         21    1    1    2  504  503 -0.31129142213E+02  0.29735904608E+01 -0.33385007278E+03  0.33531140277E+03  0.00000000000E+00 0. -1.
<mgrwt>
<rscale>  1 0.12882147E+03</rscale>
<asrwt>0</asrwt>
<pdfrwt beam="1">  1       21 0.77639008E-02 0.12882147E+03</pdfrwt>
<pdfrwt beam="2">  1       21 0.64307420E-01 0.12882147E+03</pdfrwt>
<totfact> 0.28624738E+05</totfact>
</mgrwt>
</event>
<event>
 6    1  0.4259848E-002  0.1260378E+03  0.7546771E-02  0.1233456E+00
         21   -1    0    0  503  502  0.00000000000E+00  0.00000000000E+00  0.61202343674E+02  0.61202343674E+02  0.00000000000E+00 0. -1.
         21   -1    0    0  504  503 -0.00000000000E+00 -0.00000000000E+00 -0.58199920519E+03  0.58199920519E+03  0.00000000000E+00 0. -1.
         25    2    1    2    0    0  0.12542691178E+02 -0.10177181490E+02 -0.39472139637E+01  0.12609957411E+03  0.12499851186E+03 0.  0.
          5    1    3    3  501    0 -0.53181290647E+02 -0.21316097974E+02  0.95523141368E+01  0.58085130740E+02  0.10000000000E+00 0. -1.
         -5    1    3    3    0  501  0.65723981825E+02  0.11138916484E+02 -0.13499528100E+02  0.68014443366E+02  0.10000000000E+00 0. -1.
         21    1    1    2  504  502 -0.12542691178E+02  0.10177181490E+02 -0.51684964755E+03  0.51710197476E+03  0.00000000000E+00 0. -1.
<mgrwt>
<rscale>  1 0.12603778E+03</rscale>
<asrwt>0</asrwt>
<pdfrwt beam="1">  1       21 0.94157456E-02 0.12603778E+03</pdfrwt>
<pdfrwt beam="2">  1       21 0.89538336E-01 0.12603778E+03</pdfrwt>
<totfact> 0.98640053E+04</totfact>
</mgrwt>
</event>
<event>
 6    1  0.4259848E-002  0.1537414E+03  0.7546771E-02  0.1195950E+00
         21   -1    0    0  504  502  0.00000000000E+00  0.00000000000E+00  0.23720902593E+02  0.23720902593E+02  0.00000000000E+00 0.  1.
         21   -1    0    0  502  503 -0.00000000000E+00 -0.00000000000E+00 -0.68596972102E+03  0.68596972102E+03  0.00000000000E+00 0.  1.
         25    2    1    2    0    0 -0.25132281558E+02 -0.85906924315E+02 -0.51415828505E+03  0.53665179185E+03  0.12499908956E+03 0.  0.
          5    1    3    3  501    0  0.33815789853E+02 -0.30048593243E+02 -0.59216653682E+02  0.74518773960E+02  0.10000000000E+00 0. -1.
         -5    1    3    3    0  501 -0.58948071411E+02 -0.55858331072E+02 -0.45494163136E+03  0.46213301789E+03  0.10000000000E+00 0. -1.
         21    1    1    2  504  503  0.25132281558E+02  0.85906924315E+02 -0.14809053338E+03  0.17303883176E+03  0.00000000000E+00 0.  1.
<mgrwt>
<rscale>  1 0.15374135E+03</rscale>
<asrwt>0</asrwt>
<pdfrwt beam="1">  1       21 0.36493696E-02 0.15374135E+03</pdfrwt>
<pdfrwt beam="2">  1       21 0.10553380E+00 0.15374135E+03</pdfrwt>
<totfact> 0.33320623E+05</totfact>
</mgrwt>
</event>
<event>
 6    1  0.4259848E-002  0.2067145E+03  0.7546771E-02  0.1144194E+00
         21   -1    0    0  504  502  0.00000000000E+00  0.00000000000E+00  0.13827346042E+03  0.13827346042E+03  0.00000000000E+00 0. -1.
         21   -1    0    0  502  503 -0.00000000000E+00 -0.00000000000E+00 -0.24966937598E+03  0.24966937598E+03  0.00000000000E+00 0. -1.
         25    2    1    2    0    0 -0.13894115137E+03 -0.88322670053E+02 -0.54885368566E+02  0.21387681585E+03  0.12500140434E+03 0.  0.
          5    1    3    3  501    0 -0.15243690011E+02 -0.11573322968E+02  0.37051336893E+02  0.41702799130E+02  0.10000000000E+00 0.  1.
         -5    1    3    3    0  501 -0.12369746136E+03 -0.76749347084E+02 -0.91936705459E+02  0.17217401672E+03  0.10000000000E+00 0.  1.
         21    1    1    2  504  503  0.13894115137E+03  0.88322670053E+02 -0.56510546995E+02  0.17406602055E+03  0.00000000000E+00 0. -1.
<mgrwt>
<rscale>  1 0.20671451E+03</rscale>
<asrwt>0</asrwt>
<pdfrwt beam="1">  1       21 0.21272840E-01 0.20671451E+03</pdfrwt>
<pdfrwt beam="2">  1       21 0.38410673E-01 0.20671451E+03</pdfrwt>
<totfact> 0.13371277E+05</totfact>
</mgrwt>
</event>
<event>
 6    1  0.4259848E-002  0.1452486E+03  0.7546771E-02  0.1206436E+00
         21   -1    0    0  504  502  0.00000000000E+00  0.00000000000E+00  0.21728969950E+03  0.21728969950E+03  0.00000000000E+00 0. -1.
         21   -1    0    0  502  503 -0.00000000000E+00 -0.00000000000E+00 -0.33848351992E+03  0.33848351992E+03  0.00000000000E+00 0. -1.
         25    2    1    2    0    0  0.37173855237E+02  0.63957004604E+02  0.18815850051E+03  0.23769893184E+03  0.12499906774E+03 0.  0.
          5    1    3    3  501    0  0.39077049323E+01  0.89239796362E+02  0.73543057098E+02  0.11570480828E+03  0.10000000000E+00 0.  1.
         -5    1    3    3    0  501  0.33266150304E+02 -0.25282791758E+02  0.11461544341E+03  0.12199412356E+03  0.10000000000E+00 0.  1.
         21    1    1    2  504  503 -0.37173855237E+02 -0.63957004604E+02 -0.30935232093E+03  0.31807428757E+03  0.00000000000E+00 0. -1.
<mgrwt>
<rscale>  1 0.14524862E+03</rscale>
<asrwt>0</asrwt>
<pdfrwt beam="1">  1       21 0.33429185E-01 0.14524862E+03</pdfrwt>
<pdfrwt beam="2">  1       21 0.52074388E-01 0.14524862E+03</pdfrwt>
<totfact> 0.30979366E+04</totfact>
</mgrwt>
</event>
<event>
 6    1  0.4259848E-002  0.1291153E+03  0.7546771E-02  0.1228774E+00
         21   -1    0    0  503  502  0.00000000000E+00  0.00000000000E+00  0.52316680413E+02  0.52316680413E+02  0.00000000000E+00 0.  1.
         21   -1    0    0  504  503 -0.00000000000E+00 -0.00000000000E+00 -0.17732366822E+03  0.17732366822E+03  0.00000000000E+00 0.  1.
         25    2    1    2    0    0 -0.20608621984E+02 -0.24955792912E+02 -0.34682484385E+02  0.13369232719E+03  0.12499302671E+03 0.  0.
          5    1    3    3  501    0 -0.55438855342E+02 -0.16837714605E+02 -0.64807865859E+02  0.86931264756E+02  0.10000000000E+00 0.  1.
         -5    1    3    3    0  501  0.34830233358E+02 -0.81180783079E+01  0.30125381475E+02  0.46761062437E+02  0.10000000000E+00 0.  1.
         21    1    1    2  504  502  0.20608621984E+02  0.24955792912E+02 -0.90324503423E+02  0.95948021442E+02  0.00000000000E+00 0.  1.
<mgrwt>
<rscale>  1 0.12911531E+03</rscale>
<asrwt>0</asrwt>
<pdfrwt beam="1">  1       21 0.80487200E-02 0.12911531E+03</pdfrwt>
<pdfrwt beam="2">  1       21 0.27280565E-01 0.12911531E+03</pdfrwt>
<totfact> 0.15167953E+06</totfact>
</mgrwt>
</event>
<event>
 6    1  0.4259848E-002  0.1274428E+03  0.7546771E-02  0.1231300E+00
         21   -1    0    0  503  502  0.00000000000E+00  0.00000000000E+00  0.89422668340E+02  0.89422668340E+02  0.00000000000E+00 0. -1.
         21   -1    0    0  504  503 -0.00000000000E+00 -0.00000000000E+00 -0.87381358932E+02  0.87381358932E+02  0.00000000000E+00 0.  1.
         25    2    1    2    0    0  0.20182990961E+02  0.14395364391E+02  0.38126458249E+02  0.13302369371E+03  0.12500838623E+03 0.  0.
          5    1    3    3  501    0  0.69426171793E+02  0.29020170114E+02  0.15184025731E+02  0.76764107763E+02  0.10000000000E+00 0. -1.
         -5    1    3    3    0  501 -0.49243180832E+02 -0.14624805723E+02  0.22942432518E+02  0.56259585945E+02  0.10000000000E+00 0. -1.
         21    1    1    2  504  502 -0.20182990961E+02 -0.14395364391E+02 -0.36085148842E+02  0.43780333564E+02  0.00000000000E+00 0.  1.
<mgrwt>
<rscale>  1 0.12744284E+03</rscale>
<asrwt>0</asrwt>
<pdfrwt beam="1">  1       21 0.13757334E-01 0.12744284E+03</pdfrwt>
<pdfrwt beam="2">  1       21 0.13443286E-01 0.12744284E+03</pdfrwt>
<totfact> 0.21799685E+06</totfact>
</mgrwt>
</event>
<event>
 6    1  0.4259848E-002  0.1287441E+03  0.7546771E-02  0.1229331E+00
         21   -1    0    0  503  502  0.00000000000E+00  0.00000000000E+00  0.12994936921E+02  0.12994936921E+02  0.00000000000E+00 0. -1.
         21   -1    0    0  504  503 -0.00000000000E+00 -0.00000000000E+00 -0.49147657937E+03  0.49147657937E+03  0.00000000000E+00 0. -1.
         25    2    1    2    0    0 -0.29020718828E+02  0.10373325620E+02 -0.37396959425E+03  0.39551016431E+03  0.12500089858E+03 0.  0.
          5    1    3    3  501    0  0.44766659279E+02 -0.50979173571E+01 -0.21363798387E+03  0.21833744684E+03  0.10000000000E+00 0. -1.
         -5    1    3    3    0  501 -0.73787378106E+02  0.15471242977E+02 -0.16033161038E+03  0.17717271747E+03  0.10000000000E+00 0. -1.
         21    1    1    2  504  502  0.29020718828E+02 -0.10373325620E+02 -0.10451204819E+03  0.10896135197E+03  0.00000000000E+00 0. -1.
<mgrwt>
<rscale>  1 0.12874406E+03</rscale>
<asrwt>0</asrwt>
<pdfrwt beam="1">  1       21 0.19992214E-02 0.12874406E+03</pdfrwt>
<pdfrwt beam="2">  1       21 0.75611769E-01 0.12874406E+03</pdfrwt>
<totfact> 0.19187495E+06</totfact>
</mgrwt>
</event>
<event>
 6    1  0.4259848E-002  0.1324568E+03  0.7546771E-02  0.1223855E+00
         21   -1    0    0  504  502  0.00000000000E+00  0.00000000000E+00  0.23726036497E+03  0.23726036497E+03  0.00000000000E+00 0.  1.
         21   -1    0    0  502  503 -0.00000000000E+00 -0.00000000000E+00 -0.24768195789E+03  0.24768195789E+03  0.00000000000E+00 0. -1.
         25    2    1    2    0    0  0.15450794718E+02  0.40999555360E+02  0.21651331905E+03  0.25381650244E+03  0.12500043595E+03 0.  0.
          5    1    3    3  501    0  0.69653602722E+01 -0.23246108581E+02  0.17540114704E+03  0.17707193507E+03  0.10000000000E+00 0.  1.
         -5    1    3    3    0  501  0.84854344456E+01  0.64245663942E+02  0.41112172011E+02  0.76744567368E+02  0.10000000000E+00 0.  1.
         21    1    1    2  504  503 -0.15450794718E+02 -0.40999555360E+02 -0.22693491196E+03  0.23112582042E+03  0.00000000000E+00 0. -1.
<mgrwt>
<rscale>  1 0.13245678E+03</rscale>
<asrwt>0</asrwt>
<pdfrwt beam="1">  1       21 0.36501594E-01 0.13245678E+03</pdfrwt>
<pdfrwt beam="2">  1       21 0.38104917E-01 0.13245678E+03</pdfrwt>
<totfact> 0.49537128E+04</totfact>
</mgrwt>
</event>
<event>
 6    1  0.4259848E-002  0.1261786E+03  0.7546771E-02  0.1233239E+00
         21   -1    0    0  504  502  0.00000000000E+00  0.00000000000E+00  0.58738320759E+02  0.58738320759E+02  0.00000000000E+00 0.  1.
         21   -1    0    0  502  503 -0.00000000000E+00 -0.00000000000E+00 -0.16792928728E+03  0.16792928728E+03  0.00000000000E+00 0.  1.
         25    2    1    2    0    0 -0.13800622961E+02 -0.10286553861E+02 -0.10641843729E+02  0.12662661650E+03  0.12499912314E+03 0.  0.
          5    1    3    3  501    0 -0.34202219553E+02 -0.38163663148E+02 -0.51817652008E+02  0.72878913733E+02  0.10000000000E+00 0.  1.
         -5    1    3    3    0  501  0.20401596593E+02  0.27877109287E+02  0.41175808279E+02  0.53747702770E+02  0.10000000000E+00 0.  1.
         21    1    1    2  504  503  0.13800622961E+02  0.10286553861E+02 -0.98549122788E+02  0.10004099153E+03  0.00000000000E+00 0.  1.
<mgrwt>
<rscale>  1 0.12617865E+03</rscale>
<asrwt>0</asrwt>
<pdfrwt beam="1">  1       21 0.90366649E-02 0.12617865E+03</pdfrwt>
<pdfrwt beam="2">  1       21 0.25835275E-01 0.12617865E+03</pdfrwt>
<totfact> 0.13761592E+06</totfact>
</mgrwt>
</event>
<event>
 6    1  0.4259848E-002  0.1271537E+03  0.7546771E-02  0.1231741E+00
         21   -1    0    0  504  502  0.00000000000E+00  0.00000000000E+00  0.51627971095E+02  0.51627971095E+02  0.00000000000E+00 0.  1.
         21   -1    0    0  502  503 -0.00000000000E+00 -0.00000000000E+00 -0.21546710050E+03  0.21546710050E+03  0.00000000000E+00 0.  1.
         25    2    1    2    0    0  0.23347369101E+02  0.16850220294E+00 -0.29222119320E+02  0.13046832662E+03  0.12499169555E+03 0.  0.
          5    1    3    3  501    0  0.74337407925E+02  0.10599303312E+02 -0.18345352583E+02  0.77297848671E+02  0.10000000000E+00 0. -1.
         -5    1    3    3    0  501 -0.50990038824E+02 -0.10430801109E+02 -0.10876766738E+02  0.53170477953E+02  0.10000000000E+00 0. -1.
         21    1    1    2  504  503 -0.23347369101E+02 -0.16850220294E+00 -0.13461701008E+03  0.13662674497E+03  0.00000000000E+00 0.  1.
<mgrwt>
<rscale>  1 0.12715366E+03</rscale>
<asrwt>0</asrwt>
<pdfrwt beam="1">  1       21 0.79427647E-02 0.12715366E+03</pdfrwt>
<pdfrwt beam="2">  1       21 0.33148785E-01 0.12715366E+03</pdfrwt>
<totfact> 0.10653627E+06</totfact>
</mgrwt>
</event>
<event>
 6    1  0.4259848E-002  0.1458651E+03  0.7546771E-02  0.1205648E+00
         21   -1    0    0  503  502  0.00000000000E+00  0.00000000000E+00  0.87506560009E+03  0.87506560009E+03  0.00000000000E+00 0. -1.
         21   -1    0    0  504  503 -0.00000000000E+00 -0.00000000000E+00 -0.32385355297E+02  0.32385355297E+02  0.00000000000E+00 0. -1.
         25    2    1    2    0    0  0.73712972875E+02 -0.14573385387E+02  0.81409198072E+03  0.82705646071E+03  0.12502259872E+03 0.  0.
          5    1    3    3  501    0  0.28601411110E+02  0.44197808155E+02  0.15254497069E+03  0.16137368139E+03  0.10000000000E+00 0. -1.
         -5    1    3    3    0  501  0.45111561764E+02 -0.58771193542E+02  0.66154701004E+03  0.66568277932E+03  0.10000000000E+00 0. -1.
         21    1    1    2  504  502 -0.73712972875E+02  0.14573385387E+02  0.28588264067E+02  0.80394494675E+02  0.00000000000E+00 0. -1.
<mgrwt>
<rscale>  1 0.14586513E+03</rscale>
<asrwt>0</asrwt>
<pdfrwt beam="1">  1       21 0.13462546E+00 0.14586513E+03</pdfrwt>
<pdfrwt beam="2">  1       21 0.49823630E-02 0.14586513E+03</pdfrwt>
<totfact> 0.10935489E+05</totfact>
</mgrwt>
</event>
<event>
 6    1  0.4259848E-002  0.1262663E+03  0.7546771E-02  0.1233103E+00
         21   -1    0    0  503  502  0.00000000000E+00  0.00000000000E+00  0.31718122156E+03  0.31718122156E+03  0.00000000000E+00 0. -1.
         21   -1    0    0  504  503 -0.00000000000E+00 -0.00000000000E+00 -0.22374243163E+02  0.22374243163E+02  0.00000000000E+00 0. -1.
         25    2    1    2    0    0  0.41350060897E+01  0.17329291699E+02  0.29589188565E+03  0.32170666505E+03  0.12500307083E+03 0.  0.
          5    1    3    3  501    0 -0.36367756372E+02  0.16073247419E+02  0.23229957275E+02  0.46050015213E+02  0.10000000000E+00 0.  1.
         -5    1    3    3    0  501  0.40502762461E+02  0.12560442795E+01  0.27266192838E+03  0.27565664984E+03  0.10000000000E+00 0.  1.
         21    1    1    2  504  502 -0.41350060897E+01 -0.17329291699E+02 -0.10849072503E+01  0.17848799676E+02  0.00000000000E+00 0. -1.
<mgrwt>
<rscale>  1 0.12626627E+03</rscale>
<asrwt>0</asrwt>
<pdfrwt beam="1">  1       21 0.48797108E-01 0.12626627E+03</pdfrwt>
<pdfrwt beam="2">  1       21 0.34421915E-02 0.12626627E+03</pdfrwt>
<totfact> 0.20087837E+06</totfact>
</mgrwt>
</event>
<event>
 6    1  0.4259848E-002  0.1268554E+03  0.7546771E-02  0.1232198E+00
         21   -1    0    0  503  502  0.00000000000E+00  0.00000000000E+00  0.93366309218E+01  0.93366309218E+01  0.00000000000E+00 0. -1.
         21   -1    0    0  504  503 -0.00000000000E+00 -0.00000000000E+00 -0.92012519617E+03  0.92012519617E+03  0.00000000000E+00 0. -1.
         25    2    1    2    0    0  0.13948803540E+02 -0.16458117501E+02 -0.43334099192E+03  0.45152707838E+03  0.12500739369E+03 0.  0.
          5    1    3    3  501    0  0.27327450071E+02 -0.58535505048E+02 -0.36131688104E+03  0.36704644584E+03  0.10000000000E+00 0. -1.
         -5    1    3    3    0  501 -0.13378646532E+02  0.42077387548E+02 -0.72024110875E+02  0.84480632533E+02  0.10000000000E+00 0. -1.
         21    1    1    2  504  502 -0.13948803540E+02  0.16458117501E+02 -0.47744757333E+03  0.47793474871E+03  0.00000000000E+00 0. -1.
<mgrwt>
<rscale>  1 0.12685538E+03</rscale>
<asrwt>0</asrwt>
<pdfrwt beam="1">  1       21 0.14364047E-02 0.12685538E+03</pdfrwt>
<pdfrwt beam="2">  1       21 0.14155773E+00 0.12685538E+03</pdfrwt>
<totfact> 0.74083485E+05</totfact>
</mgrwt>
</event>
<event>
 6    1  0.4259848E-002  0.1449969E+03  0.7546771E-02  0.1206759E+00
         21   -1    0    0  504  502  0.00000000000E+00  0.00000000000E+00  0.20792676219E+03  0.20792676219E+03  0.00000000000E+00 0. -1.
         21   -1    0    0  502  503 -0.00000000000E+00 -0.00000000000E+00 -0.77065005207E+02  0.77065005207E+02  0.00000000000E+00 0. -1.
         25    2    1    2    0    0  0.73382020557E+02  0.37829537844E+01  0.15044804624E+03  0.20894668599E+03  0.12499948515E+03 0.  0.
          5    1    3    3  501    0 -0.66820753743E+01 -0.48163157505E+02  0.62291775765E+02  0.79022877700E+02  0.10000000000E+00 0. -1.
         -5    1    3    3    0  501  0.80064095932E+02  0.51946111289E+02  0.88156270475E+02  0.12992380829E+03  0.10000000000E+00 0. -1.
         21    1    1    2  504  503 -0.73382020557E+02 -0.37829537844E+01 -0.19586289254E+02  0.76045081413E+02  0.00000000000E+00 0. -1.
<mgrwt>
<rscale>  1 0.14499691E+03</rscale>
<asrwt>0</asrwt>
<pdfrwt beam="1">  1       21 0.31988732E-01 0.14499691E+03</pdfrwt>
<pdfrwt beam="2">  1       21 0.11856155E-01 0.14499691E+03</pdfrwt>
<totfact> 0.56689020E+05</totfact>
</mgrwt>
</event>
<event>
 6    1  0.4259848E-002  0.1272683E+03  0.7546771E-02  0.1231566E+00
         21   -1    0    0  504  502  0.00000000000E+00  0.00000000000E+00  0.13771111980E+03  0.13771111980E+03  0.00000000000E+00 0.  1.
         21   -1    0    0  502  503 -0.00000000000E+00 -0.00000000000E+00 -0.48034890825E+02  0.48034890825E+02  0.00000000000E+00 0.  1.
         25    2    1    2    0    0  0.23015208527E+02 -0.64769104241E+01  0.97787890568E+02  0.16049825338E+03  0.12500227040E+03 0.  0.
          5    1    3    3  501    0 -0.13562436949E+02  0.15117985683E+02 -0.24043901279E+02  0.31473995231E+02  0.10000000000E+00 0.  1.
         -5    1    3    3    0  501  0.36577645476E+02 -0.21594896107E+02  0.12183179185E+03  0.12902425815E+03  0.10000000000E+00 0.  1.
         21    1    1    2  504  503 -0.23015208527E+02  0.64769104241E+01 -0.81116615902E+01  0.25247757246E+02  0.00000000000E+00 0.  1.
<mgrwt>
<rscale>  1 0.12726829E+03</rscale>
<asrwt>0</asrwt>
<pdfrwt beam="1">  1       21 0.21186326E-01 0.12726829E+03</pdfrwt>
<pdfrwt beam="2">  1       21 0.73899832E-02 0.12726829E+03</pdfrwt>
<totfact> 0.28261336E+06</totfact>
</mgrwt>
</event>
<event>
 6    1  0.4259848E-002  0.1273947E+03  0.7546771E-02  0.1231374E+00
         21   -1    0    0  503  502  0.00000000000E+00  0.00000000000E+00  0.66290814704E+02  0.66290814704E+02  0.00000000000E+00 0. -1.
         21   -1    0    0  504  503 -0.00000000000E+00 -0.00000000000E+00 -0.16692278132E+03  0.16692278132E+03  0.00000000000E+00 0. -1.
         25    2    1    2    0    0  0.73847102074E+01  0.23473228715E+02  0.22653274993E+01  0.12741482690E+03  0.12499551990E+03 0.  0.
          5    1    3    3  501    0  0.49812562743E+01  0.74686300942E+02  0.10168182239E+02  0.75539780199E+02  0.10000000000E+00 0. -1.
         -5    1    3    3    0  501  0.24034539332E+01 -0.51213072226E+02 -0.79028547397E+01  0.51875046706E+02  0.10000000000E+00 0. -1.
         21    1    1    2  504  502 -0.73847102074E+01 -0.23473228715E+02 -0.10289729411E+03  0.10579876912E+03  0.00000000000E+00 0. -1.
<mgrwt>
<rscale>  1 0.12739469E+03</rscale>
<asrwt>0</asrwt>
<pdfrwt beam="1">  1       21 0.10198587E-01 0.12739469E+03</pdfrwt>
<pdfrwt beam="2">  1       21 0.25680428E-01 0.12739469E+03</pdfrwt>
<totfact> 0.11273763E+06</totfact>
</mgrwt>
</event>
<event>
 6    1  0.4259848E-002  0.1263834E+03  0.7546771E-02  0.1232923E+00
         21   -1    0    0  503  502  0.00000000000E+00  0.00000000000E+00  0.45818866425E+03  0.45818866425E+03  0.00000000000E+00 0.  1.
         21   -1    0    0  504  503 -0.00000000000E+00 -0.00000000000E+00 -0.12142868290E+02  0.12142868290E+02  0.00000000000E+00 0.  1.
         25    2    1    2    0    0  0.18371096779E+02 -0.31449226245E+01  0.41774736460E+03  0.43644659558E+03  0.12500152971E+03 0.  0.
          5    1    3    3  501    0  0.27221094617E+02 -0.53079809273E+02  0.11571323280E+03  0.13018454743E+03  0.10000000000E+00 0.  1.
         -5    1    3    3    0  501 -0.88499978376E+01  0.49934886648E+02  0.30203413180E+03  0.30626204815E+03  0.10000000000E+00 0.  1.
         21    1    1    2  504  502 -0.18371096779E+02  0.31449226245E+01  0.28298431360E+02  0.33884936957E+02  0.00000000000E+00 0.  1.
<mgrwt>
<rscale>  1 0.12638343E+03</rscale>
<asrwt>0</asrwt>
<pdfrwt beam="1">  1       21 0.70490551E-01 0.12638343E+03</pdfrwt>
<pdfrwt beam="2">  1       21 0.18681339E-02 0.12638343E+03</pdfrwt>
<totfact> 0.24956083E+06</totfact>
</mgrwt>
</event>
<event>
 6    1  0.4259848E-002  0.1267956E+03  0.7546771E-02  0.1232289E+00
         21   -1    0    0  503  502  0.00000000000E+00  0.00000000000E+00  0.21955619396E+03  0.21955619396E+03  0.00000000000E+00 0. -1.
         21   -1    0    0  504  503 -0.00000000000E+00 -0.00000000000E+00 -0.25827742173E+02  0.25827742173E+02  0.00000000000E+00 0. -1.
         25    2    1    2    0    0  0.16259635547E+02 -0.13719362933E+02  0.17958938734E+03  0.21983966454E+03  0.12499813357E+03 0.  0.
          5    1    3    3  501    0 -0.46111521945E+01 -0.66748757705E+02  0.11995734969E+03  0.13735514233E+03  0.10000000000E+00 0. -1.
         -5    1    3    3    0  501  0.20870787741E+02  0.53029394772E+02  0.59632037643E+02  0.82484522211E+02  0.10000000000E+00 0. -1.
         21    1    1    2  504  502 -0.16259635547E+02  0.13719362933E+02  0.14139064445E+02  0.25544271585E+02  0.00000000000E+00 0. -1.
<mgrwt>
<rscale>  1 0.12679562E+03</rscale>
<asrwt>0</asrwt>
<pdfrwt beam="1">  1       21 0.33777875E-01 0.12679562E+03</pdfrwt>
<pdfrwt beam="2">  1       21 0.39734989E-02 0.12679562E+03</pdfrwt>
<totfact> 0.33100435E+06</totfact>
</mgrwt>
</event>
<event>
 6    1  0.4259848E-002  0.1269998E+03  0.7546771E-02  0.1231977E+00
         21   -1    0    0  503  502  0.00000000000E+00  0.00000000000E+00  0.19734999331E+03  0.19734999331E+03  0.00000000000E+00 0.  1.
         21   -1    0    0  504  503 -0.00000000000E+00 -0.00000000000E+00 -0.25685792641E+03  0.25685792641E+03  0.00000000000E+00 0.  1.
         25    2    1    2    0    0 -0.69843110421E+01 -0.21321349145E+02  0.17633039300E+03  0.21730478216E+03  0.12500232127E+03 0.  0.
          5    1    3    3  501    0 -0.22947996596E+02 -0.37855115735E+02  0.18685467678E+03  0.19202682252E+03  0.10000000000E+00 0. -1.
         -5    1    3    3    0  501  0.15963685554E+02  0.16533766590E+02 -0.10524283778E+02  0.25277959632E+02  0.10000000000E+00 0. -1.
         21    1    1    2  504  502  0.69843110421E+01  0.21321349145E+02 -0.23583832610E+03  0.23690313756E+03  0.00000000000E+00 0.  1.
<mgrwt>
<rscale>  1 0.12699985E+03</rscale>
<asrwt>0</asrwt>
<pdfrwt beam="1">  1       21 0.30361538E-01 0.12699985E+03</pdfrwt>
<pdfrwt beam="2">  1       21 0.39516604E-01 0.12699985E+03</pdfrwt>
<totfact> 0.66209829E+04</totfact>
</mgrwt>
</event>
<event>
 6    1  0.4259848E-002  0.1286237E+03  0.7546771E-02  0.1229512E+00
         21   -1    0    0  503  502  0.00000000000E+00  0.00000000000E+00  0.41896570376E+02  0.41896570376E+02  0.00000000000E+00 0. -1.
         21   -1    0    0  504  503 -0.00000000000E+00 -0.00000000000E+00 -0.15088313060E+03  0.15088313060E+03  0.00000000000E+00 0. -1.
         25    2    1    2    0    0 -0.39194893822E+01 -0.30087323447E+02 -0.90069129031E+02  0.15702388142E+03  0.12499376746E+03 0.  0.
          5    1    3    3  501    0 -0.75531049927E+01 -0.46253315445E+02  0.16111527007E+02  0.49558146527E+02  0.10000000000E+00 0. -1.
         -5    1    3    3    0  501  0.36336156105E+01  0.16165991998E+02 -0.10618065604E+03  0.10746573489E+03  0.10000000000E+00 0. -1.
         21    1    1    2  504  502  0.39194893822E+01  0.30087323447E+02 -0.18917431195E+02  0.35755819557E+02  0.00000000000E+00 0. -1.
<mgrwt>
<rscale>  1 0.12862368E+03</rscale>
<asrwt>0</asrwt>
<pdfrwt beam="1">  1       21 0.64456262E-02 0.12862368E+03</pdfrwt>
<pdfrwt beam="2">  1       21 0.23212789E-01 0.12862368E+03</pdfrwt>
<totfact> 0.30114944E+06</totfact>
</mgrwt>
</event>
<event>
 6    1  0.4259848E-002  0.1584748E+03  0.7546771E-02  0.1190430E+00
         21   -1    0    0  504  502  0.00000000000E+00  0.00000000000E+00  0.12861877803E+04  0.12861877803E+04  0.00000000000E+00 0.  1.
         21   -1    0    0  502  503 -0.00000000000E+00 -0.00000000000E+00 -0.19903771573E+02  0.19903771573E+02  0.00000000000E+00 0.  1.
         25    2    1    2    0    0  0.73494529937E+02  0.63937272293E+02  0.11146764285E+04  0.11258853392E+04  0.12499934375E+03 0.  0.
          5    1    3    3  501    0  0.79079109128E+02  0.18540230129E+02  0.32897424906E+03  0.33885293591E+03  0.10000000000E+00 0. -1.
         -5    1    3    3    0  501 -0.55845791915E+01  0.45397042164E+02  0.78570217946E+03  0.78703240325E+03  0.10000000000E+00 0. -1.
         21    1    1    2  504  503 -0.73494529937E+02 -0.63937272293E+02  0.15160758017E+03  0.18020621267E+03  0.00000000000E+00 0.  1.
<mgrwt>
<rscale>  1 0.15847478E+03</rscale>
<asrwt>0</asrwt>
<pdfrwt beam="1">  1       21 0.19787498E+00 0.15847478E+03</pdfrwt>
<pdfrwt beam="2">  1       21 0.30621197E-02 0.15847478E+03</pdfrwt>
<totfact> 0.86546260E+04</totfact>
</mgrwt>
</event>
<event>
 6    1  0.4259848E-002  0.1269042E+03  0.7546771E-02  0.1232123E+00
         21   -1    0    0  503  502  0.00000000000E+00  0.00000000000E+00  0.45353806266E+03  0.45353806266E+03  0.00000000000E+00 0. -1.
         21   -1    0    0  504  503 -0.00000000000E+00 -0.00000000000E+00 -0.56373824473E+02  0.56373824473E+02  0.00000000000E+00 0. -1.
         25    2    1    2    0    0 -0.17038411476E+00  0.21897516305E+02  0.44208441853E+03  0.45993836560E+03  0.12500054716E+03 0.  0.
          5    1    3    3  501    0  0.16438727971E+02  0.71352240700E+02  0.22235510720E+03  0.23410078541E+03  0.10000000000E+00 0.  1.
         -5    1    3    3    0  501 -0.16609112086E+02 -0.49454724395E+02  0.21972931133E+03  0.22583758019E+03  0.10000000000E+00 0.  1.
         21    1    1    2  504  502  0.17038411476E+00 -0.21897516305E+02 -0.44920180351E+02  0.49973521527E+02  0.00000000000E+00 0. -1.
<mgrwt>
<rscale>  1 0.12690416E+03</rscale>
<asrwt>0</asrwt>
<pdfrwt beam="1">  1       21 0.69775084E-01 0.12690416E+03</pdfrwt>
<pdfrwt beam="2">  1       21 0.86728964E-02 0.12690416E+03</pdfrwt>
<totfact> 0.19827856E+05</totfact>
</mgrwt>
</event>
<event>
 6    1  0.4259848E-002  0.1321445E+03  0.7546771E-02  0.1224308E+00
         21   -1    0    0  503  502  0.00000000000E+00  0.00000000000E+00  0.10467778481E+03  0.10467778481E+03  0.00000000000E+00 0. -1.
         21   -1    0    0  504  503 -0.00000000000E+00 -0.00000000000E+00 -0.85896159248E+03  0.85896159248E+03  0.00000000000E+00 0.  1.
         25    2    1    2    0    0  0.20130956315E+02 -0.37845547047E+02  0.62185758545E+02  0.14604528889E+03  0.12499846802E+03 0.  0.
          5    1    3    3  501    0 -0.24681464190E+02 -0.30486764306E+02  0.86177454631E+02  0.94684640566E+02  0.10000000000E+00 0. -1.
         -5    1    3    3    0  501  0.44812420505E+02 -0.73587827408E+01 -0.23991696086E+02  0.51360648322E+02  0.10000000000E+00 0. -1.
         21    1    1    2  504  502 -0.20130956315E+02  0.37845547047E+02 -0.81646956622E+03  0.81759408840E+03  0.00000000000E+00 0.  1.
<mgrwt>
<rscale>  1 0.13214446E+03</rscale>
<asrwt>0</asrwt>
<pdfrwt beam="1">  1       21 0.16104275E-01 0.13214446E+03</pdfrwt>
<pdfrwt beam="2">  1       21 0.13214793E+00 0.13214446E+03</pdfrwt>
<totfact> 0.14957123E+04</totfact>
</mgrwt>
</event>
<event>
 6    1  0.4259848E-002  0.1512211E+03  0.7546771E-02  0.1198981E+00
         21   -1    0    0  504  502  0.00000000000E+00  0.00000000000E+00  0.13135820745E+03  0.13135820745E+03  0.00000000000E+00 0.  1.
         21   -1    0    0  502  503 -0.00000000000E+00 -0.00000000000E+00 -0.20526388768E+03  0.20526388768E+03  0.00000000000E+00 0.  1.
         25    2    1    2    0    0 -0.84521726316E+02  0.99374842146E+01  0.72172841424E+02  0.16756112890E+03  0.12500054826E+03 0.  0.
          5    1    3    3  501    0  0.20373965022E+02  0.35216631546E+02  0.34280327251E+02  0.53202071620E+02  0.10000000000E+00 0.  1.
         -5    1    3    3    0  501 -0.10489569134E+03 -0.25279147331E+02  0.37892514173E+02  0.11435905728E+03  0.10000000000E+00 0.  1.
         21    1    1    2  504  503  0.84521726316E+02 -0.99374842146E+01 -0.14607852166E+03  0.16906096623E+03  0.00000000000E+00 0.  1.
<mgrwt>
<rscale>  1 0.15122107E+03</rscale>
<asrwt>0</asrwt>
<pdfrwt beam="1">  1       21 0.20208955E-01 0.15122107E+03</pdfrwt>
<pdfrwt beam="2">  1       21 0.31579059E-01 0.15122107E+03</pdfrwt>
<totfact> 0.22066713E+05</totfact>
</mgrwt>
</event>
<event>
 6    1  0.4259848E-002  0.1268365E+03  0.7546771E-02  0.1232227E+00
         21   -1    0    0  504  502  0.00000000000E+00  0.00000000000E+00  0.19317293659E+02  0.19317293659E+02  0.00000000000E+00 0.  1.
         21   -1    0    0  502  503 -0.00000000000E+00 -0.00000000000E+00 -0.85298961595E+03  0.85298961595E+03  0.00000000000E+00 0.  1.
         25    2    1    2    0    0 -0.21067841795E+02 -0.53095155278E+01 -0.19106468883E+03  0.22933209245E+03  0.12496178775E+03 0.  0.
          5    1    3    3  501    0  0.29371482823E+02  0.23699191410E+01 -0.17256223724E+03  0.17506009323E+03  0.10000000000E+00 0.  1.
         -5    1    3    3    0  501 -0.50439324618E+02 -0.76794346688E+01 -0.18502451584E+02  0.54271999220E+02  0.10000000000E+00 0.  1.
         21    1    1    2  504  503  0.21067841795E+02  0.53095155278E+01 -0.64260763347E+03  0.64297481716E+03  0.00000000000E+00 0.  1.
<mgrwt>
<rscale>  1 0.12683648E+03</rscale>
<asrwt>0</asrwt>
<pdfrwt beam="1">  1       21 0.29718918E-02 0.12683648E+03</pdfrwt>
<pdfrwt beam="2">  1       21 0.13122915E+00 0.12683648E+03</pdfrwt>
<totfact> 0.27702008E+05</totfact>
</mgrwt>
</event>
<event>
 6    1  0.4259848E-002  0.1805065E+03  0.7546771E-02  0.1167314E+00
         21   -1    0    0  504  502  0.00000000000E+00  0.00000000000E+00  0.53317254451E+03  0.53317254451E+03  0.00000000000E+00 0. -1.
         21   -1    0    0  502  503 -0.00000000000E+00 -0.00000000000E+00 -0.51785652112E+02  0.51785652112E+02  0.00000000000E+00 0. -1.
         25    2    1    2    0    0  0.85907584081E+02 -0.97865870590E+02  0.37727594978E+03  0.41823408318E+03  0.12499905769E+03 0.  0.
          5    1    3    3  501    0  0.64455962587E+02 -0.20216159023E+02  0.58262818408E+02  0.89206671317E+02  0.10000000000E+00 0. -1.
         -5    1    3    3    0  501  0.21451621494E+02 -0.77649711567E+02  0.31901313137E+03  0.32902741187E+03  0.10000000000E+00 0. -1.
         21    1    1    2  504  503 -0.85907584081E+02  0.97865870590E+02  0.10411094261E+03  0.16672411344E+03  0.00000000000E+00 0. -1.
<mgrwt>
<rscale>  1 0.18050653E+03</rscale>
<asrwt>0</asrwt>
<pdfrwt beam="1">  1       21 0.82026541E-01 0.18050653E+03</pdfrwt>
<pdfrwt beam="2">  1       21 0.79670238E-02 0.18050653E+03</pdfrwt>
<totfact> 0.15772198E+05</totfact>
</mgrwt>
</event>
<event>
 6    1  0.4259848E-002  0.1264420E+03  0.7546771E-02  0.1232833E+00
         21   -1    0    0  503  502  0.00000000000E+00  0.00000000000E+00  0.72658210886E+02  0.72658210886E+02  0.00000000000E+00 0. -1.
         21   -1    0    0  504  503 -0.00000000000E+00 -0.00000000000E+00 -0.48511213579E+03  0.48511213579E+03  0.00000000000E+00 0. -1.
         25    2    1    2    0    0  0.17033972359E+02 -0.84851826011E+01  0.17278175313E+02  0.12761708039E+03  0.12500171730E+03 0.  0.
          5    1    3    3  501    0 -0.40827424644E+02  0.17239662577E+02 -0.25564710295E+02  0.51162964938E+02  0.10000000000E+00 0.  1.
         -5    1    3    3    0  501  0.57861397003E+02 -0.25724845178E+02  0.42842885608E+02  0.76454115453E+02  0.10000000000E+00 0.  1.
         21    1    1    2  504  502 -0.17033972359E+02  0.84851826011E+01 -0.42973210022E+03  0.43015326629E+03  0.00000000000E+00 0. -1.
<mgrwt>
<rscale>  1 0.12644202E+03</rscale>
<asrwt>0</asrwt>
<pdfrwt beam="1">  1       21 0.11178186E-01 0.12644202E+03</pdfrwt>
<pdfrwt beam="2">  1       21 0.74632636E-01 0.12644202E+03</pdfrwt>
<totfact> 0.10984854E+05</totfact>
</mgrwt>
</event>
<event>
 6    1  0.4259848E-002  0.1269029E+03  0.7546771E-02  0.1232125E+00
         21   -1    0    0  504  502  0.00000000000E+00  0.00000000000E+00  0.88819287333E+01  0.88819287333E+01  0.00000000000E+00 0. -1.
         21   -1    0    0  502  503 -0.00000000000E+00 -0.00000000000E+00 -0.63004560339E+03  0.63004560339E+03  0.00000000000E+00 0. -1.
         25    2    1    2    0    0 -0.11214202601E+02  0.18818873797E+02 -0.55092559144E+03  0.56535242298E+03  0.12499778606E+03 0.  0.
          5    1    3    3  501    0 -0.36277572647E+02  0.64858854322E+02 -0.30861639144E+03  0.31743789996E+03  0.10000000000E+00 0. -1.
         -5    1    3    3    0  501  0.25063370046E+02 -0.46039980525E+02 -0.24230919999E+03  0.24791452302E+03  0.10000000000E+00 0. -1.
         21    1    1    2  504  503  0.11214202601E+02 -0.18818873797E+02 -0.70238083219E+02  0.73575109142E+02  0.00000000000E+00 0. -1.
<mgrwt>
<rscale>  1 0.12690293E+03</rscale>
<asrwt>0</asrwt>
<pdfrwt beam="1">  1       21 0.13664506E-02 0.12690293E+03</pdfrwt>
<pdfrwt beam="2">  1       21 0.96930091E-01 0.12690293E+03</pdfrwt>
<totfact> 0.20113115E+06</totfact>
</mgrwt>
</event>
<event>
 6    1  0.4259848E-002  0.1267277E+03  0.7546771E-02  0.1232394E+00
         21   -1    0    0  503  502  0.00000000000E+00  0.00000000000E+00  0.56980782029E+01  0.56980782029E+01  0.00000000000E+00 0. -1.
         21   -1    0    0  504  503 -0.00000000000E+00 -0.00000000000E+00 -0.12772006252E+04  0.12772006252E+04  0.00000000000E+00 0. -1.
         25    2    1    2    0    0 -0.13915143489E+02 -0.15850298967E+02 -0.72522277861E+03  0.73621191140E+03  0.12496014038E+03 0.  0.
          5    1    3    3  501    0 -0.65652127339E+02 -0.17668466535E+02 -0.52587767871E+03  0.53025439131E+03  0.10000000000E+00 0.  1.
         -5    1    3    3    0  501  0.51736983850E+02  0.18181675672E+01 -0.19934509990E+03  0.20595752010E+03  0.10000000000E+00 0.  1.
         21    1    1    2  504  502  0.13915143489E+02  0.15850298967E+02 -0.54627976835E+03  0.54668679196E+03  0.00000000000E+00 0. -1.
<mgrwt>
<rscale>  1 0.12672766E+03</rscale>
<asrwt>0</asrwt>
<pdfrwt beam="1">  1       21 0.87662750E-03 0.12672766E+03</pdfrwt>
<pdfrwt beam="2">  1       21 0.19649239E+00 0.12672766E+03</pdfrwt>
<totfact> 0.66907177E+05</totfact>
</mgrwt>
</event>
<event>
 6    1  0.4259848E-002  0.1260638E+03  0.7546771E-02  0.1233416E+00
         21   -1    0    0  503  502  0.00000000000E+00  0.00000000000E+00  0.75547031614E+01  0.75547031614E+01  0.00000000000E+00 0. -1.
         21   -1    0    0  504  503 -0.00000000000E+00 -0.00000000000E+00 -0.67650752257E+03  0.67650752257E+03  0.00000000000E+00 0. -1.
         25    2    1    2    0    0  0.69730890347E+01 -0.14883245478E+02 -0.57208771722E+03  0.58581263037E+03  0.12498778637E+03 0.  0.
          5    1    3    3  501    0  0.46095586526E+02 -0.31705785651E+02 -0.49141473863E+03  0.49458923895E+03  0.10000000000E+00 0.  1.
         -5    1    3    3    0  501 -0.39122497491E+02  0.16822540173E+02 -0.80672978588E+02  0.91223391419E+02  0.10000000000E+00 0.  1.
         21    1    1    2  504  502 -0.69730890347E+01  0.14883245478E+02 -0.96865102189E+02  0.98249595362E+02  0.00000000000E+00 0. -1.
<mgrwt>
<rscale>  1 0.12606380E+03</rscale>
<asrwt>0</asrwt>
<pdfrwt beam="1">  1       21 0.11622615E-02 0.12606380E+03</pdfrwt>
<pdfrwt beam="2">  1       21 0.10407812E+00 0.12606380E+03</pdfrwt>
<totfact> 0.22005952E+06</totfact>
</mgrwt>
</event>
<event>
 6    1  0.4259848E-002  0.1271009E+03  0.7546771E-02  0.1231822E+00
         21   -1    0    0  503  502  0.00000000000E+00  0.00000000000E+00  0.46440402884E+03  0.46440402884E+03  0.00000000000E+00 0.  1.
         21   -1    0    0  504  503 -0.00000000000E+00 -0.00000000000E+00 -0.12163025664E+02  0.12163025664E+02  0.00000000000E+00 0.  1.
         25    2    1    2    0    0  0.21003957132E+01  0.22930169473E+02  0.39105573832E+03  0.41119243428E+03  0.12499769278E+03 0.  0.
          5    1    3    3  501    0 -0.22599746137E+02 -0.47101684400E+02  0.18143180613E+03  0.18880367442E+03  0.10000000000E+00 0.  1.
         -5    1    3    3    0  501  0.24700141850E+02  0.70031853873E+02  0.20962393220E+03  0.22238875986E+03  0.10000000000E+00 0.  1.
         21    1    1    2  504  502 -0.21003957132E+01 -0.22930169473E+02  0.61185264856E+02  0.65374620226E+02  0.00000000000E+00 0.  1.
<mgrwt>
<rscale>  1 0.12710086E+03</rscale>
<asrwt>0</asrwt>
<pdfrwt beam="1">  1       21 0.71446760E-01 0.12710086E+03</pdfrwt>
<pdfrwt beam="2">  1       21 0.18712351E-02 0.12710086E+03</pdfrwt>
<totfact> 0.24171087E+06</totfact>
</mgrwt>
</event>
<event>
 6    1  0.4259848E-002  0.1262600E+03  0.7546771E-02  0.1233113E+00
         21   -1    0    0  503  502  0.00000000000E+00  0.00000000000E+00  0.69034630117E+02  0.69034630117E+02  0.00000000000E+00 0.  1.
         21   -1    0    0  504  503 -0.00000000000E+00 -0.00000000000E+00 -0.10132057752E+03  0.10132057752E+03  0.00000000000E+00 0.  1.
         25    2    1    2    0    0  0.12636565725E+02 -0.12636752791E+02  0.77645360250E+01  0.12649849165E+03  0.12498883972E+03 0.  0.
          5    1    3    3  501    0 -0.12775466537E+01  0.10318382606E+02  0.63653680803E+02  0.64497304012E+02  0.10000000000E+00 0.  1.
         -5    1    3    3    0  501  0.13914112379E+02 -0.22955135397E+02 -0.55889144778E+02  0.62001187637E+02  0.10000000000E+00 0.  1.
         21    1    1    2  504  502 -0.12636565725E+02  0.12636752791E+02 -0.40050483431E+02  0.43856715991E+02  0.00000000000E+00 0.  1.
<mgrwt>
<rscale>  1 0.12625997E+03</rscale>
<asrwt>0</asrwt>
<pdfrwt beam="1">  1       21 0.10620712E-01 0.12625997E+03</pdfrwt>
<pdfrwt beam="2">  1       21 0.15587781E-01 0.12625997E+03</pdfrwt>
<totfact> 0.26421370E+06</totfact>
</mgrwt>
</event>
<event>
 6    1  0.4259848E-002  0.1306992E+03  0.7546771E-02  0.1226422E+00
         21   -1    0    0  504  502  0.00000000000E+00  0.00000000000E+00  0.78240371704E+02  0.78240371704E+02  0.00000000000E+00 0.  1.
         21   -1    0    0  502  503 -0.00000000000E+00 -0.00000000000E+00 -0.14944490288E+03  0.14944490288E+03  0.00000000000E+00 0.  1.
         25    2    1    2    0    0 -0.16187994278E+02 -0.34579110877E+02  0.16781625952E+02  0.13177213725E+03  0.12499802845E+03 0.  0.
          5    1    3    3  501    0  0.20897083097E+02  0.37990285702E+00  0.60885698614E+02  0.64373214181E+02  0.10000000000E+00 0. -1.
         -5    1    3    3    0  501 -0.37085077375E+02 -0.34959013734E+02 -0.44104072663E+02  0.67398923067E+02  0.10000000000E+00 0. -1.
         21    1    1    2  504  503  0.16187994278E+02  0.34579110877E+02 -0.87986157126E+02  0.95913137336E+02  0.00000000000E+00 0.  1.
<mgrwt>
<rscale>  1 0.13069917E+03</rscale>
<asrwt>0</asrwt>
<pdfrwt beam="1">  1       21 0.12036980E-01 0.13069917E+03</pdfrwt>
<pdfrwt beam="2">  1       21 0.22991523E-01 0.13069917E+03</pdfrwt>
<totfact> 0.10373302E+06</totfact>
</mgrwt>
</event>
<event>
 6    1  0.4259848E-002  0.1328921E+03  0.7546771E-02  0.1223226E+00
         21   -1    0    0  503  502  0.00000000000E+00  0.00000000000E+00  0.17244733152E+03  0.17244733152E+03  0.00000000000E+00 0.  1.
         21   -1    0    0  504  503 -0.00000000000E+00 -0.00000000000E+00 -0.12921489337E+03  0.12921489337E+03  0.00000000000E+00 0. -1.
         25    2    1    2    0    0  0.40640952709E+02 -0.19599228911E+02  0.14114030849E+03  0.19385792125E+03  0.12499796054E+03 0.  0.
          5    1    3    3  501    0  0.22987341497E+02 -0.68984889410E+02  0.48508276686E+02  0.87409357297E+02  0.10000000000E+00 0. -1.
         -5    1    3    3    0  501  0.17653611212E+02  0.49385660499E+02  0.92632031800E+02  0.10644856395E+03  0.10000000000E+00 0. -1.
         21    1    1    2  504  502 -0.40640952709E+02  0.19599228911E+02 -0.97907870337E+02  0.10780430365E+03  0.00000000000E+00 0. -1.
<mgrwt>
<rscale>  1 0.13289209E+03</rscale>
<asrwt>0</asrwt>
<pdfrwt beam="1">  1       21 0.26530359E-01 0.13289209E+03</pdfrwt>
<pdfrwt beam="2">  1       21 0.19879214E-01 0.13289209E+03</pdfrwt>
<totfact> 0.31937008E+05</totfact>
</mgrwt>
</event>
<event>
 6    1  0.4259848E-002  0.1306024E+03  0.7546771E-02  0.1226565E+00
         21   -1    0    0  503  502  0.00000000000E+00  0.00000000000E+00  0.35297326937E+03  0.35297326937E+03  0.00000000000E+00 0. -1.
         21   -1    0    0  504  503 -0.00000000000E+00 -0.00000000000E+00 -0.31531376176E+02  0.31531376176E+02  0.00000000000E+00 0.  1.
         25    2    1    2    0    0  0.21104109865E+02 -0.31432649507E+02  0.32109858796E+03  0.34664288692E+03  0.12499437167E+03 0.  0.
          5    1    3    3  501    0  0.50948317999E+02 -0.59703643640E+02  0.26935388469E+03  0.28055620002E+03  0.10000000000E+00 0. -1.
         -5    1    3    3    0  501 -0.29844208133E+02  0.28270994133E+02  0.51744703272E+02  0.66086686897E+02  0.10000000000E+00 0. -1.
         21    1    1    2  504  502 -0.21104109865E+02  0.31432649507E+02  0.34330523403E+00  0.37861758632E+02  0.00000000000E+00 0.  1.
<mgrwt>
<rscale>  1 0.13060240E+03</rscale>
<asrwt>0</asrwt>
<pdfrwt beam="1">  1       21 0.54303577E-01 0.13060240E+03</pdfrwt>
<pdfrwt beam="2">  1       21 0.48509812E-02 0.13060240E+03</pdfrwt>
<totfact> 0.91028249E+05</totfact>
</mgrwt>
</event>
<event>
 6    1  0.4259848E-002  0.1259138E+03  0.7546771E-02  0.1233648E+00
         21   -1    0    0  503  502  0.00000000000E+00  0.00000000000E+00  0.11489931696E+03  0.11489931696E+03  0.00000000000E+00 0.  1.
         21   -1    0    0  504  503 -0.00000000000E+00 -0.00000000000E+00 -0.46158308852E+02  0.46158308852E+02  0.00000000000E+00 0.  1.
         25    2    1    2    0    0  0.30033186564E+01 -0.14866646923E+02  0.72683892460E+02  0.14538652340E+03  0.12499702336E+03 0.  0.
          5    1    3    3  501    0  0.35874772197E+02  0.21004861747E+02 -0.15746963119E+02  0.44454250018E+02  0.10000000000E+00 0. -1.
         -5    1    3    3    0  501 -0.32871453541E+02 -0.35871508670E+02  0.88430855578E+02  0.10093227338E+03  0.10000000000E+00 0. -1.
         21    1    1    2  504  502 -0.30033186564E+01  0.14866646923E+02 -0.39428843524E+01  0.15671102409E+02  0.00000000000E+00 0.  1.
<mgrwt>
<rscale>  1 0.12591383E+03</rscale>
<asrwt>0</asrwt>
<pdfrwt beam="1">  1       21 0.17676818E-01 0.12591383E+03</pdfrwt>
<pdfrwt beam="2">  1       21 0.71012783E-02 0.12591383E+03</pdfrwt>
<totfact> 0.42222287E+06</totfact>
</mgrwt>
</event>
<event>
 6    1  0.4259848E-002  0.1262997E+03  0.7546771E-02  0.1233052E+00
         21   -1    0    0  503  502  0.00000000000E+00  0.00000000000E+00  0.16983436953E+03  0.16983436953E+03  0.00000000000E+00 0.  1.
         21   -1    0    0  504  503 -0.00000000000E+00 -0.00000000000E+00 -0.30707914616E+02  0.30707914616E+02  0.00000000000E+00 0.  1.
         25    2    1    2    0    0  0.69805451028E+01 -0.16668771438E+02  0.12361745096E+03  0.17672831440E+03  0.12500018791E+03 0.  0.
          5    1    3    3  501    0  0.41824016661E+02 -0.37950834446E+01  0.13210976136E+03  0.13862413236E+03  0.10000000000E+00 0. -1.
         -5    1    3    3    0  501 -0.34843471559E+02 -0.12873687994E+02 -0.84923103991E+01  0.38104182037E+02  0.10000000000E+00 0. -1.
         21    1    1    2  504  502 -0.69805451028E+01  0.16668771438E+02  0.15509003954E+02  0.23813969741E+02  0.00000000000E+00 0. -1.
<mgrwt>
<rscale>  1 0.12629973E+03</rscale>
<asrwt>0</asrwt>
<pdfrwt beam="1">  1       21 0.26128364E-01 0.12629973E+03</pdfrwt>
<pdfrwt beam="2">  1       21 0.47242946E-02 0.12629973E+03</pdfrwt>
<totfact> 0.40667571E+06</totfact>
</mgrwt>
</event>
<event>
 6    1  0.4259848E-002  0.1271123E+03  0.7546771E-02  0.1231805E+00
         21   -1    0    0  503  502  0.00000000000E+00  0.00000000000E+00  0.76324494322E+02  0.76324494322E+02  0.00000000000E+00 0. -1.
         21   -1    0    0  504  503 -0.00000000000E+00 -0.00000000000E+00 -0.79686081378E+02  0.79686081378E+02  0.00000000000E+00 0. -1.
         25    2    1    2    0    0  0.19746024954E+02  0.12519610358E+02  0.12548545704E+02  0.12773022087E+03  0.12494357598E+03 0.  0.
          5    1    3    3  501    0  0.62281562897E+02 -0.82865834456E+01  0.38545231992E+02  0.73711637151E+02  0.10000000000E+00 0. -1.
         -5    1    3    3    0  501 -0.42535537943E+02  0.20806193804E+02 -0.25996686288E+02  0.54018583716E+02  0.10000000000E+00 0. -1.
         21    1    1    2  504  502 -0.19746024954E+02 -0.12519610358E+02 -0.15910132759E+02  0.28280354832E+02  0.00000000000E+00 0. -1.
<mgrwt>
<rscale>  1 0.12711233E+03</rscale>
<asrwt>0</asrwt>
<pdfrwt beam="1">  1       21 0.11742230E-01 0.12711233E+03</pdfrwt>
<pdfrwt beam="2">  1       21 0.12259397E-01 0.12711233E+03</pdfrwt>
<totfact> 0.34042705E+06</totfact>
</mgrwt>
</event>
<event>
 6    1  0.4259848E-002  0.1303549E+03  0.7546771E-02  0.1226930E+00
         21   -1    0    0  503  502  0.00000000000E+00  0.00000000000E+00  0.43056676229E+03  0.43056676229E+03  0.00000000000E+00 0.  1.
         21   -1    0    0  504  503 -0.00000000000E+00 -0.00000000000E+00 -0.20196880603E+02  0.20196880603E+02  0.00000000000E+00 0.  1.
         25    2    1    2    0    0 -0.20953056849E+02  0.30479657356E+02  0.38349397395E+03  0.40504324788E+03  0.12499745792E+03 0.  0.
          5    1    3    3  501    0  0.43926358824E+02 -0.12275051239E+02  0.21075174568E+03  0.21563049457E+03  0.10000000000E+00 0.  1.
         -5    1    3    3    0  501 -0.64879415673E+02  0.42754708595E+02  0.17274222827E+03  0.18941275330E+03  0.10000000000E+00 0.  1.
         21    1    1    2  504  502  0.20953056849E+02 -0.30479657356E+02  0.26875907732E+02  0.45720395015E+02  0.00000000000E+00 0.  1.
<mgrwt>
<rscale>  1 0.13035492E+03</rscale>
<asrwt>0</asrwt>
<pdfrwt beam="1">  1       21 0.66241033E-01 0.13035492E+03</pdfrwt>
<pdfrwt beam="2">  1       21 0.31072127E-02 0.13035492E+03</pdfrwt>
<totfact> 0.12499978E+06</totfact>
</mgrwt>
</event>
<event>
 6    1  0.4259848E-002  0.1262176E+03  0.7546771E-02  0.1233179E+00
         21   -1    0    0  504  502  0.00000000000E+00  0.00000000000E+00  0.26069115988E+02  0.26069115988E+02  0.00000000000E+00 0.  1.
         21   -1    0    0  502  503 -0.00000000000E+00 -0.00000000000E+00 -0.19821282534E+03  0.19821282534E+03  0.00000000000E+00 0.  1.
         25    2    1    2    0    0 -0.17343855623E+02 -0.22301272949E+01 -0.14897353834E+03  0.19525368578E+03  0.12500041555E+03 0.  0.
          5    1    3    3  501    0 -0.37318194999E+00  0.21049530142E+02 -0.16219502611E+03  0.16355567394E+03  0.10000000000E+00 0. -1.
         -5    1    3    3    0  501 -0.16970673673E+02 -0.23279657437E+02  0.13221487771E+02  0.31698011833E+02  0.10000000000E+00 0. -1.
         21    1    1    2  504  503  0.17343855623E+02  0.22301272949E+01 -0.23170171008E+02  0.29028255548E+02  0.00000000000E+00 0.  1.
<mgrwt>
<rscale>  1 0.12621762E+03</rscale>
<asrwt>0</asrwt>
<pdfrwt beam="1">  1       21 0.40106334E-02 0.12621762E+03</pdfrwt>
<pdfrwt beam="2">  1       21 0.30494280E-01 0.12621762E+03</pdfrwt>
<totfact> 0.39750590E+06</totfact>
</mgrwt>
</event>
<event>
 6    1  0.4259848E-002  0.1290545E+03  0.7546771E-02  0.1228866E+00
         21   -1    0    0  503  502  0.00000000000E+00  0.00000000000E+00  0.10750138297E+04  0.10750138297E+04  0.00000000000E+00 0.  1.
         21   -1    0    0  504  503 -0.00000000000E+00 -0.00000000000E+00 -0.15828085910E+03  0.15828085910E+03  0.00000000000E+00 0.  1.
         25    2    1    2    0    0  0.22426886270E+02 -0.23033297228E+02  0.10694611807E+04  0.10772196935E+04  0.12498621157E+03 0.  0.
          5    1    3    3  501    0  0.20835260434E+02  0.29296655566E+02  0.87782125508E+03  0.87855709432E+03  0.10000000000E+00 0.  1.
         -5    1    3    3    0  501  0.15916258355E+01 -0.52329952794E+02  0.19163992563E+03  0.19866259922E+03  0.10000000000E+00 0.  1.
         21    1    1    2  504  502 -0.22426886270E+02  0.23033297228E+02 -0.15272821007E+03  0.15607499531E+03  0.00000000000E+00 0.  1.
<mgrwt>
<rscale>  1 0.12905445E+03</rscale>
<asrwt>0</asrwt>
<pdfrwt beam="1">  1       21 0.16538674E+00 0.12905445E+03</pdfrwt>
<pdfrwt beam="2">  1       21 0.24350902E-01 0.12905445E+03</pdfrwt>
<totfact> 0.39130019E+03</totfact>
</mgrwt>
</event>
<event>
 6    1  0.4259848E-002  0.1306609E+03  0.7546771E-02  0.1226478E+00
         21   -1    0    0  503  502  0.00000000000E+00  0.00000000000E+00  0.29457890905E+03  0.29457890905E+03  0.00000000000E+00 0. -1.
         21   -1    0    0  504  503 -0.00000000000E+00 -0.00000000000E+00 -0.39022189030E+02  0.39022189030E+02  0.00000000000E+00 0. -1.
         25    2    1    2    0    0  0.37813136900E+02 -0.43811935798E+01  0.26404069370E+03  0.29460102130E+03  0.12499298237E+03 0.  0.
          5    1    3    3  501    0  0.77409070871E+01 -0.26326455222E+01 -0.13309015969E+02  0.15620255153E+02  0.10000000000E+00 0.  1.
         -5    1    3    3    0  501  0.30072229813E+02 -0.17485480577E+01  0.27734970967E+03  0.27898076615E+03  0.10000000000E+00 0.  1.
         21    1    1    2  504  502 -0.37813136900E+02  0.43811935798E+01 -0.84839736817E+01  0.39000076780E+02  0.00000000000E+00 0. -1.
<mgrwt>
<rscale>  1 0.13066091E+03</rscale>
<asrwt>0</asrwt>
<pdfrwt beam="1">  1       21 0.45319831E-01 0.13066091E+03</pdfrwt>
<pdfrwt beam="2">  1       21 0.60034139E-02 0.13066091E+03</pdfrwt>
<totfact> 0.92250425E+05</totfact>
</mgrwt>
</event>
<event>
 6    1  0.4259848E-002  0.1319868E+03  0.7546771E-02  0.1224537E+00
         21   -1    0    0  503  502  0.00000000000E+00  0.00000000000E+00  0.15362338995E+04  0.15362338995E+04  0.00000000000E+00 0.  1.
         21   -1    0    0  504  503 -0.00000000000E+00 -0.00000000000E+00 -0.24892845353E+02  0.24892845353E+02  0.00000000000E+00 0.  1.
         25    2    1    2    0    0 -0.27300821303E+02  0.32406084615E+02  0.15129758832E+04  0.15187220065E+04  0.12500008321E+03 0.  0.
          5    1    3    3  501    0  0.98629659758E+01  0.70353650676E+02  0.11084151680E+04  0.11106894746E+04  0.10000000000E+00 0. -1.
         -5    1    3    3    0  501 -0.37163787279E+02 -0.37947566061E+02  0.40456071520E+03  0.40803253196E+03  0.10000000000E+00 0. -1.
         21    1    1    2  504  502  0.27300821303E+02 -0.32406084615E+02 -0.16348290818E+01  0.42404738297E+02  0.00000000000E+00 0.  1.
<mgrwt>
<rscale>  1 0.13198678E+03</rscale>
<asrwt>0</asrwt>
<pdfrwt beam="1">  1       21 0.23634360E+00 0.13198678E+03</pdfrwt>
<pdfrwt beam="2">  1       21 0.38296697E-02 0.13198678E+03</pdfrwt>
<totfact> 0.35582914E+04</totfact>
</mgrwt>
</event>
<event>
 6    1  0.4259848E-002  0.1262447E+03  0.7546771E-02  0.1233137E+00
         21   -1    0    0  503  502  0.00000000000E+00  0.00000000000E+00  0.40409080193E+03  0.40409080193E+03  0.00000000000E+00 0. -1.
         21   -1    0    0  504  503 -0.00000000000E+00 -0.00000000000E+00 -0.13353761984E+02  0.13353761984E+02  0.00000000000E+00 0. -1.
         25    2    1    2    0    0  0.15461021528E+02 -0.86466446358E+01  0.36487092227E+03  0.38609390692E+03  0.12499562950E+03 0.  0.
          5    1    3    3  501    0  0.41088624550E+02 -0.57732620787E+02  0.20242665927E+03  0.21447119377E+03  0.10000000000E+00 0. -1.
         -5    1    3    3    0  501 -0.25627603022E+02  0.49085976151E+02  0.16244426300E+03  0.17162271316E+03  0.10000000000E+00 0. -1.
         21    1    1    2  504  502 -0.15461021528E+02  0.86466446358E+01  0.25866117677E+02  0.31350656992E+02  0.00000000000E+00 0. -1.
<mgrwt>
<rscale>  1 0.12624466E+03</rscale>
<asrwt>0</asrwt>
<pdfrwt beam="1">  1       21 0.62167806E-01 0.12624466E+03</pdfrwt>
<pdfrwt beam="2">  1       21 0.20544252E-02 0.12624466E+03</pdfrwt>
<totfact> 0.28079868E+06</totfact>
</mgrwt>
</event>
<event>
 6    1  0.4259848E-002  0.1396044E+03  0.7546771E-02  0.1213862E+00
         21   -1    0    0  503  502  0.00000000000E+00  0.00000000000E+00  0.65496711222E+02  0.65496711222E+02  0.00000000000E+00 0. -1.
         21   -1    0    0  504  503 -0.00000000000E+00 -0.00000000000E+00 -0.34515423888E+03  0.34515423888E+03  0.00000000000E+00 0. -1.
         25    2    1    2    0    0 -0.60366266866E+02 -0.14848133419E+02 -0.16881158252E+02  0.14062137106E+03  0.12499937301E+03 0.  0.
          5    1    3    3  501    0  0.11727723058E+02  0.37046461000E+02  0.20864069639E+02  0.44105545713E+02  0.10000000000E+00 0.  1.
         -5    1    3    3    0  501 -0.72093989924E+02 -0.51894594419E+02 -0.37745227891E+02  0.96515825343E+02  0.10000000000E+00 0.  1.
         21    1    1    2  504  502  0.60366266866E+02  0.14848133419E+02 -0.26277636941E+03  0.27002957905E+03  0.00000000000E+00 0. -1.
<mgrwt>
<rscale>  1 0.13960443E+03</rscale>
<asrwt>0</asrwt>
<pdfrwt beam="1">  1       21 0.10076417E-01 0.13960443E+03</pdfrwt>
<pdfrwt beam="2">  1       21 0.53100652E-01 0.13960443E+03</pdfrwt>
<totfact> 0.27235072E+05</totfact>
</mgrwt>
</event>
<event>
 6    1  0.4259848E-002  0.1262134E+03  0.7546771E-02  0.1233185E+00
         21   -1    0    0  503  502  0.00000000000E+00  0.00000000000E+00  0.50368647745E+03  0.50368647745E+03  0.00000000000E+00 0.  1.
         21   -1    0    0  504  503 -0.00000000000E+00 -0.00000000000E+00 -0.15405661948E+02  0.15405661948E+02  0.00000000000E+00 0.  1.
         25    2    1    2    0    0  0.17406063045E+02 -0.11227048528E+01  0.48524133118E+03  0.50138705646E+03  0.12500239761E+03 0.  0.
          5    1    3    3  501    0  0.57785358306E+01 -0.50687766821E+02  0.39063418970E+03  0.39395142003E+03  0.10000000000E+00 0.  1.
         -5    1    3    3    0  501  0.11627527215E+02  0.49565061968E+02  0.94607141474E+02  0.10743563643E+03  0.10000000000E+00 0.  1.
         21    1    1    2  504  502 -0.17406063045E+02  0.11227048528E+01  0.30394843288E+01  0.17705082940E+02  0.00000000000E+00 0.  1.
<mgrwt>
<rscale>  1 0.12621343E+03</rscale>
<asrwt>0</asrwt>
<pdfrwt beam="1">  1       21 0.77490214E-01 0.12621343E+03</pdfrwt>
<pdfrwt beam="2">  1       21 0.23701022E-02 0.12621343E+03</pdfrwt>
<totfact> 0.13793512E+06</totfact>
</mgrwt>
</event>
<event>
 6    1  0.4259848E-002  0.1308856E+03  0.7546771E-02  0.1226148E+00
         21   -1    0    0  504  502  0.00000000000E+00  0.00000000000E+00  0.16618836632E+02  0.16618836632E+02  0.00000000000E+00 0.  1.
         21   -1    0    0  502  503 -0.00000000000E+00 -0.00000000000E+00 -0.83787987076E+03  0.83787987076E+03  0.00000000000E+00 0.  1.
         25    2    1    2    0    0 -0.12256354639E+02  0.36815999872E+02 -0.25242078515E+03  0.28433656823E+03  0.12500158072E+03 0.  0.
          5    1    3    3  501    0 -0.28602235184E+02  0.75335035957E+02 -0.20917978153E+03  0.22416432923E+03  0.10000000000E+00 0. -1.
         -5    1    3    3    0  501  0.16345880546E+02 -0.38519036086E+02 -0.43241003622E+02  0.60172238998E+02  0.10000000000E+00 0. -1.
         21    1    1    2  504  503  0.12256354639E+02 -0.36815999872E+02 -0.56884024898E+03  0.57016213916E+03  0.00000000000E+00 0.  1.
<mgrwt>
<rscale>  1 0.13088557E+03</rscale>
<asrwt>0</asrwt>
<pdfrwt beam="1">  1       21 0.25567438E-02 0.13088557E+03</pdfrwt>
<pdfrwt beam="2">  1       21 0.12890461E+00 0.13088557E+03</pdfrwt>
<totfact> 0.36989508E+05</totfact>
</mgrwt>
</event>
<event>
 6    1  0.4259848E-002  0.1293320E+03  0.7546771E-02  0.1228450E+00
         21   -1    0    0  504  502  0.00000000000E+00  0.00000000000E+00  0.30585957489E+03  0.30585957489E+03  0.00000000000E+00 0. -1.
         21   -1    0    0  502  503 -0.00000000000E+00 -0.00000000000E+00 -0.60612283767E+03  0.60612283767E+03  0.00000000000E+00 0.  1.
         25    2    1    2    0    0  0.30189127663E+02  0.13567591577E+02  0.29170467976E+03  0.31908991980E+03  0.12502517248E+03 0.  0.
          5    1    3    3  501    0  0.76905982417E+02  0.12382438348E+02  0.22109854875E+03  0.23441935324E+03  0.10000000000E+00 0.  1.
         -5    1    3    3    0  501 -0.46716854754E+02  0.11851532290E+01  0.70606131010E+02  0.84670566565E+02  0.10000000000E+00 0.  1.
         21    1    1    2  504  503 -0.30189127663E+02 -0.13567591577E+02 -0.59196794255E+03  0.59289249276E+03  0.00000000000E+00 0.  1.
<mgrwt>
<rscale>  1 0.12933196E+03</rscale>
<asrwt>0</asrwt>
<pdfrwt beam="1">  1       21 0.47055319E-01 0.12933196E+03</pdfrwt>
<pdfrwt beam="2">  1       21 0.93249667E-01 0.12933196E+03</pdfrwt>
<totfact> 0.44316168E+03</totfact>
</mgrwt>
</event>
<event>
 6    1  0.4259848E-002  0.1322636E+03  0.7546771E-02  0.1224135E+00
         21   -1    0    0  503  502  0.00000000000E+00  0.00000000000E+00  0.83770093090E+03  0.83770093090E+03  0.00000000000E+00 0. -1.
         21   -1    0    0  504  503 -0.00000000000E+00 -0.00000000000E+00 -0.76010289601E+02  0.76010289601E+02  0.00000000000E+00 0. -1.
         25    2    1    2    0    0  0.38307206499E+02  0.19960646412E+02  0.82584542767E+03  0.83636973041E+03  0.12501114377E+03 0.  0.
          5    1    3    3  501    0  0.46052667185E+02  0.68392428990E+02  0.56003633660E+03  0.56607338818E+03  0.10000000000E+00 0. -1.
         -5    1    3    3    0  501 -0.77454606851E+01 -0.48431782578E+02  0.26580909107E+03  0.27029634222E+03  0.10000000000E+00 0. -1.
         21    1    1    2  504  502 -0.38307206499E+02 -0.19960646412E+02 -0.64154786372E+02  0.77341490090E+02  0.00000000000E+00 0. -1.
<mgrwt>
<rscale>  1 0.13226358E+03</rscale>
<asrwt>0</asrwt>
<pdfrwt beam="1">  1       21 0.12887706E+00 0.13226358E+03</pdfrwt>
<pdfrwt beam="2">  1       21 0.11693891E-01 0.13226358E+03</pdfrwt>
<totfact> 0.28241559E+04</totfact>
</mgrwt>
</event>
<event>
 6    1  0.4259848E-002  0.1547565E+03  0.7546771E-02  0.1194747E+00
         21   -1    0    0  504  502  0.00000000000E+00  0.00000000000E+00  0.14278757219E+03  0.14278757219E+03  0.00000000000E+00 0.  1.
         21   -1    0    0  502  503 -0.00000000000E+00 -0.00000000000E+00 -0.11815685755E+03  0.11815685755E+03  0.00000000000E+00 0.  1.
         25    2    1    2    0    0  0.85246129437E+02  0.32510605982E+02  0.55834610768E+02  0.16452075413E+03  0.12500293074E+03 0.  0.
          5    1    3    3  501    0  0.15064524079E+02 -0.35610353154E+02 -0.17335501767E+02  0.42374128416E+02  0.10000000000E+00 0.  1.
         -5    1    3    3    0  501  0.70181605357E+02  0.68120959136E+02  0.73170112535E+02  0.12214662571E+03  0.10000000000E+00 0.  1.
         21    1    1    2  504  503 -0.85246129437E+02 -0.32510605982E+02 -0.31203896124E+02  0.96423675612E+02  0.00000000000E+00 0.  1.
<mgrwt>
<rscale>  1 0.15475650E+03</rscale>
<asrwt>0</asrwt>
<pdfrwt beam="1">  1       21 0.21967319E-01 0.15475650E+03</pdfrwt>
<pdfrwt beam="2">  1       21 0.18177978E-01 0.15475650E+03</pdfrwt>
<totfact> 0.53658242E+05</totfact>
</mgrwt>
</event>
<event>
 6    1  0.4259848E-002  0.1657439E+03  0.7546771E-02  0.1182360E+00
         21   -1    0    0  503  502  0.00000000000E+00  0.00000000000E+00  0.50216293324E+03  0.50216293324E+03  0.00000000000E+00 0. -1.
         21   -1    0    0  504  503 -0.00000000000E+00 -0.00000000000E+00 -0.48298527829E+02  0.48298527829E+02  0.00000000000E+00 0.  1.
         25    2    1    2    0    0 -0.80476332451E+02 -0.73287914205E+02  0.39120575541E+03  0.42486820937E+03  0.12499397510E+03 0.  0.
          5    1    3    3  501    0 -0.37621834213E+02 -0.97693520753E+02  0.33033555590E+03  0.34652707816E+03  0.10000000000E+00 0.  1.
         -5    1    3    3    0  501 -0.42854498239E+02  0.24405606549E+02  0.60870199512E+02  0.78341131208E+02  0.10000000000E+00 0.  1.
         21    1    1    2  504  502  0.80476332451E+02  0.73287914205E+02  0.62658650003E+02  0.12559325170E+03  0.00000000000E+00 0.  1.
<mgrwt>
<rscale>  1 0.16574394E+03</rscale>
<asrwt>0</asrwt>
<pdfrwt beam="1">  1       21 0.77255832E-01 0.16574394E+03</pdfrwt>
<pdfrwt beam="2">  1       21 0.74305431E-02 0.16574394E+03</pdfrwt>
<totfact> 0.20468142E+05</totfact>
</mgrwt>
</event>
<event>
 6    1  0.4259848E-002  0.1261249E+03  0.7546771E-02  0.1233322E+00
         21   -1    0    0  503  502  0.00000000000E+00  0.00000000000E+00  0.15524443884E+03  0.15524443884E+03  0.00000000000E+00 0. -1.
         21   -1    0    0  504  503 -0.00000000000E+00 -0.00000000000E+00 -0.50049801409E+02  0.50049801409E+02  0.00000000000E+00 0. -1.
         25    2    1    2    0    0 -0.12953203347E+02 -0.10858642226E+02  0.12614087212E+03  0.17837881094E+03  0.12498713927E+03 0.  0.
          5    1    3    3  501    0 -0.55439399281E+01  0.54319892011E+02  0.30918949591E+02  0.62748524938E+02  0.10000000000E+00 0. -1.
         -5    1    3    3    0  501 -0.74092634192E+01 -0.65178534237E+02  0.95221922529E+02  0.11563028600E+03  0.10000000000E+00 0. -1.
         21    1    1    2  504  502  0.12953203347E+02  0.10858642226E+02 -0.20946234684E+02  0.26915429319E+02  0.00000000000E+00 0. -1.
<mgrwt>
<rscale>  1 0.12612486E+03</rscale>
<asrwt>0</asrwt>
<pdfrwt beam="1">  1       21 0.23883760E-01 0.12612486E+03</pdfrwt>
<pdfrwt beam="2">  1       21 0.76999695E-02 0.12612486E+03</pdfrwt>
<totfact> 0.21044685E+06</totfact>
</mgrwt>
</event>
<event>
 6    1  0.4259848E-002  0.1386745E+03  0.7546771E-02  0.1215124E+00
         21   -1    0    0  503  502  0.00000000000E+00  0.00000000000E+00  0.14315585962E+02  0.14315585962E+02  0.00000000000E+00 0. -1.
         21   -1    0    0  504  503 -0.00000000000E+00 -0.00000000000E+00 -0.93220215009E+03  0.93220215009E+03  0.00000000000E+00 0. -1.
         25    2    1    2    0    0 -0.44880274494E+01  0.59896733973E+02 -0.36631185809E+03  0.39168224920E+03  0.12499138302E+03 0.  0.
          5    1    3    3  501    0 -0.64259797723E+02  0.24062362080E+02 -0.19597289167E+03  0.20763839515E+03  0.10000000000E+00 0.  1.
         -5    1    3    3    0  501  0.59771770274E+02  0.35834371893E+02 -0.17033896642E+03  0.18404385404E+03  0.10000000000E+00 0.  1.
         21    1    1    2  504  502  0.44880274494E+01 -0.59896733973E+02 -0.55157470604E+03  0.55483548686E+03  0.00000000000E+00 0. -1.
<mgrwt>
<rscale>  1 0.13867446E+03</rscale>
<asrwt>0</asrwt>
<pdfrwt beam="1">  1       21 0.22023973E-02 0.13867446E+03</pdfrwt>
<pdfrwt beam="2">  1       21 0.14341575E+00 0.13867446E+03</pdfrwt>
<totfact> 0.35944158E+05</totfact>
</mgrwt>
</event>
<event>
 6    1  0.4259848E-002  0.1291245E+03  0.7546771E-02  0.1228761E+00
         21   -1    0    0  503  502  0.00000000000E+00  0.00000000000E+00  0.24238443911E+02  0.24238443911E+02  0.00000000000E+00 0. -1.
         21   -1    0    0  504  503 -0.00000000000E+00 -0.00000000000E+00 -0.42418620628E+03  0.42418620628E+03  0.00000000000E+00 0. -1.
         25    2    1    2    0    0  0.31101833841E+02  0.90377313411E+01 -0.15677628007E+03  0.20310572622E+03  0.12499651745E+03 0.  0.
          5    1    3    3  501    0  0.61194219966E+02  0.71044778877E+00 -0.22430878476E+02  0.65179687039E+02  0.10000000000E+00 0. -1.
         -5    1    3    3    0  501 -0.30092386125E+02  0.83272835523E+01 -0.13434540160E+03  0.13792603918E+03  0.10000000000E+00 0. -1.
         21    1    1    2  504  502 -0.31101833841E+02 -0.90377313411E+01 -0.24317148230E+03  0.24531892397E+03  0.00000000000E+00 0. -1.
<mgrwt>
<rscale>  1 0.12912449E+03</rscale>
<asrwt>0</asrwt>
<pdfrwt beam="1">  1       21 0.37289915E-02 0.12912449E+03</pdfrwt>
<pdfrwt beam="2">  1       21 0.65259415E-01 0.12912449E+03</pdfrwt>
<totfact> 0.95544816E+05</totfact>
</mgrwt>
</event>
<event>
 6    1  0.4259848E-002  0.1504850E+03  0.7546771E-02  0.1199878E+00
         21   -1    0    0  503  502  0.00000000000E+00  0.00000000000E+00  0.73848718573E+02  0.73848718573E+02  0.00000000000E+00 0. -1.
         21   -1    0    0  504  503 -0.00000000000E+00 -0.00000000000E+00 -0.18726262124E+03  0.18726262124E+03  0.00000000000E+00 0. -1.
         25    2    1    2    0    0 -0.81353471373E+02  0.20054201770E+02 -0.61658351673E+02  0.16262684676E+03  0.12500072257E+03 0.  0.
          5    1    3    3  501    0 -0.16260255144E+02 -0.37478754361E+02 -0.63761281162E+02  0.75726903418E+02  0.10000000000E+00 0.  1.
         -5    1    3    3    0  501 -0.65093216229E+02  0.57532956131E+02  0.21029294899E+01  0.86899943341E+02  0.10000000000E+00 0.  1.
         21    1    1    2  504  502  0.81353471373E+02 -0.20054201770E+02 -0.51755550992E+02  0.98484493051E+02  0.00000000000E+00 0. -1.
<mgrwt>
<rscale>  1 0.15048501E+03</rscale>
<asrwt>0</asrwt>
<pdfrwt beam="1">  1       21 0.11361341E-01 0.15048501E+03</pdfrwt>
<pdfrwt beam="2">  1       21 0.28809634E-01 0.15048501E+03</pdfrwt>
<totfact> 0.74878847E+05</totfact>
</mgrwt>
</event>
<event>
 6    1  0.4259848E-002  0.1430925E+03  0.7546771E-02  0.1209227E+00
         21   -1    0    0  504  502  0.00000000000E+00  0.00000000000E+00  0.32770622364E+03  0.32770622364E+03  0.00000000000E+00 0. -1.
         21   -1    0    0  502  503 -0.00000000000E+00 -0.00000000000E+00 -0.35046577506E+02  0.35046577506E+02  0.00000000000E+00 0. -1.
         25    2    1    2    0    0 -0.44696673184E+02  0.53415675742E+02  0.21684134710E+03  0.25979921220E+03  0.12499773533E+03 0.  0.
          5    1    3    3  501    0 -0.73055264709E+01  0.51685227528E+01  0.19464200231E+03  0.19484764152E+03  0.10000000000E+00 0.  1.
         -5    1    3    3    0  501 -0.37391146714E+02  0.48247152989E+02  0.22199344794E+02  0.64951570677E+02  0.10000000000E+00 0.  1.
         21    1    1    2  504  503  0.44696673184E+02 -0.53415675742E+02  0.75818299029E+02  0.10295358894E+03  0.00000000000E+00 0. -1.
<mgrwt>
<rscale>  1 0.14309249E+03</rscale>
<asrwt>0</asrwt>
<pdfrwt beam="1">  1       21 0.50416340E-01 0.14309249E+03</pdfrwt>
<pdfrwt beam="2">  1       21 0.53917814E-02 0.14309249E+03</pdfrwt>
<totfact> 0.88923354E+05</totfact>
</mgrwt>
</event>
<event>
 6    1  0.4259848E-002  0.1298663E+03  0.7546771E-02  0.1227654E+00
         21   -1    0    0  504  502  0.00000000000E+00  0.00000000000E+00  0.17807042475E+02  0.17807042475E+02  0.00000000000E+00 0. -1.
         21   -1    0    0  502  503 -0.00000000000E+00 -0.00000000000E+00 -0.11183766719E+04  0.11183766719E+04  0.00000000000E+00 0. -1.
         25    2    1    2    0    0 -0.24543432355E+02  0.25276813041E+02 -0.22412638336E+03  0.25903260942E+03  0.12499583864E+03 0.  0.
          5    1    3    3  501    0 -0.37036565113E+02  0.69570762457E+02 -0.10472783072E+03  0.13107145636E+03  0.10000000000E+00 0.  1.
         -5    1    3    3    0  501  0.12493132758E+02 -0.44293949416E+02 -0.11939855263E+03  0.12796115306E+03  0.10000000000E+00 0.  1.
         21    1    1    2  504  503  0.24543432355E+02 -0.25276813041E+02 -0.87644324609E+03  0.87715110498E+03  0.00000000000E+00 0. -1.
<mgrwt>
<rscale>  1 0.12986630E+03</rscale>
<asrwt>0</asrwt>
<pdfrwt beam="1">  1       21 0.27395443E-02 0.12986630E+03</pdfrwt>
<pdfrwt beam="2">  1       21 0.17205799E+00 0.12986630E+03</pdfrwt>
<totfact> 0.15642079E+05</totfact>
</mgrwt>
</event>
<event>
 6    1  0.4259848E-002  0.1428571E+03  0.7546771E-02  0.1209535E+00
         21   -1    0    0  504  502  0.00000000000E+00  0.00000000000E+00  0.72239851853E+02  0.72239851853E+02  0.00000000000E+00 0. -1.
         21   -1    0    0  502  503 -0.00000000000E+00 -0.00000000000E+00 -0.25621788682E+03  0.25621788682E+03  0.00000000000E+00 0. -1.
         25    2    1    2    0    0 -0.62604864651E+02 -0.29218043538E+02 -0.12283104794E+02  0.14338420682E+03  0.12504036530E+03 0.  0.
          5    1    3    3  501    0 -0.65182155037E+02  0.38082440435E+02 -0.75471183969E+01  0.75868007756E+02  0.10000000000E+00 0.  1.
         -5    1    3    3    0  501  0.25772903853E+01 -0.67300483973E+02 -0.47359863970E+01  0.67516199062E+02  0.10000000000E+00 0.  1.
         21    1    1    2  504  503  0.62604864651E+02  0.29218043538E+02 -0.17169493017E+03  0.18507353185E+03  0.00000000000E+00 0. -1.
<mgrwt>
<rscale>  1 0.14285712E+03</rscale>
<asrwt>0</asrwt>
<pdfrwt beam="1">  1       21 0.11113823E-01 0.14285712E+03</pdfrwt>
<pdfrwt beam="2">  1       21 0.39418137E-01 0.14285712E+03</pdfrwt>
<totfact> 0.42099956E+05</totfact>
</mgrwt>
</event>
<event>
 6    1  0.4259848E-002  0.1262199E+03  0.7546771E-02  0.1233175E+00
         21   -1    0    0  504  502  0.00000000000E+00  0.00000000000E+00  0.26082583202E+02  0.26082583202E+02  0.00000000000E+00 0. -1.
         21   -1    0    0  502  503 -0.00000000000E+00 -0.00000000000E+00 -0.20644214923E+03  0.20644214923E+03  0.00000000000E+00 0. -1.
         25    2    1    2    0    0 -0.17130867529E+02 -0.37251594473E+01 -0.17133306654E+03  0.21280618461E+03  0.12499643628E+03 0.  0.
          5    1    3    3  501    0 -0.57448779522E+02  0.74467569728E+00 -0.16100220409E+03  0.17094629721E+03  0.10000000000E+00 0. -1.
         -5    1    3    3    0  501  0.40317911993E+02 -0.44698351446E+01 -0.10330862453E+02  0.41859887395E+02  0.10000000000E+00 0. -1.
         21    1    1    2  504  503  0.17130867529E+02  0.37251594473E+01 -0.90264994899E+01  0.19718547823E+02  0.00000000000E+00 0.  1.
<mgrwt>
<rscale>  1 0.12621986E+03</rscale>
<asrwt>0</asrwt>
<pdfrwt beam="1">  1       21 0.40127049E-02 0.12621986E+03</pdfrwt>
<pdfrwt beam="2">  1       21 0.31760332E-01 0.12621986E+03</pdfrwt>
<totfact> 0.36708807E+06</totfact>
</mgrwt>
</event>
<event>
 6    1  0.4259848E-002  0.1260851E+03  0.7546771E-02  0.1233383E+00
         21   -1    0    0  503  502  0.00000000000E+00  0.00000000000E+00  0.39082403905E+02  0.39082403905E+02  0.00000000000E+00 0. -1.
         21   -1    0    0  504  503 -0.00000000000E+00 -0.00000000000E+00 -0.14871908553E+03  0.14871908553E+03  0.00000000000E+00 0. -1.
         25    2    1    2    0    0 -0.16407598577E+02 -0.21078837402E+01 -0.68561939141E+02  0.14352071556E+03  0.12499521523E+03 0.  0.
          5    1    3    3  501    0 -0.41538118747E+02  0.33975566236E+02  0.89500132296E+01  0.54404661077E+02  0.10000000000E+00 0.  1.
         -5    1    3    3    0  501  0.25130520170E+02 -0.36083449976E+02 -0.77511952370E+02  0.89116054482E+02  0.10000000000E+00 0.  1.
         21    1    1    2  504  502  0.16407598577E+02  0.21078837402E+01 -0.41074742489E+02  0.44280773881E+02  0.00000000000E+00 0. -1.
<mgrwt>
<rscale>  1 0.12608512E+03</rscale>
<asrwt>0</asrwt>
<pdfrwt beam="1">  1       21 0.60126775E-02 0.12608512E+03</pdfrwt>
<pdfrwt beam="2">  1       21 0.22879859E-01 0.12608512E+03</pdfrwt>
<totfact> 0.34792503E+06</totfact>
</mgrwt>
</event>
<event>
 6    1  0.4259848E-002  0.1267086E+03  0.7546771E-02  0.1232423E+00
         21   -1    0    0  504  502  0.00000000000E+00  0.00000000000E+00  0.65134629730E+02  0.65134629730E+02  0.00000000000E+00 0.  1.
         21   -1    0    0  502  503 -0.00000000000E+00 -0.00000000000E+00 -0.83667595311E+02  0.83667595311E+02  0.00000000000E+00 0.  1.
         25    2    1    2    0    0 -0.83229804274E+01  0.19163949482E+02 -0.14672354537E+02  0.12755526572E+03  0.12497415277E+03 0.  0.
          5    1    3    3  501    0 -0.63462245077E+02 -0.79482093975E+01 -0.16611941329E+02  0.66080232880E+02  0.10000000000E+00 0.  1.
         -5    1    3    3    0  501  0.55139264649E+02  0.27112158880E+02  0.19395867924E+01  0.61475032835E+02  0.10000000000E+00 0.  1.
         21    1    1    2  504  503  0.83229804274E+01 -0.19163949482E+02 -0.38606110440E+01  0.21246959326E+02  0.00000000000E+00 0.  1.
<mgrwt>
<rscale>  1 0.12670859E+03</rscale>
<asrwt>0</asrwt>
<pdfrwt beam="1">  1       21 0.10020712E-01 0.12670859E+03</pdfrwt>
<pdfrwt beam="2">  1       21 0.12871938E-01 0.12670859E+03</pdfrwt>
<totfact> 0.41248172E+06</totfact>
</mgrwt>
</event>
<event>
 6    1  0.4259848E-002  0.1260965E+03  0.7546771E-02  0.1233365E+00
         21   -1    0    0  504  502  0.00000000000E+00  0.00000000000E+00  0.27608365703E+03  0.27608365703E+03  0.00000000000E+00 0.  1.
         21   -1    0    0  502  503 -0.00000000000E+00 -0.00000000000E+00 -0.54423972097E+02  0.54423972097E+02  0.00000000000E+00 0. -1.
         25    2    1    2    0    0 -0.12153389300E+02  0.11298276368E+02  0.25987132185E+03  0.28884847507E+03  0.12499992684E+03 0.  0.
          5    1    3    3  501    0 -0.46245017746E+02  0.27590169643E+01  0.27584101476E+02  0.53917589849E+02  0.10000000000E+00 0.  1.
         -5    1    3    3    0  501  0.34091628445E+02  0.85392594035E+01  0.23228722038E+03  0.23493088522E+03  0.10000000000E+00 0.  1.
         21    1    1    2  504  503  0.12153389300E+02 -0.11298276368E+02 -0.38211636921E+02  0.41659154054E+02  0.00000000000E+00 0. -1.
<mgrwt>
<rscale>  1 0.12609654E+03</rscale>
<asrwt>0</asrwt>
<pdfrwt beam="1">  1       21 0.42474408E-01 0.12609654E+03</pdfrwt>
<pdfrwt beam="2">  1       21 0.83729190E-02 0.12609654E+03</pdfrwt>
<totfact> 0.59518575E+05</totfact>
</mgrwt>
</event>
<event>
 6    1  0.4259848E-002  0.1819153E+03  0.7546771E-02  0.1165962E+00
         21   -1    0    0  504  502  0.00000000000E+00  0.00000000000E+00  0.39009154510E+02  0.39009154510E+02  0.00000000000E+00 0. -1.
         21   -1    0    0  502  503 -0.00000000000E+00 -0.00000000000E+00 -0.92725836727E+03  0.92725836727E+03  0.00000000000E+00 0. -1.
         25    2    1    2    0    0 -0.34627182884E+02 -0.12755369864E+03 -0.22190074159E+03  0.28693750414E+03  0.12499681729E+03 0.  0.
          5    1    3    3  501    0 -0.47372063681E+02 -0.11484575533E+01 -0.10097732384E+03  0.11154309168E+03  0.10000000000E+00 0. -1.
         -5    1    3    3    0  501  0.12744880797E+02 -0.12640524109E+03 -0.12092341775E+03  0.17539441246E+03  0.10000000000E+00 0. -1.
         21    1    1    2  504  503  0.34627182884E+02  0.12755369864E+03 -0.66634847117E+03  0.67933001764E+03  0.00000000000E+00 0. -1.
<mgrwt>
<rscale>  1 0.18191534E+03</rscale>
<asrwt>0</asrwt>
<pdfrwt beam="1">  1       21 0.60014084E-02 0.18191534E+03</pdfrwt>
<pdfrwt beam="2">  1       21 0.14265513E+00 0.18191534E+03</pdfrwt>
<totfact> 0.67547098E+04</totfact>
</mgrwt>
</event>
<event>
 6    1  0.4259848E-002  0.1267989E+03  0.7546771E-02  0.1232284E+00
         21   -1    0    0  503  502  0.00000000000E+00  0.00000000000E+00  0.83061957332E+03  0.83061957332E+03  0.00000000000E+00 0.  1.
         21   -1    0    0  504  503 -0.00000000000E+00 -0.00000000000E+00 -0.65988660133E+01  0.65988660133E+01  0.00000000000E+00 0.  1.
         25    2    1    2    0    0 -0.14732863062E+02  0.15337747570E+02  0.70370891706E+03  0.71504139310E+03  0.12500260053E+03 0.  0.
          5    1    3    3  501    0 -0.32842034186E+01  0.76570683497E+01  0.70092730416E+03  0.70097682730E+03  0.10000000000E+00 0. -1.
         -5    1    3    3    0  501 -0.11448659643E+02  0.76806792204E+01  0.27816129013E+01  0.14064565804E+02  0.10000000000E+00 0. -1.
         21    1    1    2  504  502  0.14732863062E+02 -0.15337747570E+02  0.12031179024E+03  0.12217704623E+03  0.00000000000E+00 0. -1.
<mgrwt>
<rscale>  1 0.12679887E+03</rscale>
<asrwt>0</asrwt>
<pdfrwt beam="1">  1       21 0.12778754E+00 0.12679887E+03</pdfrwt>
<pdfrwt beam="2">  1       21 0.10152108E-02 0.12679887E+03</pdfrwt>
<totfact> 0.16599022E+06</totfact>
</mgrwt>
</event>
<event>
 6    1  0.4259848E-002  0.1274634E+03  0.7546771E-02  0.1231269E+00
         21   -1    0    0  504  502  0.00000000000E+00  0.00000000000E+00  0.43501519559E+02  0.43501519559E+02  0.00000000000E+00 0.  1.
         21   -1    0    0  502  503 -0.00000000000E+00 -0.00000000000E+00 -0.14564621921E+03  0.14564621921E+03  0.00000000000E+00 0.  1.
         25    2    1    2    0    0 -0.81494916938E+01  0.23552219245E+02 -0.61629135078E+02  0.14158060496E+03  0.12500318461E+03 0.  0.
          5    1    3    3  501    0 -0.34787223632E+02 -0.39674031696E+02 -0.57162008845E+01  0.53074143155E+02  0.10000000000E+00 0. -1.
         -5    1    3    3    0  501  0.26637731938E+02  0.63226250941E+02 -0.55912934193E+02  0.88506461804E+02  0.10000000000E+00 0. -1.
         21    1    1    2  504  503  0.81494916938E+01 -0.23552219245E+02 -0.40515564571E+02  0.47567133808E+02  0.00000000000E+00 0.  1.
<mgrwt>
<rscale>  1 0.12746340E+03</rscale>
<asrwt>0</asrwt>
<pdfrwt beam="1">  1       21 0.66925415E-02 0.12746340E+03</pdfrwt>
<pdfrwt beam="2">  1       21 0.22407111E-01 0.12746340E+03</pdfrwt>
<totfact> 0.30166566E+06</totfact>
</mgrwt>
</event>
<event>
 6    1  0.4259848E-002  0.1259813E+03  0.7546771E-02  0.1233544E+00
         21   -1    0    0  504  502  0.00000000000E+00  0.00000000000E+00  0.21267507388E+03  0.21267507388E+03  0.00000000000E+00 0.  1.
         21   -1    0    0  502  503 -0.00000000000E+00 -0.00000000000E+00 -0.58230883785E+02  0.58230883785E+02  0.00000000000E+00 0.  1.
         25    2    1    2    0    0 -0.10533181306E+02 -0.11596831227E+02  0.19232496164E+03  0.22991343083E+03  0.12500344157E+03 0.  0.
          5    1    3    3  501    0 -0.76250182107E+01 -0.23864763329E+02  0.20816545188E+03  0.20966767321E+03  0.10000000000E+00 0.  1.
         -5    1    3    3    0  501 -0.29081630950E+01  0.12267932101E+02 -0.15840490242E+02  0.20245757623E+02  0.10000000000E+00 0.  1.
         21    1    1    2  504  503  0.10533181306E+02  0.11596831227E+02 -0.37880771547E+02  0.40992526830E+02  0.00000000000E+00 0.  1.
<mgrwt>
<rscale>  1 0.12598133E+03</rscale>
<asrwt>0</asrwt>
<pdfrwt beam="1">  1       21 0.32719242E-01 0.12598133E+03</pdfrwt>
<pdfrwt beam="2">  1       21 0.89585976E-02 0.12598133E+03</pdfrwt>
<totfact> 0.88743912E+05</totfact>
</mgrwt>
</event>
<event>
 6    1  0.4259848E-002  0.1270861E+03  0.7546771E-02  0.1231845E+00
         21   -1    0    0  504  502  0.00000000000E+00  0.00000000000E+00  0.16010697643E+03  0.16010697643E+03  0.00000000000E+00 0. -1.
         21   -1    0    0  502  503 -0.00000000000E+00 -0.00000000000E+00 -0.35334797094E+02  0.35334797094E+02  0.00000000000E+00 0. -1.
         25    2    1    2    0    0 -0.99951938991E+01  0.20663622664E+02  0.11053741321E+03  0.16843218690E+03  0.12499597059E+03 0.  0.
          5    1    3    3  501    0 -0.83620214285E+01  0.71157757107E+02  0.86979536049E+02  0.11268895017E+03  0.10000000000E+00 0. -1.
         -5    1    3    3    0  501 -0.16331724706E+01 -0.50494134443E+02  0.23557877158E+02  0.55743236735E+02  0.10000000000E+00 0. -1.
         21    1    1    2  504  503  0.99951938991E+01 -0.20663622664E+02  0.14234766133E+02  0.27009586624E+02  0.00000000000E+00 0. -1.
<mgrwt>
<rscale>  1 0.12708612E+03</rscale>
<asrwt>0</asrwt>
<pdfrwt beam="1">  1       21 0.24631842E-01 0.12708612E+03</pdfrwt>
<pdfrwt beam="2">  1       21 0.54361227E-02 0.12708612E+03</pdfrwt>
<totfact> 0.35927375E+06</totfact>
</mgrwt>
</event>
<event>
 6    1  0.4259848E-002  0.1342944E+03  0.7546771E-02  0.1221219E+00
         21   -1    0    0  504  502  0.00000000000E+00  0.00000000000E+00  0.31306034142E+02  0.31306034142E+02  0.00000000000E+00 0. -1.
         21   -1    0    0  502  503 -0.00000000000E+00 -0.00000000000E+00 -0.38789859408E+03  0.38789859408E+03  0.00000000000E+00 0. -1.
         25    2    1    2    0    0 -0.24367910566E+02  0.42621582733E+02 -0.12843302183E+03  0.18582260404E+03  0.12499841878E+03 0.  0.
          5    1    3    3  501    0 -0.68680965900E+02  0.17435590619E+02 -0.34184944295E+02  0.78674616705E+02  0.10000000000E+00 0. -1.
         -5    1    3    3    0  501  0.44313055334E+02  0.25185992114E+02 -0.94248077532E+02  0.10714798734E+03  0.10000000000E+00 0. -1.
         21    1    1    2  504  503  0.24367910566E+02 -0.42621582733E+02 -0.22815953811E+03  0.23338202418E+03  0.00000000000E+00 0. -1.
<mgrwt>
<rscale>  1 0.13429445E+03</rscale>
<asrwt>0</asrwt>
<pdfrwt beam="1">  1       21 0.48163132E-02 0.13429445E+03</pdfrwt>
<pdfrwt beam="2">  1       21 0.59676704E-01 0.13429445E+03</pdfrwt>
<totfact> 0.75521499E+05</totfact>
</mgrwt>
</event>
<event>
 6    1  0.4259848E-002  0.1333076E+03  0.7546771E-02  0.1222629E+00
         21   -1    0    0  503  502  0.00000000000E+00  0.00000000000E+00  0.33498363792E+02  0.33498363792E+02  0.00000000000E+00 0. -1.
         21   -1    0    0  504  503 -0.00000000000E+00 -0.00000000000E+00 -0.37484165423E+03  0.37484165423E+03  0.00000000000E+00 0. -1.
         25    2    1    2    0    0  0.14843769747E+01 -0.46308190641E+02 -0.11125576762E+03  0.17363398902E+03  0.12499705763E+03 0.  0.
          5    1    3    3  501    0  0.17159158769E+02  0.79667817255E+01  0.21929661200E+02  0.28962499566E+02  0.10000000000E+00 0. -1.
         -5    1    3    3    0  501 -0.15674781794E+02 -0.54274972367E+02 -0.13318542882E+03  0.14467148945E+03  0.10000000000E+00 0. -1.
         21    1    1    2  504  502 -0.14843769747E+01  0.46308190641E+02 -0.23008752282E+03  0.23470602901E+03  0.00000000000E+00 0. -1.
<mgrwt>
<rscale>  1 0.13330760E+03</rscale>
<asrwt>0</asrwt>
<pdfrwt beam="1">  1       21 0.51535944E-02 0.13330760E+03</pdfrwt>
<pdfrwt beam="2">  1       21 0.57667948E-01 0.13330760E+03</pdfrwt>
<totfact> 0.72473800E+05</totfact>
</mgrwt>
</event>
<event>
 6    1  0.4259848E-002  0.1270054E+03  0.7546771E-02  0.1231968E+00
         21   -1    0    0  504  502  0.00000000000E+00  0.00000000000E+00  0.42680106382E+02  0.42680106382E+02  0.00000000000E+00 0.  1.
         21   -1    0    0  502  503 -0.00000000000E+00 -0.00000000000E+00 -0.39387605647E+03  0.39387605647E+03  0.00000000000E+00 0.  1.
         25    2    1    2    0    0  0.21827097093E+02 -0.53495181815E+01 -0.53173008984E+02  0.13768710635E+03  0.12500132342E+03 0.  0.
          5    1    3    3  501    0  0.45392805373E+02  0.33549070438E+02 -0.69348250423E+02  0.89416087722E+02  0.10000000000E+00 0. -1.
         -5    1    3    3    0  501 -0.23565708280E+02 -0.38898588619E+02  0.16175241439E+02  0.48271018623E+02  0.10000000000E+00 0. -1.
         21    1    1    2  504  503 -0.21827097093E+02  0.53495181815E+01 -0.29802294111E+03  0.29886905651E+03  0.00000000000E+00 0.  1.
<mgrwt>
<rscale>  1 0.12700540E+03</rscale>
<asrwt>0</asrwt>
<pdfrwt beam="1">  1       21 0.65661704E-02 0.12700540E+03</pdfrwt>
<pdfrwt beam="2">  1       21 0.60596314E-01 0.12700540E+03</pdfrwt>
<totfact> 0.43315707E+05</totfact>
</mgrwt>
</event>
<event>
 6    1  0.4259848E-002  0.1341753E+03  0.7546771E-02  0.1221389E+00
         21   -1    0    0  503  502  0.00000000000E+00  0.00000000000E+00  0.15295998949E+03  0.15295998949E+03  0.00000000000E+00 0.  1.
         21   -1    0    0  504  503 -0.00000000000E+00 -0.00000000000E+00 -0.18777786383E+03  0.18777786383E+03  0.00000000000E+00 0.  1.
         25    2    1    2    0    0  0.44756300081E+01  0.48456486853E+02  0.11903873286E+03  0.17936896548E+03  0.12503976757E+03 0.  0.
          5    1    3    3  501    0  0.61411323436E+02  0.31533518728E+02  0.89503013422E+02  0.11303323786E+03  0.10000000000E+00 0. -1.
         -5    1    3    3    0  501 -0.56935693428E+02  0.16922968125E+02  0.29535719440E+02  0.66335727622E+02  0.10000000000E+00 0. -1.
         21    1    1    2  504  502 -0.44756300081E+01 -0.48456486853E+02 -0.15385660720E+03  0.16136888784E+03  0.00000000000E+00 0.  1.
<mgrwt>
<rscale>  1 0.13417528E+03</rscale>
<asrwt>0</asrwt>
<pdfrwt beam="1">  1       21 0.23532306E-01 0.13417528E+03</pdfrwt>
<pdfrwt beam="2">  1       21 0.28888902E-01 0.13417528E+03</pdfrwt>
<totfact> 0.19806197E+05</totfact>
</mgrwt>
</event>
<event>
 6    1  0.4259848E-002  0.1784965E+03  0.7546771E-02  0.1169266E+00
         21   -1    0    0  504  502  0.00000000000E+00  0.00000000000E+00  0.20947669536E+04  0.20947669536E+04  0.00000000000E+00 0.  1.
         21   -1    0    0  502  503 -0.00000000000E+00 -0.00000000000E+00 -0.12617736577E+02  0.12617736577E+02  0.00000000000E+00 0.  1.
         25    2    1    2    0    0  0.12664852832E+03  0.13969789740E+02  0.15475946427E+04  0.15578543474E+04  0.12500393881E+03 0.  0.
          5    1    3    3  501    0  0.14823142885E+03 -0.39284109083E+01  0.13782933422E+04  0.13862469246E+04  0.10000000000E+00 0.  1.
         -5    1    3    3    0  501 -0.21582900539E+02  0.17898200648E+02  0.16930130057E+03  0.17160742279E+03  0.10000000000E+00 0.  1.
         21    1    1    2  504  503 -0.12664852832E+03 -0.13969789740E+02  0.53455457432E+03  0.54953034281E+03  0.00000000000E+00 0.  1.
<mgrwt>
<rscale>  1 0.17849647E+03</rscale>
<asrwt>0</asrwt>
<pdfrwt beam="1">  1       21 0.32227156E+00 0.17849647E+03</pdfrwt>
<pdfrwt beam="2">  1       21 0.19411919E-02 0.17849647E+03</pdfrwt>
<totfact> 0.33292897E+04</totfact>
</mgrwt>
</event>
<event>
 6    1  0.4259848E-002  0.1271790E+03  0.7546771E-02  0.1231703E+00
         21   -1    0    0  504  502  0.00000000000E+00  0.00000000000E+00  0.71875192059E+02  0.71875192059E+02  0.00000000000E+00 0. -1.
         21   -1    0    0  502  503 -0.00000000000E+00 -0.00000000000E+00 -0.10898795766E+03  0.10898795766E+03  0.00000000000E+00 0. -1.
         25    2    1    2    0    0  0.30014839684E+01 -0.23244969611E+02  0.10686138439E+02  0.12762713986E+03  0.12500062302E+03 0.  0.
          5    1    3    3  501    0  0.12404389615E+01 -0.46242861668E+02  0.58476524892E+02  0.74561752310E+02  0.10000000000E+00 0.  1.
         -5    1    3    3    0  501  0.17610450068E+01  0.22997892056E+02 -0.47790386453E+02  0.53065387550E+02  0.10000000000E+00 0.  1.
         21    1    1    2  504  503 -0.30014839684E+01  0.23244969611E+02 -0.47798904043E+02  0.53236009861E+02  0.00000000000E+00 0. -1.
<mgrwt>
<rscale>  1 0.12717898E+03</rscale>
<asrwt>0</asrwt>
<pdfrwt beam="1">  1       21 0.11057722E-01 0.12717898E+03</pdfrwt>
<pdfrwt beam="2">  1       21 0.16767378E-01 0.12717898E+03</pdfrwt>
<totfact> 0.21569430E+06</totfact>
</mgrwt>
</event>
<event>
 6    1  0.4259848E-002  0.1412591E+03  0.7546771E-02  0.1211645E+00
         21   -1    0    0  504  502  0.00000000000E+00  0.00000000000E+00  0.35161597168E+03  0.35161597168E+03  0.00000000000E+00 0.  1.
         21   -1    0    0  502  503 -0.00000000000E+00 -0.00000000000E+00 -0.30623518320E+02  0.30623518320E+02  0.00000000000E+00 0.  1.
         25    2    1    2    0    0  0.19481447883E+02 -0.62840038996E+02  0.23089396702E+03  0.27067724480E+03  0.12500299811E+03 0.  0.
          5    1    3    3  501    0  0.79143126685E+01 -0.31425164037E+02 -0.46744582744E+01  0.32741988943E+02  0.10000000000E+00 0. -1.
         -5    1    3    3    0  501  0.11567135214E+02 -0.31414874959E+02  0.23556842529E+03  0.23793525586E+03  0.10000000000E+00 0. -1.
         21    1    1    2  504  503 -0.19481447883E+02  0.62840038996E+02  0.90098486343E+02  0.11156224520E+03  0.00000000000E+00 0.  1.
<mgrwt>
<rscale>  1 0.14125915E+03</rscale>
<asrwt>0</asrwt>
<pdfrwt beam="1">  1       21 0.54094762E-01 0.14125915E+03</pdfrwt>
<pdfrwt beam="2">  1       21 0.47113108E-02 0.14125915E+03</pdfrwt>
<totfact> 0.96386222E+05</totfact>
</mgrwt>
</event>
<event>
 6    1  0.4259848E-002  0.1259814E+03  0.7546771E-02  0.1233543E+00
         21   -1    0    0  503  502  0.00000000000E+00  0.00000000000E+00  0.62488116957E+01  0.62488116957E+01  0.00000000000E+00 0. -1.
         21   -1    0    0  504  503 -0.00000000000E+00 -0.00000000000E+00 -0.17479177491E+04  0.17479177491E+04  0.00000000000E+00 0. -1.
         25    2    1    2    0    0 -0.13355283025E+02 -0.82706993014E+01 -0.63449295625E+03  0.64687914495E+03  0.12499819433E+03 0.  0.
          5    1    3    3  501    0 -0.15142826639E+01  0.54921463490E+02 -0.19082381236E+03  0.19857592393E+03  0.10000000000E+00 0. -1.
         -5    1    3    3    0  501 -0.11841000361E+02 -0.63192162792E+02 -0.44366914390E+03  0.44830322102E+03  0.10000000000E+00 0. -1.
         21    1    1    2  504  502  0.13355283025E+02  0.82706993014E+01 -0.11071759812E+04  0.11072874159E+04  0.00000000000E+00 0. -1.
<mgrwt>
<rscale>  1 0.12598141E+03</rscale>
<asrwt>0</asrwt>
<pdfrwt beam="1">  1       21 0.96135537E-03 0.12598141E+03</pdfrwt>
<pdfrwt beam="2">  1       21 0.26891050E+00 0.12598141E+03</pdfrwt>
<totfact> 0.21633640E+05</totfact>
</mgrwt>
</event>
<event>
 6    1  0.4259848E-002  0.1276905E+03  0.7546771E-02  0.1230923E+00
         21   -1    0    0  503  502  0.00000000000E+00  0.00000000000E+00  0.45966486172E+03  0.45966486172E+03  0.00000000000E+00 0.  1.
         21   -1    0    0  504  503 -0.00000000000E+00 -0.00000000000E+00 -0.39340757883E+02  0.39340757883E+02  0.00000000000E+00 0.  1.
         25    2    1    2    0    0 -0.26051031238E+02 -0.17509388699E+01  0.44507439869E+03  0.46302925082E+03  0.12499257870E+03 0.  0.
          5    1    3    3  501    0  0.40541482731E+02 -0.25962818515E+02  0.26825495616E+03  0.27254065985E+03  0.10000000000E+00 0. -1.
         -5    1    3    3    0  501 -0.66592513968E+02  0.24211879645E+02  0.17681944253E+03  0.19048859097E+03  0.10000000000E+00 0. -1.
         21    1    1    2  504  502  0.26051031238E+02  0.17509388699E+01 -0.24750294854E+02  0.35976368783E+02  0.00000000000E+00 0.  1.
<mgrwt>
<rscale>  1 0.12769051E+03</rscale>
<asrwt>0</asrwt>
<pdfrwt beam="1">  1       21 0.70717668E-01 0.12769051E+03</pdfrwt>
<pdfrwt beam="2">  1       21 0.60524246E-02 0.12769051E+03</pdfrwt>
<totfact> 0.35663561E+05</totfact>
</mgrwt>
</event>
<event>
 6    1  0.4259848E-002  0.1294882E+03  0.7546771E-02  0.1228217E+00
         21   -1    0    0  503  502  0.00000000000E+00  0.00000000000E+00  0.13920538599E+03  0.13920538599E+03  0.00000000000E+00 0. -1.
         21   -1    0    0  504  503 -0.00000000000E+00 -0.00000000000E+00 -0.49504080469E+02  0.49504080469E+02  0.00000000000E+00 0. -1.
         25    2    1    2    0    0  0.32601487856E+02 -0.88163293297E+01  0.84291340743E+02  0.15450636145E+03  0.12500640356E+03 0.  0.
          5    1    3    3  501    0 -0.81197855618E+01 -0.17576851530E+01 -0.30967059870E+02  0.32062270220E+02  0.10000000000E+00 0. -1.
         -5    1    3    3    0  501  0.40721273418E+02 -0.70586441767E+01  0.11525840061E+03  0.12244409123E+03  0.10000000000E+00 0. -1.
         21    1    1    2  504  502 -0.32601487856E+02  0.88163293297E+01  0.54099647827E+01  0.34203105009E+02  0.00000000000E+00 0. -1.
<mgrwt>
<rscale>  1 0.12948817E+03</rscale>
<asrwt>0</asrwt>
<pdfrwt beam="1">  1       21 0.21416213E-01 0.12948817E+03</pdfrwt>
<pdfrwt beam="2">  1       21 0.76160124E-02 0.12948817E+03</pdfrwt>
<totfact> 0.26319557E+06</totfact>
</mgrwt>
</event>
<event>
 6    1  0.4259848E-002  0.1265847E+03  0.7546771E-02  0.1232613E+00
         21   -1    0    0  504  502  0.00000000000E+00  0.00000000000E+00  0.73154254476E+03  0.73154254476E+03  0.00000000000E+00 0. -1.
         21   -1    0    0  502  503 -0.00000000000E+00 -0.00000000000E+00 -0.41527566933E+02  0.41527566933E+02  0.00000000000E+00 0.  1.
         25    2    1    2    0    0  0.19962038012E+02 -0.39774591016E+00  0.72327979731E+03  0.73427334148E+03  0.12500013456E+03 0.  0.
          5    1    3    3  501    0  0.40087374267E+01  0.50100628676E+02  0.14287822925E+03  0.15146069247E+03  0.10000000000E+00 0. -1.
         -5    1    3    3    0  501  0.15953300585E+02 -0.50498374586E+02  0.58040156806E+03  0.58281264901E+03  0.10000000000E+00 0. -1.
         21    1    1    2  504  503 -0.19962038012E+02  0.39774591016E+00 -0.33264819488E+02  0.38796770213E+02  0.00000000000E+00 0.  1.
<mgrwt>
<rscale>  1 0.12658465E+03</rscale>
<asrwt>0</asrwt>
<pdfrwt beam="1">  1       21 0.11254500E+00 0.12658465E+03</pdfrwt>
<pdfrwt beam="2">  1       21 0.63888570E-02 0.12658465E+03</pdfrwt>
<totfact> 0.11250027E+05</totfact>
</mgrwt>
</event>
<event>
 6    1  0.4259848E-002  0.1267621E+03  0.7546771E-02  0.1232341E+00
         21   -1    0    0  503  502  0.00000000000E+00  0.00000000000E+00  0.10189348729E+04  0.10189348729E+04  0.00000000000E+00 0.  1.
         21   -1    0    0  504  503 -0.00000000000E+00 -0.00000000000E+00 -0.17692211286E+03  0.17692211286E+03  0.00000000000E+00 0.  1.
         25    2    1    2    0    0  0.21017798685E+02  0.11126451396E+01  0.10143496475E+04  0.10222396231E+04  0.12500261531E+03 0.  0.
          5    1    3    3  501    0  0.52917300171E+02  0.15771484025E+02  0.91858086599E+03  0.92023898946E+03  0.10000000000E+00 0. -1.
         -5    1    3    3    0  501 -0.31899501486E+02 -0.14658838886E+02  0.95768781496E+02  0.10200063363E+03  0.10000000000E+00 0. -1.
         21    1    1    2  504  502 -0.21017798685E+02 -0.11126451396E+01 -0.17233688745E+03  0.17361736266E+03  0.00000000000E+00 0.  1.
<mgrwt>
<rscale>  1 0.12676214E+03</rscale>
<asrwt>0</asrwt>
<pdfrwt beam="1">  1       21 0.15675921E+00 0.12676214E+03</pdfrwt>
<pdfrwt beam="2">  1       21 0.27218787E-01 0.12676214E+03</pdfrwt>
<totfact> 0.36634527E+03</totfact>
</mgrwt>
</event>
<event>
 6    1  0.4259848E-002  0.1294757E+03  0.7546771E-02  0.1228236E+00
         21   -1    0    0  504  502  0.00000000000E+00  0.00000000000E+00  0.55592781670E+02  0.55592781670E+02  0.00000000000E+00 0.  1.
         21   -1    0    0  502  503 -0.00000000000E+00 -0.00000000000E+00 -0.14721519362E+03  0.14721519362E+03  0.00000000000E+00 0.  1.
         25    2    1    2    0    0  0.15923756844E+02 -0.29757067170E+02 -0.30550833156E+02  0.13303128280E+03  0.12499967887E+03 0.  0.
          5    1    3    3  501    0 -0.32877399331E+02  0.25965275993E+02  0.16779521759E+02  0.45129605522E+02  0.10000000000E+00 0.  1.
         -5    1    3    3    0  501  0.48801156175E+02 -0.55722343163E+02 -0.47330354915E+02  0.87901677276E+02  0.10000000000E+00 0.  1.
         21    1    1    2  504  503 -0.15923756844E+02  0.29757067170E+02 -0.61071578792E+02  0.69776692489E+02  0.00000000000E+00 0.  1.
<mgrwt>
<rscale>  1 0.12947575E+03</rscale>
<asrwt>0</asrwt>
<pdfrwt beam="1">  1       21 0.85527357E-02 0.12947575E+03</pdfrwt>
<pdfrwt beam="2">  1       21 0.22648491E-01 0.12947575E+03</pdfrwt>
<totfact> 0.19410048E+06</totfact>
</mgrwt>
</event>
<event>
 6    1  0.4259848E-002  0.1270774E+03  0.7546771E-02  0.1231858E+00
         21   -1    0    0  504  502  0.00000000000E+00  0.00000000000E+00  0.40598235983E+02  0.40598235983E+02  0.00000000000E+00 0. -1.
         21   -1    0    0  502  503 -0.00000000000E+00 -0.00000000000E+00 -0.31589445532E+03  0.31589445532E+03  0.00000000000E+00 0.  1.
         25    2    1    2    0    0  0.22715164797E+02  0.29426255245E+01 -0.60971393182E+02  0.14094740868E+03  0.12499609382E+03 0.  0.
          5    1    3    3  501    0  0.15705229543E+02  0.62754985295E+02 -0.44485079120E+02  0.78509710729E+02  0.10000000000E+00 0. -1.
         -5    1    3    3    0  501  0.70099352540E+01 -0.59812359771E+02 -0.16486314062E+02  0.62437697947E+02  0.10000000000E+00 0. -1.
         21    1    1    2  504  503 -0.22715164797E+02 -0.29426255245E+01 -0.21432482616E+03  0.21554528263E+03  0.00000000000E+00 0.  1.
<mgrwt>
<rscale>  1 0.12707738E+03</rscale>
<asrwt>0</asrwt>
<pdfrwt beam="1">  1       21 0.62458821E-02 0.12707738E+03</pdfrwt>
<pdfrwt beam="2">  1       21 0.48599150E-01 0.12707738E+03</pdfrwt>
<totfact> 0.74769781E+05</totfact>
</mgrwt>
</event>
<event>
 6    1  0.4259848E-002  0.1752246E+03  0.7546771E-02  0.1172506E+00
         21   -1    0    0  503  502  0.00000000000E+00  0.00000000000E+00  0.10608557467E+03  0.10608557467E+03  0.00000000000E+00 0.  1.
         21   -1    0    0  504  503 -0.00000000000E+00 -0.00000000000E+00 -0.23165237677E+03  0.23165237677E+03  0.00000000000E+00 0.  1.
         25    2    1    2    0    0  0.71625872744E+02  0.99739788705E+02 -0.21046178790E+02  0.17648395367E+03  0.12500141265E+03 0.  0.
          5    1    3    3  501    0  0.71379042978E+02  0.71201978824E+02  0.40493989779E+02  0.10864834455E+03  0.10000000000E+00 0.  1.
         -5    1    3    3    0  501  0.24682976596E+00  0.28537809881E+02 -0.61540168569E+02  0.67835609124E+02  0.10000000000E+00 0.  1.
         21    1    1    2  504  502 -0.71625872744E+02 -0.99739788705E+02 -0.10452062332E+03  0.16125399777E+03  0.00000000000E+00 0.  1.
<mgrwt>
<rscale>  1 0.17522455E+03</rscale>
<asrwt>0</asrwt>
<pdfrwt beam="1">  1       21 0.16320858E-01 0.17522455E+03</pdfrwt>
<pdfrwt beam="2">  1       21 0.35638827E-01 0.17522455E+03</pdfrwt>
<totfact> 0.25637389E+05</totfact>
</mgrwt>
</event>
<event>
 6    1  0.4259848E-002  0.1259478E+03  0.7546771E-02  0.1233595E+00
         21   -1    0    0  504  502  0.00000000000E+00  0.00000000000E+00  0.88983431312E+01  0.88983431312E+01  0.00000000000E+00 0.  1.
         21   -1    0    0  502  503 -0.00000000000E+00 -0.00000000000E+00 -0.57328835461E+03  0.57328835461E+03  0.00000000000E+00 0.  1.
         25    2    1    2    0    0  0.15412497417E+02 -0.68155381789E+00 -0.47187490320E+03  0.48839408155E+03  0.12499938012E+03 0.  0.
          5    1    3    3  501    0 -0.12115545520E+00 -0.38338720676E+02 -0.43083506788E+02  0.57672096710E+02  0.10000000000E+00 0.  1.
         -5    1    3    3    0  501  0.15533652873E+02  0.37657166858E+02 -0.42879139642E+03  0.43072198484E+03  0.10000000000E+00 0.  1.
         21    1    1    2  504  503 -0.15412497417E+02  0.68155381789E+00 -0.92515108277E+02  0.93792616190E+02  0.00000000000E+00 0.  1.
<mgrwt>
<rscale>  1 0.12594783E+03</rscale>
<asrwt>0</asrwt>
<pdfrwt beam="1">  1       21 0.13689760E-02 0.12594783E+03</pdfrwt>
<pdfrwt beam="2">  1       21 0.88198198E-01 0.12594783E+03</pdfrwt>
<totfact> 0.24908978E+06</totfact>
</mgrwt>
</event>
<event>
 6    1  0.4259848E-002  0.1265024E+03  0.7546771E-02  0.1232740E+00
         21   -1    0    0  503  502  0.00000000000E+00  0.00000000000E+00  0.20693385805E+03  0.20693385805E+03  0.00000000000E+00 0. -1.
         21   -1    0    0  504  503 -0.00000000000E+00 -0.00000000000E+00 -0.30327640671E+02  0.30327640671E+02  0.00000000000E+00 0. -1.
         25    2    1    2    0    0  0.19081945555E+02 -0.34170611685E+01  0.17737116159E+03  0.21786092933E+03  0.12500823417E+03 0.  0.
          5    1    3    3  501    0  0.58826097169E+02 -0.14262051636E+02  0.35595213925E+02  0.70220688400E+02  0.10000000000E+00 0.  1.
         -5    1    3    3    0  501 -0.39744151614E+02  0.10844990467E+02  0.14177594766E+03  0.14764024093E+03  0.10000000000E+00 0.  1.
         21    1    1    2  504  502 -0.19081945555E+02  0.34170611685E+01 -0.76494420724E+00  0.19400569394E+02  0.00000000000E+00 0. -1.
<mgrwt>
<rscale>  1 0.12650239E+03</rscale>
<asrwt>0</asrwt>
<pdfrwt beam="1">  1       21 0.31835977E-01 0.12650239E+03</pdfrwt>
<pdfrwt beam="2">  1       21 0.46657910E-02 0.12650239E+03</pdfrwt>
<totfact> 0.28421839E+06</totfact>
</mgrwt>
</event>
<event>
 6    1  0.4259848E-002  0.1288056E+03  0.7546771E-02  0.1229239E+00
         21   -1    0    0  504  502  0.00000000000E+00  0.00000000000E+00  0.88924007922E+02  0.88924007922E+02  0.00000000000E+00 0.  1.
         21   -1    0    0  502  503 -0.00000000000E+00 -0.00000000000E+00 -0.81220145258E+02  0.81220145258E+02  0.00000000000E+00 0.  1.
         25    2    1    2    0    0  0.13082954671E+02 -0.28191527580E+02  0.29553953194E+02  0.13215267537E+03  0.12499987011E+03 0.  0.
          5    1    3    3  501    0 -0.51991900563E+02 -0.35479264346E+02  0.94164188690E+01  0.63644440975E+02  0.10000000000E+00 0. -1.
         -5    1    3    3    0  501  0.65074855233E+02  0.72877367664E+01  0.20137534325E+02  0.68508234392E+02  0.10000000000E+00 0. -1.
         21    1    1    2  504  503 -0.13082954671E+02  0.28191527580E+02 -0.21850090531E+02  0.37991477813E+02  0.00000000000E+00 0.  1.
<mgrwt>
<rscale>  1 0.12880564E+03</rscale>
<asrwt>0</asrwt>
<pdfrwt beam="1">  1       21 0.13680617E-01 0.12880564E+03</pdfrwt>
<pdfrwt beam="2">  1       21 0.12495407E-01 0.12880564E+03</pdfrwt>
<totfact> 0.25091564E+06</totfact>
</mgrwt>
</event>
<event>
 6    1  0.4259848E-002  0.1265284E+03  0.7546771E-02  0.1232700E+00
         21   -1    0    0  503  502  0.00000000000E+00  0.00000000000E+00  0.17216381524E+03  0.17216381524E+03  0.00000000000E+00 0.  1.
         21   -1    0    0  504  503 -0.00000000000E+00 -0.00000000000E+00 -0.37730830084E+02  0.37730830084E+02  0.00000000000E+00 0.  1.
         25    2    1    2    0    0  0.86706423243E+01 -0.17582536640E+02  0.14078428647E+03  0.18928725196E+03  0.12500049121E+03 0.  0.
          5    1    3    3  501    0  0.17578984290E+02 -0.50081013208E+02  0.97187792550E+01  0.53959181266E+02  0.10000000000E+00 0.  1.
         -5    1    3    3    0  501 -0.89083419657E+01  0.32498476568E+02  0.13106550721E+03  0.13532807069E+03  0.10000000000E+00 0.  1.
         21    1    1    2  504  502 -0.86706423243E+01  0.17582536640E+02 -0.63513013132E+01  0.20607393367E+02  0.00000000000E+00 0. -1.
<mgrwt>
<rscale>  1 0.12652845E+03</rscale>
<asrwt>0</asrwt>
<pdfrwt beam="1">  1       21 0.26486740E-01 0.12652845E+03</pdfrwt>
<pdfrwt beam="2">  1       21 0.58047432E-02 0.12652845E+03</pdfrwt>
<totfact> 0.28024482E+06</totfact>
</mgrwt>
</event>
<event>
 6    1  0.4259848E-002  0.1317748E+03  0.7546771E-02  0.1224846E+00
         21   -1    0    0  504  502  0.00000000000E+00  0.00000000000E+00  0.68849515886E+03  0.68849515886E+03  0.00000000000E+00 0.  1.
         21   -1    0    0  502  503 -0.00000000000E+00 -0.00000000000E+00 -0.10930241241E+02  0.10930241241E+02  0.00000000000E+00 0.  1.
         25    2    1    2    0    0 -0.28896409372E+02  0.30014882613E+02  0.50685506928E+03  0.52370474687E+03  0.12501481905E+03 0.  0.
          5    1    3    3  501    0 -0.25174867451E+02  0.35018521275E+02  0.46931496261E+02  0.63738890207E+02  0.10000000000E+00 0. -1.
         -5    1    3    3    0  501 -0.37215419211E+01 -0.50036386621E+01  0.45992357302E+03  0.45996585666E+03  0.10000000000E+00 0. -1.
         21    1    1    2  504  503  0.28896409372E+02 -0.30014882613E+02  0.17070984833E+03  0.17572065323E+03  0.00000000000E+00 0.  1.
<mgrwt>
<rscale>  1 0.13177481E+03</rscale>
<asrwt>0</asrwt>
<pdfrwt beam="1">  1       21 0.10592230E+00 0.13177481E+03</pdfrwt>
<pdfrwt beam="2">  1       21 0.16815761E-02 0.13177481E+03</pdfrwt>
<totfact> 0.11723058E+06</totfact>
</mgrwt>
</event>
<event>
 6    1  0.4259848E-002  0.1264540E+03  0.7546771E-02  0.1232814E+00
         21   -1    0    0  504  502  0.00000000000E+00  0.00000000000E+00  0.41493010701E+02  0.41493010701E+02  0.00000000000E+00 0. -1.
         21   -1    0    0  502  503 -0.00000000000E+00 -0.00000000000E+00 -0.12986305154E+03  0.12986305154E+03  0.00000000000E+00 0. -1.
         25    2    1    2    0    0  0.28078261460E+01 -0.18901720292E+02 -0.68611159880E+02  0.14386838692E+03  0.12500185030E+03 0.  0.
          5    1    3    3  501    0  0.41175668478E+02 -0.56697436501E+02 -0.52801555949E+02  0.87738527975E+02  0.10000000000E+00 0.  1.
         -5    1    3    3    0  501 -0.38367842332E+02  0.37795716210E+02 -0.15809603931E+02  0.56129858948E+02  0.10000000000E+00 0.  1.
         21    1    1    2  504  503 -0.28078261460E+01  0.18901720292E+02 -0.19758880956E+02  0.27487675316E+02  0.00000000000E+00 0. -1.
<mgrwt>
<rscale>  1 0.12645403E+03</rscale>
<asrwt>0</asrwt>
<pdfrwt beam="1">  1       21 0.63835401E-02 0.12645403E+03</pdfrwt>
<pdfrwt beam="2">  1       21 0.19978931E-01 0.12645403E+03</pdfrwt>
<totfact> 0.40448818E+06</totfact>
</mgrwt>
</event>
<event>
 6    1  0.4259848E-002  0.1273928E+03  0.7546771E-02  0.1231376E+00
         21   -1    0    0  503  502  0.00000000000E+00  0.00000000000E+00  0.35579575579E+02  0.35579575579E+02  0.00000000000E+00 0.  1.
         21   -1    0    0  504  503 -0.00000000000E+00 -0.00000000000E+00 -0.37880289675E+03  0.37880289675E+03  0.00000000000E+00 0.  1.
         25    2    1    2    0    0  0.54755279549E+00 -0.24599304143E+02 -0.80904313136E+02  0.15091200424E+03  0.12499399810E+03 0.  0.
          5    1    3    3  501    0 -0.24602011838E+02 -0.52918402099E+02  0.34350139505E+01  0.58458751167E+02  0.10000000000E+00 0. -1.
         -5    1    3    3    0  501  0.25149564634E+02  0.28319097956E+02 -0.84339327086E+02  0.92453253073E+02  0.10000000000E+00 0. -1.
         21    1    1    2  504  502 -0.54755279549E+00  0.24599304143E+02 -0.26231900803E+03  0.26347046809E+03  0.00000000000E+00 0.  1.
<mgrwt>
<rscale>  1 0.12739280E+03</rscale>
<asrwt>0</asrwt>
<pdfrwt beam="1">  1       21 0.54737812E-02 0.12739280E+03</pdfrwt>
<pdfrwt beam="2">  1       21 0.58277365E-01 0.12739280E+03</pdfrwt>
<totfact> 0.64048141E+05</totfact>
</mgrwt>
</event>
<event>
 6    1  0.4259848E-002  0.1272018E+03  0.7546771E-02  0.1231668E+00
         21   -1    0    0  504  502  0.00000000000E+00  0.00000000000E+00  0.25653086550E+03  0.25653086550E+03  0.00000000000E+00 0.  1.
         21   -1    0    0  502  503 -0.00000000000E+00 -0.00000000000E+00 -0.22192168606E+02  0.22192168606E+02  0.00000000000E+00 0.  1.
         25    2    1    2    0    0  0.34188310800E+01 -0.23322870277E+02  0.19336406775E+03  0.23145184925E+03  0.12499860456E+03 0.  0.
          5    1    3    3  501    0  0.49099380387E+02 -0.53203704428E+02  0.11691388965E+03  0.13751454800E+03  0.10000000000E+00 0.  1.
         -5    1    3    3    0  501 -0.45680549307E+02  0.29880834151E+02  0.76450178099E+02  0.93937301249E+02  0.10000000000E+00 0.  1.
         21    1    1    2  504  503 -0.34188310800E+01  0.23322870277E+02  0.40974629142E+02  0.47271184851E+02  0.00000000000E+00 0.  1.
<mgrwt>
<rscale>  1 0.12720179E+03</rscale>
<asrwt>0</asrwt>
<pdfrwt beam="1">  1       21 0.39466285E-01 0.12720179E+03</pdfrwt>
<pdfrwt beam="2">  1       21 0.34141800E-02 0.12720179E+03</pdfrwt>
<totfact> 0.31292938E+06</totfact>
</mgrwt>
</event>
<event>
 6    1  0.4259848E-002  0.1275585E+03  0.7546771E-02  0.1231124E+00
         21   -1    0    0  503  502  0.00000000000E+00  0.00000000000E+00  0.39311996123E+02  0.39311996123E+02  0.00000000000E+00 0.  1.
         21   -1    0    0  504  503 -0.00000000000E+00 -0.00000000000E+00 -0.15990639612E+03  0.15990639612E+03  0.00000000000E+00 0.  1.
         25    2    1    2    0    0  0.24799934777E+02  0.56039332078E+01 -0.77715490166E+02  0.14936819926E+03  0.12499888282E+03 0.  0.
          5    1    3    3  501    0  0.22432418350E+02 -0.31318239368E+02 -0.99316295048E+02  0.10652596853E+03  0.10000000000E+00 0.  1.
         -5    1    3    3    0  501  0.23675164266E+01  0.36922172576E+02  0.21600804882E+02  0.42842230723E+02  0.10000000000E+00 0.  1.
         21    1    1    2  504  502 -0.24799934777E+02 -0.56039332078E+01 -0.42878909827E+02  0.49850192982E+02  0.00000000000E+00 0.  1.
<mgrwt>
<rscale>  1 0.12755846E+03</rscale>
<asrwt>0</asrwt>
<pdfrwt beam="1">  1       21 0.60479995E-02 0.12755846E+03</pdfrwt>
<pdfrwt beam="2">  1       21 0.24600984E-01 0.12755846E+03</pdfrwt>
<totfact> 0.30074226E+06</totfact>
</mgrwt>
</event>
<event>
 6    1  0.4259848E-002  0.1920375E+03  0.7546771E-02  0.1156636E+00
         21   -1    0    0  503  502  0.00000000000E+00  0.00000000000E+00  0.17507942157E+03  0.17507942157E+03  0.00000000000E+00 0. -1.
         21   -1    0    0  504  503 -0.00000000000E+00 -0.00000000000E+00 -0.26342271763E+03  0.26342271763E+03  0.00000000000E+00 0. -1.
         25    2    1    2    0    0 -0.14564116402E+03  0.68053379232E+01  0.86690919062E+02  0.21069819335E+03  0.12498300665E+03 0.  0.
          5    1    3    3  501    0 -0.46543558354E+02  0.37085032232E+01  0.10028778870E+03  0.11062416726E+03  0.10000000000E+00 0.  1.
         -5    1    3    3    0  501 -0.99097605670E+02  0.30968347000E+01 -0.13596869635E+02  0.10007402609E+03  0.10000000000E+00 0.  1.
         21    1    1    2  504  502  0.14564116402E+03 -0.68053379232E+01 -0.17503421512E+03  0.22780394585E+03  0.00000000000E+00 0. -1.
<mgrwt>
<rscale>  1 0.19203753E+03</rscale>
<asrwt>0</asrwt>
<pdfrwt beam="1">  1       21 0.26935296E-01 0.19203753E+03</pdfrwt>
<pdfrwt beam="2">  1       21 0.40526572E-01 0.19203753E+03</pdfrwt>
<totfact> 0.77046586E+04</totfact>
</mgrwt>
</event>
<event>
 6    1  0.4259848E-002  0.1283785E+03  0.7546771E-02  0.1229882E+00
         21   -1    0    0  504  502  0.00000000000E+00  0.00000000000E+00  0.35814169989E+02  0.35814169989E+02  0.00000000000E+00 0.  1.
         21   -1    0    0  502  503 -0.00000000000E+00 -0.00000000000E+00 -0.25390480972E+03  0.25390480972E+03  0.00000000000E+00 0. -1.
         25    2    1    2    0    0  0.20548388376E+02 -0.20831662282E+02 -0.86228376916E+02  0.15464918008E+03  0.12499936598E+03 0.  0.
          5    1    3    3  501    0  0.42244030721E+02  0.26615196606E+02  0.43515816930E+01  0.50118590216E+02  0.10000000000E+00 0.  1.
         -5    1    3    3    0  501 -0.21695642345E+02 -0.47446858887E+02 -0.90579958609E+02  0.10453058986E+03  0.10000000000E+00 0.  1.
         21    1    1    2  504  503 -0.20548388376E+02  0.20831662282E+02 -0.13186226282E+03  0.13506979963E+03  0.00000000000E+00 0. -1.
<mgrwt>
<rscale>  1 0.12837849E+03</rscale>
<asrwt>0</asrwt>
<pdfrwt beam="1">  1       21 0.55098720E-02 0.12837849E+03</pdfrwt>
<pdfrwt beam="2">  1       21 0.39062280E-01 0.12837849E+03</pdfrwt>
<totfact> 0.14382712E+06</totfact>
</mgrwt>
</event>
<event>
 6    1  0.4259848E-002  0.1525198E+03  0.7546771E-02  0.1197410E+00
         21   -1    0    0  504  502  0.00000000000E+00  0.00000000000E+00  0.79110183568E+02  0.79110183568E+02  0.00000000000E+00 0.  1.
         21   -1    0    0  502  503 -0.00000000000E+00 -0.00000000000E+00 -0.50256898969E+03  0.50256898969E+03  0.00000000000E+00 0.  1.
         25    2    1    2    0    0 -0.35339440660E+02 -0.79942062505E+02 -0.33314826722E+01  0.15255614040E+03  0.12499067074E+03 0.  0.
          5    1    3    3  501    0 -0.34559653930E+01 -0.10491290833E+03 -0.23113845759E+02  0.10748451933E+03  0.10000000000E+00 0.  1.
         -5    1    3    3    0  501 -0.31883475267E+02  0.24970845821E+02  0.19782363087E+02  0.45071621065E+02  0.10000000000E+00 0.  1.
         21    1    1    2  504  503  0.35339440660E+02  0.79942062505E+02 -0.42012732345E+03  0.42912303287E+03  0.00000000000E+00 0.  1.
<mgrwt>
<rscale>  1 0.15251976E+03</rscale>
<asrwt>0</asrwt>
<pdfrwt beam="1">  1       21 0.12170797E-01 0.15251976E+03</pdfrwt>
<pdfrwt beam="2">  1       21 0.77318306E-01 0.15251976E+03</pdfrwt>
<totfact> 0.86433251E+04</totfact>
</mgrwt>
</event>
<event>
 6    1  0.4259848E-002  0.2145810E+03  0.7546771E-02  0.1137989E+00
         21   -1    0    0  503  502  0.00000000000E+00  0.00000000000E+00  0.10355727990E+03  0.10355727990E+03  0.00000000000E+00 0.  1.
         21   -1    0    0  504  503 -0.00000000000E+00 -0.00000000000E+00 -0.54662309797E+03  0.54662309797E+03  0.00000000000E+00 0.  1.
         25    2    1    2    0    0  0.11109893202E+03  0.13446566110E+03 -0.50258853990E+02  0.22038822142E+03  0.12498411510E+03 0.  0.
          5    1    3    3  501    0  0.10228898222E+03  0.10695068095E+03 -0.88519491460E+02  0.17244475756E+03  0.10000000000E+00 0. -1.
         -5    1    3    3    0  501  0.88099497937E+01  0.27514980146E+02  0.38260637470E+02  0.47943463865E+02  0.10000000000E+00 0. -1.
         21    1    1    2  504  502 -0.11109893202E+03 -0.13446566110E+03 -0.39280696408E+03  0.42979215644E+03  0.00000000000E+00 0.  1.
<mgrwt>
<rscale>  1 0.21458102E+03</rscale>
<asrwt>0</asrwt>
<pdfrwt beam="1">  1       21 0.15931889E-01 0.21458102E+03</pdfrwt>
<pdfrwt beam="2">  1       21 0.84095860E-01 0.21458102E+03</pdfrwt>
<totfact> 0.42669247E+04</totfact>
</mgrwt>
</event>
<event>
 6    1  0.4259848E-002  0.1263689E+03  0.7546771E-02  0.1232945E+00
         21   -1    0    0  503  502  0.00000000000E+00  0.00000000000E+00  0.44363808756E+02  0.44363808756E+02  0.00000000000E+00 0.  1.
         21   -1    0    0  504  503 -0.00000000000E+00 -0.00000000000E+00 -0.13730479290E+03  0.13730479290E+03  0.00000000000E+00 0.  1.
         25    2    1    2    0    0  0.16764608628E+02  0.80021581687E+01 -0.51885588455E+02  0.13660606563E+03  0.12499606490E+03 0.  0.
          5    1    3    3  501    0  0.59847879077E+02 -0.20730674064E+02 -0.56153452431E+02  0.84644844480E+02  0.10000000000E+00 0.  1.
         -5    1    3    3    0  501 -0.43083270449E+02  0.28732832233E+02  0.42678639756E+01  0.51961221152E+02  0.10000000000E+00 0.  1.
         21    1    1    2  504  502 -0.16764608628E+02 -0.80021581687E+01 -0.41055395688E+02  0.45062536024E+02  0.00000000000E+00 0.  1.
<mgrwt>
<rscale>  1 0.12636892E+03</rscale>
<asrwt>0</asrwt>
<pdfrwt beam="1">  1       21 0.68252014E-02 0.12636892E+03</pdfrwt>
<pdfrwt beam="2">  1       21 0.21123814E-01 0.12636892E+03</pdfrwt>
<totfact> 0.32549676E+06</totfact>
</mgrwt>
</event>
<event>
 6    1  0.4259848E-002  0.1265364E+03  0.7546771E-02  0.1232687E+00
         21   -1    0    0  503  502  0.00000000000E+00  0.00000000000E+00  0.44608380019E+03  0.44608380019E+03  0.00000000000E+00 0. -1.
         21   -1    0    0  504  503 -0.00000000000E+00 -0.00000000000E+00 -0.14893078225E+02  0.14893078225E+02  0.00000000000E+00 0. -1.
         25    2    1    2    0    0  0.85452380583E+01  0.17705623803E+02  0.41935376860E+03  0.43802859585E+03  0.12499982935E+03 0.  0.
          5    1    3    3  501    0 -0.36544911265E+02  0.18283855189E+02  0.36554887205E+03  0.36782579812E+03  0.10000000000E+00 0.  1.
         -5    1    3    3    0  501  0.45090149324E+02 -0.57823138608E+00  0.53804896542E+02  0.70202797733E+02  0.10000000000E+00 0.  1.
         21    1    1    2  504  502 -0.85452380583E+01 -0.17705623803E+02  0.11836953370E+02  0.22948282568E+02  0.00000000000E+00 0. -1.
<mgrwt>
<rscale>  1 0.12653643E+03</rscale>
<asrwt>0</asrwt>
<pdfrwt beam="1">  1       21 0.68628267E-01 0.12653643E+03</pdfrwt>
<pdfrwt beam="2">  1       21 0.22912431E-02 0.12653643E+03</pdfrwt>
<totfact> 0.19024397E+06</totfact>
</mgrwt>
</event>
<event>
 6    1  0.4259848E-002  0.1259267E+03  0.7546771E-02  0.1233628E+00
         21   -1    0    0  503  502  0.00000000000E+00  0.00000000000E+00  0.30503047435E+01  0.30503047435E+01  0.00000000000E+00 0. -1.
         21   -1    0    0  504  503 -0.00000000000E+00 -0.00000000000E+00 -0.21490576829E+04  0.21490576829E+04  0.00000000000E+00 0. -1.
         25    2    1    2    0    0 -0.12379700297E+02  0.88994796750E+01 -0.13276640809E+04  0.13336226733E+04  0.12500026068E+03 0.  0.
          5    1    3    3  501    0  0.46995104323E+02  0.26793468541E+02 -0.88296561266E+03  0.88462122568E+03  0.10000000000E+00 0.  1.
         -5    1    3    3    0  501 -0.59374804620E+02 -0.17893988866E+02 -0.44469846829E+03  0.44900144762E+03  0.10000000000E+00 0.  1.
         21    1    1    2  504  502  0.12379700297E+02 -0.88994796750E+01 -0.81834329722E+03  0.81848531436E+03  0.00000000000E+00 0. -1.
<mgrwt>
<rscale>  1 0.12592666E+03</rscale>
<asrwt>0</asrwt>
<pdfrwt beam="1">  1       21 0.46927592E-03 0.12592666E+03</pdfrwt>
<pdfrwt beam="2">  1       21 0.33062548E+00 0.12592666E+03</pdfrwt>
<totfact> 0.29706606E+05</totfact>
</mgrwt>
</event>
<event>
 6    1  0.4259848E-002  0.1947088E+03  0.7546771E-02  0.1154282E+00
         21   -1    0    0  504  502  0.00000000000E+00  0.00000000000E+00  0.28809801117E+03  0.28809801117E+03  0.00000000000E+00 0.  1.
         21   -1    0    0  502  503 -0.00000000000E+00 -0.00000000000E+00 -0.25010426725E+03  0.25010426725E+03  0.00000000000E+00 0. -1.
         25    2    1    2    0    0  0.14719345570E+03 -0.24906460821E+02  0.22588744213E+03  0.29822251466E+03  0.12500114618E+03 0.  0.
          5    1    3    3  501    0  0.74825730044E+02 -0.69355664817E+02  0.80962214810E+02  0.13024587650E+03  0.10000000000E+00 0. -1.
         -5    1    3    3    0  501  0.72367725654E+02  0.44449203996E+02  0.14492522732E+03  0.16797663815E+03  0.10000000000E+00 0. -1.
         21    1    1    2  504  503 -0.14719345570E+03  0.24906460821E+02 -0.18789369821E+03  0.23997976377E+03  0.00000000000E+00 0. -1.
<mgrwt>
<rscale>  1 0.19470884E+03</rscale>
<asrwt>0</asrwt>
<pdfrwt beam="1">  1       21 0.44322771E-01 0.19470884E+03</pdfrwt>
<pdfrwt beam="2">  1       21 0.38477579E-01 0.19470884E+03</pdfrwt>
<totfact> 0.31805255E+04</totfact>
</mgrwt>
</event>
<event>
 6    1  0.4259848E-002  0.1267486E+03  0.7546771E-02  0.1232362E+00
         21   -1    0    0  504  502  0.00000000000E+00  0.00000000000E+00  0.56370205088E+03  0.56370205088E+03  0.00000000000E+00 0. -1.
         21   -1    0    0  502  503 -0.00000000000E+00 -0.00000000000E+00 -0.46068188795E+03  0.46068188795E+03  0.00000000000E+00 0.  1.
         25    2    1    2    0    0 -0.13524020071E+02  0.16021734875E+02  0.55633181834E+03  0.57058767173E+03  0.12500241568E+03 0.  0.
          5    1    3    3  501    0  0.14196201651E+02  0.65052838863E+02  0.36946286501E+03  0.37541473414E+03  0.10000000000E+00 0.  1.
         -5    1    3    3    0  501 -0.27720221722E+02 -0.49031103988E+02  0.18686895333E+03  0.19517293759E+03  0.10000000000E+00 0.  1.
         21    1    1    2  504  503  0.13524020071E+02 -0.16021734875E+02 -0.45331165541E+03  0.45379626711E+03  0.00000000000E+00 0.  1.
<mgrwt>
<rscale>  1 0.12674857E+03</rscale>
<asrwt>0</asrwt>
<pdfrwt beam="1">  1       21 0.86723392E-01 0.12674857E+03</pdfrwt>
<pdfrwt beam="2">  1       21 0.70874137E-01 0.12674857E+03</pdfrwt>
<totfact> 0.22098151E+03</totfact>
</mgrwt>
</event>
<event>
 6    1  0.4259848E-002  0.1461934E+03  0.7546771E-02  0.1205230E+00
         21   -1    0    0  503  502  0.00000000000E+00  0.00000000000E+00  0.41277943916E+02  0.41277943916E+02  0.00000000000E+00 0.  1.
         21   -1    0    0  504  503 -0.00000000000E+00 -0.00000000000E+00 -0.47278839049E+03  0.47278839049E+03  0.00000000000E+00 0.  1.
         25    2    1    2    0    0 -0.57540083153E+02 -0.49360474059E+02 -0.10791472130E+03  0.18170882963E+03  0.12500077649E+03 0.  0.
          5    1    3    3  501    0 -0.57603897086E+02 -0.48129975278E+01 -0.12198841000E+03  0.13499094813E+03  0.10000000000E+00 0.  1.
         -5    1    3    3    0  501  0.63813933274E-01 -0.44547476531E+02  0.14073688696E+02  0.46717881491E+02  0.10000000000E+00 0.  1.
         21    1    1    2  504  502  0.57540083153E+02  0.49360474059E+02 -0.32359572528E+03  0.33235750478E+03  0.00000000000E+00 0.  1.
<mgrwt>
<rscale>  1 0.14619341E+03</rscale>
<asrwt>0</asrwt>
<pdfrwt beam="1">  1       21 0.63504528E-02 0.14619341E+03</pdfrwt>
<pdfrwt beam="2">  1       21 0.72736677E-01 0.14619341E+03</pdfrwt>
<totfact> 0.30788132E+05</totfact>
</mgrwt>
</event>
<event>
 6    1  0.4259848E-002  0.1296902E+03  0.7546771E-02  0.1227916E+00
         21   -1    0    0  503  502  0.00000000000E+00  0.00000000000E+00  0.18566713838E+02  0.18566713838E+02  0.00000000000E+00 0.  1.
         21   -1    0    0  504  503 -0.00000000000E+00 -0.00000000000E+00 -0.40453567097E+03  0.40453567097E+03  0.00000000000E+00 0.  1.
         25    2    1    2    0    0 -0.22704841288E+02 -0.26126678340E+02 -0.23698946921E+03  0.27015467819E+03  0.12498571315E+03 0.  0.
          5    1    3    3  501    0 -0.69645860382E+01 -0.57788804885E+02 -0.22562812940E+03  0.23301526604E+03  0.10000000000E+00 0. -1.
         -5    1    3    3    0  501 -0.15740255250E+02  0.31662126545E+02 -0.11361339807E+02  0.37139412150E+02  0.10000000000E+00 0. -1.
         21    1    1    2  504  502  0.22704841288E+02  0.26126678340E+02 -0.14897948793E+03  0.15294770662E+03  0.00000000000E+00 0.  1.
<mgrwt>
<rscale>  1 0.12969018E+03</rscale>
<asrwt>0</asrwt>
<pdfrwt beam="1">  1       21 0.28564176E-02 0.12969018E+03</pdfrwt>
<pdfrwt beam="2">  1       21 0.62236255E-01 0.12969018E+03</pdfrwt>
<totfact> 0.16406190E+06</totfact>
</mgrwt>
</event>
<event>
 6    1  0.4259848E-002  0.1348490E+03  0.7546771E-02  0.1220433E+00
         21   -1    0    0  503  502  0.00000000000E+00  0.00000000000E+00  0.31697939143E+03  0.31697939143E+03  0.00000000000E+00 0.  1.
         21   -1    0    0  504  503 -0.00000000000E+00 -0.00000000000E+00 -0.45556424491E+02  0.45556424491E+02  0.00000000000E+00 0. -1.
         25    2    1    2    0    0 -0.10843568371E+02 -0.49413653709E+02  0.28041444502E+03  0.31115353468E+03  0.12499987607E+03 0.  0.
          5    1    3    3  501    0  0.17647498534E+02  0.27824352107E+02  0.17144231055E+03  0.17457979443E+03  0.10000000000E+00 0.  1.
         -5    1    3    3    0  501 -0.28491066905E+02 -0.77238005816E+02  0.10897213447E+03  0.13657374025E+03  0.10000000000E+00 0.  1.
         21    1    1    2  504  502  0.10843568371E+02  0.49413653709E+02 -0.89914780795E+01  0.51382281245E+02  0.00000000000E+00 0. -1.
<mgrwt>
<rscale>  1 0.13484903E+03</rscale>
<asrwt>0</asrwt>
<pdfrwt beam="1">  1       21 0.48766059E-01 0.13484903E+03</pdfrwt>
<pdfrwt beam="2">  1       21 0.70086809E-02 0.13484903E+03</pdfrwt>
<totfact> 0.60982067E+05</totfact>
</mgrwt>
</event>
<event>
 6    1  0.4259848E-002  0.1297973E+03  0.7546771E-02  0.1227757E+00
         21   -1    0    0  503  502  0.00000000000E+00  0.00000000000E+00  0.37093772726E+03  0.37093772726E+03  0.00000000000E+00 0.  1.
         21   -1    0    0  504  503 -0.00000000000E+00 -0.00000000000E+00 -0.10228104599E+04  0.10228104599E+04  0.00000000000E+00 0.  1.
         25    2    1    2    0    0  0.15936319607E+02 -0.31113225025E+02  0.35927186569E+03  0.38199950405E+03  0.12500139424E+03 0.  0.
          5    1    3    3  501    0 -0.28429505647E+02 -0.40387319632E+02  0.31427381221E+03  0.31813112299E+03  0.10000000000E+00 0. -1.
         -5    1    3    3    0  501  0.44365825254E+02  0.92740946073E+01  0.44998053481E+02  0.63868381053E+02  0.10000000000E+00 0. -1.
         21    1    1    2  504  502 -0.15936319607E+02  0.31113225025E+02 -0.10111445984E+04  0.10117486831E+04  0.00000000000E+00 0.  1.
<mgrwt>
<rscale>  1 0.12979733E+03</rscale>
<asrwt>0</asrwt>
<pdfrwt beam="1">  1       21 0.57067343E-01 0.12979733E+03</pdfrwt>
<pdfrwt beam="2">  1       21 0.15735545E+00 0.12979733E+03</pdfrwt>
<totfact> 0.82247428E+02</totfact>
</mgrwt>
</event>
<event>
 6    1  0.4259848E-002  0.1345676E+03  0.7546771E-02  0.1220831E+00
         21   -1    0    0  503  502  0.00000000000E+00  0.00000000000E+00  0.12995146252E+03  0.12995146252E+03  0.00000000000E+00 0. -1.
         21   -1    0    0  504  503 -0.00000000000E+00 -0.00000000000E+00 -0.69260391403E+02  0.69260391403E+02  0.00000000000E+00 0. -1.
         25    2    1    2    0    0  0.49190978678E+02  0.80264011679E+01  0.64496093162E+02  0.14922531881E+03  0.12499709694E+03 0.  0.
          5    1    3    3  501    0 -0.35204250815E+02  0.24050478357E+01  0.53276114591E+02  0.63902096339E+02  0.10000000000E+00 0.  1.
         -5    1    3    3    0  501  0.84395229493E+02  0.56213533322E+01  0.11219978571E+02  0.85323222476E+02  0.10000000000E+00 0.  1.
         21    1    1    2  504  502 -0.49190978678E+02 -0.80264011679E+01 -0.38050220487E+01  0.49986535105E+02  0.00000000000E+00 0. -1.
<mgrwt>
<rscale>  1 0.13456764E+03</rscale>
<asrwt>0</asrwt>
<pdfrwt beam="1">  1       21 0.19992533E-01 0.13456764E+03</pdfrwt>
<pdfrwt beam="2">  1       21 0.10655445E-01 0.13456764E+03</pdfrwt>
<totfact> 0.16697185E+06</totfact>
</mgrwt>
</event>
<event>
 6    1  0.4259848E-002  0.1639759E+03  0.7546771E-02  0.1184280E+00
         21   -1    0    0  503  502  0.00000000000E+00  0.00000000000E+00  0.68810109137E+02  0.68810109137E+02  0.00000000000E+00 0. -1.
         21   -1    0    0  504  503 -0.00000000000E+00 -0.00000000000E+00 -0.27413503677E+03  0.27413503677E+03  0.00000000000E+00 0.  1.
         25    2    1    2    0    0 -0.10440890489E+03  0.19068034664E+02 -0.15438783786E+03  0.22521920789E+03  0.12499311084E+03 0.  0.
          5    1    3    3  501    0 -0.70555136700E+02 -0.32264456395E+02 -0.14298976554E+03  0.16268099308E+03  0.10000000000E+00 0.  1.
         -5    1    3    3    0  501 -0.33853768192E+02  0.51332491059E+02 -0.11398072322E+02  0.62538214811E+02  0.10000000000E+00 0.  1.
         21    1    1    2  504  502  0.10440890489E+03 -0.19068034664E+02 -0.50937089772E+02  0.11772593801E+03  0.00000000000E+00 0.  1.
<mgrwt>
<rscale>  1 0.16397587E+03</rscale>
<asrwt>0</asrwt>
<pdfrwt beam="1">  1       21 0.10586171E-01 0.16397587E+03</pdfrwt>
<pdfrwt beam="2">  1       21 0.42174620E-01 0.16397587E+03</pdfrwt>
<totfact> 0.39921881E+05</totfact>
</mgrwt>
</event>
<event>
 6    1  0.4259848E-002  0.1303106E+03  0.7546771E-02  0.1226996E+00
         21   -1    0    0  503  502  0.00000000000E+00  0.00000000000E+00  0.57628193621E+03  0.57628193621E+03  0.00000000000E+00 0.  1.
         21   -1    0    0  504  503 -0.00000000000E+00 -0.00000000000E+00 -0.29480756102E+03  0.29480756102E+03  0.00000000000E+00 0.  1.
         25    2    1    2    0    0 -0.35565517738E+02  0.96081914456E+01  0.56771975693E+03  0.58248311830E+03  0.12499454906E+03 0.  0.
          5    1    3    3  501    0 -0.74723745906E+02 -0.17730870716E+02  0.42776497140E+03  0.43460430593E+03  0.10000000000E+00 0. -1.
         -5    1    3    3    0  501  0.39158228167E+02  0.27339062161E+02  0.13995478554E+03  0.14787881237E+03  0.10000000000E+00 0. -1.
         21    1    1    2  504  502  0.35565517738E+02 -0.96081914456E+01 -0.28624538174E+03  0.28860637893E+03  0.00000000000E+00 0.  1.
<mgrwt>
<rscale>  1 0.13031063E+03</rscale>
<asrwt>0</asrwt>
<pdfrwt beam="1">  1       21 0.88658760E-01 0.13031063E+03</pdfrwt>
<pdfrwt beam="2">  1       21 0.45355009E-01 0.13031063E+03</pdfrwt>
<totfact> 0.53575328E+03</totfact>
</mgrwt>
</event>
<event>
 6    1  0.4259848E-002  0.1370337E+03  0.7546771E-02  0.1217377E+00
         21   -1    0    0  503  502  0.00000000000E+00  0.00000000000E+00  0.20600696361E+03  0.20600696361E+03  0.00000000000E+00 0.  1.
         21   -1    0    0  504  503 -0.00000000000E+00 -0.00000000000E+00 -0.10621856467E+03  0.10621856467E+03  0.00000000000E+00 0.  1.
         25    2    1    2    0    0  0.29227728242E+02 -0.47928067034E+02  0.17253791241E+03  0.22033509669E+03  0.12500745541E+03 0.  0.
          5    1    3    3  501    0 -0.46908867024E+01  0.37131347150E+02  0.20036794039E+02  0.42452614461E+02  0.10000000000E+00 0.  1.
         -5    1    3    3    0  501  0.33918614944E+02 -0.85059414183E+02  0.15250111837E+03  0.17788248223E+03  0.10000000000E+00 0.  1.
         21    1    1    2  504  502 -0.29227728242E+02  0.47928067034E+02 -0.72749513469E+02  0.91890431589E+02  0.00000000000E+00 0.  1.
<mgrwt>
<rscale>  1 0.13703366E+03</rscale>
<asrwt>0</asrwt>
<pdfrwt beam="1">  1       21 0.31693379E-01 0.13703366E+03</pdfrwt>
<pdfrwt beam="2">  1       21 0.16341318E-01 0.13703366E+03</pdfrwt>
<totfact> 0.32467121E+05</totfact>
</mgrwt>
</event>
<event>
 6    1  0.4259848E-002  0.1269565E+03  0.7546771E-02  0.1232043E+00
         21   -1    0    0  504  502  0.00000000000E+00  0.00000000000E+00  0.45972519795E+02  0.45972519795E+02  0.00000000000E+00 0. -1.
         21   -1    0    0  502  503 -0.00000000000E+00 -0.00000000000E+00 -0.13068256608E+03  0.13068256608E+03  0.00000000000E+00 0. -1.
         25    2    1    2    0    0 -0.46148421577E+01  0.21730055465E+02 -0.52175409209E+02  0.13725972208E+03  0.12499786359E+03 0.  0.
          5    1    3    3  501    0 -0.49131263673E+02  0.53071168235E+02 -0.33493675442E+02  0.79701105780E+02  0.10000000000E+00 0. -1.
         -5    1    3    3    0  501  0.44516421515E+02 -0.31341112770E+02 -0.18681733767E+02  0.57558616303E+02  0.10000000000E+00 0. -1.
         21    1    1    2  504  503  0.46148421577E+01 -0.21730055465E+02 -0.32534637075E+02  0.39395363792E+02  0.00000000000E+00 0.  1.
<mgrwt>
<rscale>  1 0.12695652E+03</rscale>
<asrwt>0</asrwt>
<pdfrwt beam="1">  1       21 0.70726955E-02 0.12695652E+03</pdfrwt>
<pdfrwt beam="2">  1       21 0.20105010E-01 0.12695652E+03</pdfrwt>
<totfact> 0.33571941E+06</totfact>
</mgrwt>
</event>
<event>
 6    1  0.4259848E-002  0.1266542E+03  0.7546771E-02  0.1232506E+00
         21   -1    0    0  503  502  0.00000000000E+00  0.00000000000E+00  0.16390587352E+03  0.16390587352E+03  0.00000000000E+00 0. -1.
         21   -1    0    0  504  503 -0.00000000000E+00 -0.00000000000E+00 -0.34784362643E+02  0.34784362643E+02  0.00000000000E+00 0. -1.
         25    2    1    2    0    0  0.21483756727E+00 -0.20705014784E+02  0.12423839756E+03  0.17741610661E+03  0.12495019674E+03 0.  0.
          5    1    3    3  501    0  0.49360203484E+02 -0.24641861576E+02  0.11458841742E+03  0.12717769630E+03  0.10000000000E+00 0.  1.
         -5    1    3    3    0  501 -0.49145365916E+02  0.39368467916E+01  0.96499801409E+01  0.50238410310E+02  0.10000000000E+00 0.  1.
         21    1    1    2  504  502 -0.21483756727E+00  0.20705014784E+02  0.48831133121E+01  0.21274129548E+02  0.00000000000E+00 0. -1.
<mgrwt>
<rscale>  1 0.12665424E+03</rscale>
<asrwt>0</asrwt>
<pdfrwt beam="1">  1       21 0.25216288E-01 0.12665424E+03</pdfrwt>
<pdfrwt beam="2">  1       21 0.53514405E-02 0.12665424E+03</pdfrwt>
<totfact> 0.35287718E+06</totfact>
</mgrwt>
</event>
<event>
 6    1  0.4259848E-002  0.1279014E+03  0.7546771E-02  0.1230603E+00
         21   -1    0    0  504  502  0.00000000000E+00  0.00000000000E+00  0.31755844890E+01  0.31755844890E+01  0.00000000000E+00 0.  1.
         21   -1    0    0  502  503 -0.00000000000E+00 -0.00000000000E+00 -0.20275541520E+04  0.20275541520E+04  0.00000000000E+00 0.  1.
         25    2    1    2    0    0 -0.25229454040E+02  0.99099326670E+01 -0.14216079909E+04  0.14273500052E+04  0.12499610155E+03 0.  0.
          5    1    3    3  501    0 -0.39895694848E+02 -0.17311855306E+02 -0.13290929129E+04  0.13298042517E+04  0.10000000000E+00 0. -1.
         -5    1    3    3    0  501  0.14666240807E+02  0.27221787973E+02 -0.92515077973E+02  0.97545753430E+02  0.10000000000E+00 0. -1.
         21    1    1    2  504  503  0.25229454040E+02 -0.99099326670E+01 -0.60277057668E+03  0.60337973137E+03  0.00000000000E+00 0.  1.
<mgrwt>
<rscale>  1 0.12790136E+03</rscale>
<asrwt>0</asrwt>
<pdfrwt beam="1">  1       21 0.48854983E-03 0.12790136E+03</pdfrwt>
<pdfrwt beam="2">  1       21 0.31193245E+00 0.12790136E+03</pdfrwt>
<totfact> 0.35528112E+05</totfact>
</mgrwt>
</event>
<event>
 6    1  0.4259848E-002  0.1262102E+03  0.7546771E-02  0.1233190E+00
         21   -1    0    0  503  502  0.00000000000E+00  0.00000000000E+00  0.11562628548E+03  0.11562628548E+03  0.00000000000E+00 0.  1.
         21   -1    0    0  504  503 -0.00000000000E+00 -0.00000000000E+00 -0.44650161370E+02  0.44650161370E+02  0.00000000000E+00 0.  1.
         25    2    1    2    0    0  0.29668318375E+01 -0.17215487807E+02  0.61363400520E+02  0.14033704950E+03  0.12499538163E+03 0.  0.
          5    1    3    3  501    0 -0.38363698772E+02  0.39780355655E+02  0.33458434183E+02  0.64604387603E+02  0.10000000000E+00 0.  1.
         -5    1    3    3    0  501  0.41330530609E+02 -0.56995843463E+02  0.27904966337E+02  0.75732661902E+02  0.10000000000E+00 0.  1.
         21    1    1    2  504  502 -0.29668318375E+01  0.17215487807E+02  0.96127235846E+01  0.19939397341E+02  0.00000000000E+00 0.  1.
<mgrwt>
<rscale>  1 0.12621022E+03</rscale>
<asrwt>0</asrwt>
<pdfrwt beam="1">  1       21 0.17788659E-01 0.12621022E+03</pdfrwt>
<pdfrwt beam="2">  1       21 0.68692556E-02 0.12621022E+03</pdfrwt>
<totfact> 0.44182403E+06</totfact>
</mgrwt>
</event>
<event>
 6    1  0.4259848E-002  0.1487275E+03  0.7546771E-02  0.1202045E+00
         21   -1    0    0  504  502  0.00000000000E+00  0.00000000000E+00  0.34409707087E+02  0.34409707087E+02  0.00000000000E+00 0.  1.
         21   -1    0    0  502  503 -0.00000000000E+00 -0.00000000000E+00 -0.13259259884E+04  0.13259259884E+04  0.00000000000E+00 0.  1.
         25    2    1    2    0    0 -0.80520729041E+02 -0.33039311967E+01 -0.13452559446E+03  0.20054176843E+03  0.12500144621E+03 0.  0.
          5    1    3    3  501    0  0.13621466806E+02  0.34557998249E+02 -0.73840633999E+01  0.37872602145E+02  0.10000000000E+00 0.  1.
         -5    1    3    3    0  501 -0.94142195847E+02 -0.37861929445E+02 -0.12714153106E+03  0.16266916629E+03  0.10000000000E+00 0.  1.
         21    1    1    2  504  503  0.80520729041E+02  0.33039311967E+01 -0.11569906869E+04  0.11597939271E+04  0.00000000000E+00 0.  1.
<mgrwt>
<rscale>  1 0.14872749E+03</rscale>
<asrwt>0</asrwt>
<pdfrwt beam="1">  1       21 0.52938006E-02 0.14872749E+03</pdfrwt>
<pdfrwt beam="2">  1       21 0.20398863E+00 0.14872749E+03</pdfrwt>
<totfact> 0.31968693E+04</totfact>
</mgrwt>
</event>
<event>
 6    1  0.4259848E-002  0.1377369E+03  0.7546771E-02  0.1216407E+00
         21   -1    0    0  503  502  0.00000000000E+00  0.00000000000E+00  0.51926051177E+03  0.51926051177E+03  0.00000000000E+00 0. -1.
         21   -1    0    0  504  503 -0.00000000000E+00 -0.00000000000E+00 -0.19846124061E+02  0.19846124061E+02  0.00000000000E+00 0. -1.
         25    2    1    2    0    0  0.53133042587E+02 -0.22951764211E+02  0.41070229175E+03  0.43318336330E+03  0.12498619961E+03 0.  0.
          5    1    3    3  501    0  0.52622998017E+02  0.21616615685E+02  0.72987204083E+02  0.92539720952E+02  0.10000000000E+00 0.  1.
         -5    1    3    3    0  501  0.51004456988E+00 -0.44568379896E+02  0.33771508767E+03  0.34064364234E+03  0.10000000000E+00 0.  1.
         21    1    1    2  504  502 -0.53133042587E+02  0.22951764211E+02  0.88712095964E+02  0.10592327254E+03  0.00000000000E+00 0. -1.
<mgrwt>
<rscale>  1 0.13773690E+03</rscale>
<asrwt>0</asrwt>
<pdfrwt beam="1">  1       21 0.79886222E-01 0.13773690E+03</pdfrwt>
<pdfrwt beam="2">  1       21 0.30532502E-02 0.13773690E+03</pdfrwt>
<totfact> 0.85240273E+05</totfact>
</mgrwt>
</event>
<event>
 6    1  0.4259848E-002  0.2169740E+03  0.7546771E-02  0.1136159E+00
         21   -1    0    0  504  502  0.00000000000E+00  0.00000000000E+00  0.63811714837E+03  0.63811714837E+03  0.00000000000E+00 0. -1.
         21   -1    0    0  502  503 -0.00000000000E+00 -0.00000000000E+00 -0.61412654041E+02  0.61412654041E+02  0.00000000000E+00 0. -1.
         25    2    1    2    0    0  0.16589450892E+03 -0.62711870523E+02  0.34830396085E+03  0.41035758645E+03  0.12499573119E+03 0.  0.
          5    1    3    3  501    0  0.54641690403E+02 -0.86038277750E+02  0.18784304571E+03  0.21371317084E+03  0.10000000000E+00 0. -1.
         -5    1    3    3    0  501  0.11125281851E+03  0.23326407227E+02  0.16046091514E+03  0.19664441561E+03  0.10000000000E+00 0. -1.
         21    1    1    2  504  503 -0.16589450892E+03  0.62711870523E+02  0.22840053347E+03  0.28917221596E+03  0.00000000000E+00 0. -1.
<mgrwt>
<rscale>  1 0.21697396E+03</rscale>
<asrwt>0</asrwt>
<pdfrwt beam="1">  1       21 0.98171865E-01 0.21697396E+03</pdfrwt>
<pdfrwt beam="2">  1       21 0.94481010E-02 0.21697396E+03</pdfrwt>
<totfact> 0.76069853E+04</totfact>
</mgrwt>
</event>
<event>
 6    1  0.4259848E-002  0.1286504E+03  0.7546771E-02  0.1229472E+00
         21   -1    0    0  504  502  0.00000000000E+00  0.00000000000E+00  0.21809845643E+03  0.21809845643E+03  0.00000000000E+00 0. -1.
         21   -1    0    0  502  503 -0.00000000000E+00 -0.00000000000E+00 -0.36849100532E+02  0.36849100532E+02  0.00000000000E+00 0. -1.
         25    2    1    2    0    0  0.28787043977E+01 -0.30310646952E+02  0.18384742480E+03  0.22438987021E+03  0.12499566389E+03 0.  0.
          5    1    3    3  501    0 -0.54010665729E+02  0.29998727584E+01  0.12427165884E+03  0.13553452121E+03  0.10000000000E+00 0. -1.
         -5    1    3    3    0  501  0.56889370126E+02 -0.33310519710E+02  0.59575765953E+02  0.88855348999E+02  0.10000000000E+00 0. -1.
         21    1    1    2  504  503 -0.28787043977E+01  0.30310646952E+02 -0.25980688958E+01  0.30557686752E+02  0.00000000000E+00 0. -1.
<mgrwt>
<rscale>  1 0.12865045E+03</rscale>
<asrwt>0</asrwt>
<pdfrwt beam="1">  1       21 0.33553608E-01 0.12865045E+03</pdfrwt>
<pdfrwt beam="2">  1       21 0.56690925E-02 0.12865045E+03</pdfrwt>
<totfact> 0.18500731E+06</totfact>
</mgrwt>
</event>
<event>
 6    1  0.4259848E-002  0.1278871E+03  0.7546771E-02  0.1230625E+00
         21   -1    0    0  504  502  0.00000000000E+00  0.00000000000E+00  0.39204926951E+03  0.39204926951E+03  0.00000000000E+00 0.  1.
         21   -1    0    0  502  503 -0.00000000000E+00 -0.00000000000E+00 -0.18624452084E+02  0.18624452084E+02  0.00000000000E+00 0.  1.
         25    2    1    2    0    0 -0.15677944076E+02 -0.22011376877E+02  0.35660391118E+03  0.37884226656E+03  0.12499925929E+03 0.  0.
          5    1    3    3  501    0 -0.22740440934E+02  0.12092199540E+00  0.12983774833E+01  0.22778017036E+02  0.10000000000E+00 0.  1.
         -5    1    3    3    0  501  0.70624968577E+01 -0.22132298872E+02  0.35530553370E+03  0.35606424953E+03  0.10000000000E+00 0.  1.
         21    1    1    2  504  503  0.15677944076E+02  0.22011376877E+02  0.16820906244E+02  0.31831455030E+02  0.00000000000E+00 0.  1.
<mgrwt>
<rscale>  1 0.12788711E+03</rscale>
<asrwt>0</asrwt>
<pdfrwt beam="1">  1       21 0.60315266E-01 0.12788711E+03</pdfrwt>
<pdfrwt beam="2">  1       21 0.28653006E-02 0.12788711E+03</pdfrwt>
<totfact> 0.17446605E+06</totfact>
</mgrwt>
</event>
<event>
 6    1  0.4259848E-002  0.1287796E+03  0.7546771E-02  0.1229278E+00
         21   -1    0    0  503  502  0.00000000000E+00  0.00000000000E+00  0.51074353001E+03  0.51074353001E+03  0.00000000000E+00 0. -1.
         21   -1    0    0  504  503 -0.00000000000E+00 -0.00000000000E+00 -0.12700635527E+02  0.12700635527E+02  0.00000000000E+00 0. -1.
         25    2    1    2    0    0  0.18298913220E+01 -0.30913355779E+02  0.42568633314E+03  0.44473929887E+03  0.12500082268E+03 0.  0.
          5    1    3    3  501    0 -0.46826172008E+02  0.54432687516E+01  0.31477586355E+03  0.31828630795E+03  0.10000000000E+00 0. -1.
         -5    1    3    3    0  501  0.48656063330E+02 -0.36356624531E+02  0.11091046959E+03  0.12645299091E+03  0.10000000000E+00 0. -1.
         21    1    1    2  504  502 -0.18298913220E+01  0.30913355779E+02  0.72356561343E+02  0.78704866668E+02  0.00000000000E+00 0. -1.
<mgrwt>
<rscale>  1 0.12877962E+03</rscale>
<asrwt>0</asrwt>
<pdfrwt beam="1">  1       21 0.78575912E-01 0.12877962E+03</pdfrwt>
<pdfrwt beam="2">  1       21 0.19539443E-02 0.12877962E+03</pdfrwt>
<totfact> 0.18281578E+06</totfact>
</mgrwt>
</event>
<event>
 6    1  0.4259848E-002  0.1274713E+03  0.7546771E-02  0.1231257E+00
         21   -1    0    0  504  502  0.00000000000E+00  0.00000000000E+00  0.12786729551E+03  0.12786729551E+03  0.00000000000E+00 0. -1.
         21   -1    0    0  502  503 -0.00000000000E+00 -0.00000000000E+00 -0.13449444595E+03  0.13449444595E+03  0.00000000000E+00 0. -1.
         25    2    1    2    0    0  0.11430460133E+02  0.22189778343E+02  0.94193516746E+02  0.15849717285E+03  0.12500357404E+03 0.  0.
          5    1    3    3  501    0  0.63931632631E+02  0.33547335102E+02  0.41625673584E+02  0.83338970744E+02  0.10000000000E+00 0.  1.
         -5    1    3    3    0  501 -0.52501172497E+02 -0.11357556759E+02  0.52567843162E+02  0.75158202106E+02  0.10000000000E+00 0.  1.
         21    1    1    2  504  503 -0.11430460133E+02 -0.22189778343E+02 -0.10082066718E+03  0.10386456861E+03  0.00000000000E+00 0. -1.
<mgrwt>
<rscale>  1 0.12747131E+03</rscale>
<asrwt>0</asrwt>
<pdfrwt beam="1">  1       21 0.19671892E-01 0.12747131E+03</pdfrwt>
<pdfrwt beam="2">  1       21 0.20691453E-01 0.12747131E+03</pdfrwt>
<totfact> 0.51963289E+05</totfact>
</mgrwt>
</event>
<event>
 6    1  0.4259848E-002  0.1271056E+03  0.7546771E-02  0.1231815E+00
         21   -1    0    0  504  502  0.00000000000E+00  0.00000000000E+00  0.16548910154E+03  0.16548910154E+03  0.00000000000E+00 0.  1.
         21   -1    0    0  502  503 -0.00000000000E+00 -0.00000000000E+00 -0.49484499572E+03  0.49484499572E+03  0.00000000000E+00 0. -1.
         25    2    1    2    0    0 -0.10699125213E+02 -0.20417122550E+02  0.14075881123E+03  0.18965462414E+03  0.12499801337E+03 0.  0.
          5    1    3    3  501    0 -0.40700362278E+02 -0.39713864779E+02  0.14302114439E+03  0.15391155995E+03  0.10000000000E+00 0. -1.
         -5    1    3    3    0  501  0.30001237065E+02  0.19296742229E+02 -0.22623331592E+01  0.35743064186E+02  0.10000000000E+00 0. -1.
         21    1    1    2  504  503  0.10699125213E+02  0.20417122550E+02 -0.47011470541E+03  0.47067947312E+03  0.00000000000E+00 0. -1.
<mgrwt>
<rscale>  1 0.12710560E+03</rscale>
<asrwt>0</asrwt>
<pdfrwt beam="1">  1       21 0.25459862E-01 0.12710560E+03</pdfrwt>
<pdfrwt beam="2">  1       21 0.76129999E-01 0.12710560E+03</pdfrwt>
<totfact> 0.23451593E+04</totfact>
</mgrwt>
</event>
<event>
 6    1  0.4259848E-002  0.1550208E+03  0.7546771E-02  0.1194436E+00
         21   -1    0    0  504  502  0.00000000000E+00  0.00000000000E+00  0.14382589130E+03  0.14382589130E+03  0.00000000000E+00 0.  1.
         21   -1    0    0  502  503 -0.00000000000E+00 -0.00000000000E+00 -0.51638090474E+03  0.51638090474E+03  0.00000000000E+00 0.  1.
         25    2    1    2    0    0 -0.80999874999E+02  0.42967324514E+02  0.96282316253E+02  0.18248761865E+03  0.12499710321E+03 0.  0.
          5    1    3    3  501    0  0.93281781120E+01  0.15402912071E+02 -0.23719514932E+02  0.29780698375E+02  0.10000000000E+00 0. -1.
         -5    1    3    3    0  501 -0.90328053111E+02  0.27564412444E+02  0.12000183118E+03  0.15270692027E+03  0.10000000000E+00 0. -1.
         21    1    1    2  504  503  0.80999874999E+02 -0.42967324514E+02 -0.46883732969E+03  0.47771917738E+03  0.00000000000E+00 0.  1.
<mgrwt>
<rscale>  1 0.15502079E+03</rscale>
<asrwt>0</asrwt>
<pdfrwt beam="1">  1       21 0.22127060E-01 0.15502079E+03</pdfrwt>
<pdfrwt beam="2">  1       21 0.79443217E-01 0.15502079E+03</pdfrwt>
<totfact> 0.27279518E+04</totfact>
</mgrwt>
</event>
<event>
 6    1  0.4259848E-002  0.1276691E+03  0.7546771E-02  0.1230956E+00
         21   -1    0    0  503  502  0.00000000000E+00  0.00000000000E+00  0.13433797054E+02  0.13433797054E+02  0.00000000000E+00 0.  1.
         21   -1    0    0  504  503 -0.00000000000E+00 -0.00000000000E+00 -0.44203389414E+03  0.44203389414E+03  0.00000000000E+00 0.  1.
         25    2    1    2    0    0  0.10666830933E+02 -0.23708213333E+02 -0.34214550978E+03  0.36518892111E+03  0.12499415017E+03 0.  0.
          5    1    3    3  501    0  0.11261169988E+02 -0.49215799465E+02 -0.33487361633E+03  0.33865817247E+03  0.10000000000E+00 0. -1.
         -5    1    3    3    0  501 -0.59433905506E+00  0.25507586132E+02 -0.72718934524E+01  0.26530748643E+02  0.10000000000E+00 0. -1.
         21    1    1    2  504  502 -0.10666830933E+02  0.23708213333E+02 -0.86454587302E+02  0.90278770080E+02  0.00000000000E+00 0.  1.
<mgrwt>
<rscale>  1 0.12766910E+03</rscale>
<asrwt>0</asrwt>
<pdfrwt beam="1">  1       21 0.20667381E-02 0.12766910E+03</pdfrwt>
<pdfrwt beam="2">  1       21 0.68005213E-01 0.12766910E+03</pdfrwt>
<totfact> 0.22933425E+06</totfact>
</mgrwt>
</event>
<event>
 6    1  0.4259848E-002  0.1275238E+03  0.7546771E-02  0.1231177E+00
         21   -1    0    0  504  502  0.00000000000E+00  0.00000000000E+00  0.10074608331E+03  0.10074608331E+03  0.00000000000E+00 0. -1.
         21   -1    0    0  502  503 -0.00000000000E+00 -0.00000000000E+00 -0.58121393628E+02  0.58121393628E+02  0.00000000000E+00 0. -1.
         25    2    1    2    0    0 -0.24128362482E+02  0.74345530866E+01  0.39044715530E+02  0.13336715006E+03  0.12499942580E+03 0.  0.
          5    1    3    3  501    0 -0.47196296531E+02 -0.48066409087E+02  0.22604535815E+02  0.71055225903E+02  0.10000000000E+00 0.  1.
         -5    1    3    3    0  501  0.23067934050E+02  0.55500962173E+02  0.16440179715E+02  0.62311924160E+02  0.10000000000E+00 0.  1.
         21    1    1    2  504  503  0.24128362482E+02 -0.74345530866E+01  0.35799741501E+01  0.25500326871E+02  0.00000000000E+00 0. -1.
<mgrwt>
<rscale>  1 0.12752375E+03</rscale>
<asrwt>0</asrwt>
<pdfrwt beam="1">  1       21 0.15499397E-01 0.12752375E+03</pdfrwt>
<pdfrwt beam="2">  1       21 0.89417529E-02 0.12752375E+03</pdfrwt>
<totfact> 0.36062060E+06</totfact>
</mgrwt>
</event>
<event>
 6    1  0.4259848E-002  0.1879548E+03  0.7546771E-02  0.1160319E+00
         21   -1    0    0  503  502  0.00000000000E+00  0.00000000000E+00  0.87695673135E+03  0.87695673135E+03  0.00000000000E+00 0.  1.
         21   -1    0    0  504  503 -0.00000000000E+00 -0.00000000000E+00 -0.32521899434E+02  0.32521899434E+02  0.00000000000E+00 0. -1.
         25    2    1    2    0    0 -0.10500476014E+03  0.93147051392E+02  0.58573385525E+03  0.61515131611E+03  0.12499847876E+03 0.  0.
          5    1    3    3  501    0 -0.10121388153E+03  0.69723409285E+01  0.33209321480E+03  0.34724454880E+03  0.10000000000E+00 0.  1.
         -5    1    3    3    0  501 -0.37908786036E+01  0.86174710463E+02  0.25364064045E+03  0.26790676731E+03  0.10000000000E+00 0.  1.
         21    1    1    2  504  502  0.10500476014E+03 -0.93147051392E+02  0.25870097666E+03  0.29432731467E+03  0.00000000000E+00 0. -1.
<mgrwt>
<rscale>  1 0.18795476E+03</rscale>
<asrwt>0</asrwt>
<pdfrwt beam="1">  1       21 0.13491640E+00 0.18795476E+03</pdfrwt>
<pdfrwt beam="2">  1       21 0.50033698E-02 0.18795476E+03</pdfrwt>
<totfact> 0.10593578E+05</totfact>
</mgrwt>
</event>
<event>
 6    1  0.4259848E-002  0.1259486E+03  0.7546771E-02  0.1233594E+00
         21   -1    0    0  503  502  0.00000000000E+00  0.00000000000E+00  0.58373633410E+03  0.58373633410E+03  0.00000000000E+00 0. -1.
         21   -1    0    0  504  503 -0.00000000000E+00 -0.00000000000E+00 -0.47132763058E+02  0.47132763058E+02  0.00000000000E+00 0. -1.
         25    2    1    2    0    0  0.13904283632E+02 -0.59489627043E+01  0.57550796748E+03  0.58912857341E+03  0.12503733886E+03 0.  0.
          5    1    3    3  501    0 -0.16706826008E+02  0.48223177295E+02  0.13642017483E+03  0.14565392876E+03  0.10000000000E+00 0. -1.
         -5    1    3    3    0  501  0.30611109639E+02 -0.54172139999E+02  0.43908779265E+03  0.44347464465E+03  0.10000000000E+00 0. -1.
         21    1    1    2  504  502 -0.13904283632E+02  0.59489627043E+01 -0.38904396440E+02  0.41740523750E+02  0.00000000000E+00 0. -1.
<mgrwt>
<rscale>  1 0.12594862E+03</rscale>
<asrwt>0</asrwt>
<pdfrwt beam="1">  1       21 0.89805585E-01 0.12594862E+03</pdfrwt>
<pdfrwt beam="2">  1       21 0.72511947E-02 0.12594862E+03</pdfrwt>
<totfact> 0.15381605E+05</totfact>
</mgrwt>
</event>
<event>
 6    1  0.4259848E-002  0.1410941E+03  0.7546771E-02  0.1211864E+00
         21   -1    0    0  504  502  0.00000000000E+00  0.00000000000E+00  0.82767714824E+02  0.82767714824E+02  0.00000000000E+00 0.  1.
         21   -1    0    0  502  503 -0.00000000000E+00 -0.00000000000E+00 -0.15129727195E+03  0.15129727195E+03  0.00000000000E+00 0.  1.
         25    2    1    2    0    0 -0.42268268725E+02 -0.49959372286E+02 -0.87383376805E+02  0.16596203576E+03  0.12499998941E+03 0.  0.
          5    1    3    3  501    0  0.26069065746E+01  0.28152843501E+02  0.12969766401E+02  0.31106324109E+02  0.10000000000E+00 0. -1.
         -5    1    3    3    0  501 -0.44875175299E+02 -0.78112215787E+02 -0.10035314321E+03  0.13485571165E+03  0.10000000000E+00 0. -1.
         21    1    1    2  504  503  0.42268268725E+02  0.49959372286E+02  0.18853819680E+02  0.68102951013E+02  0.00000000000E+00 0.  1.
<mgrwt>
<rscale>  1 0.14109409E+03</rscale>
<asrwt>0</asrwt>
<pdfrwt beam="1">  1       21 0.12733495E-01 0.14109409E+03</pdfrwt>
<pdfrwt beam="2">  1       21 0.23276503E-01 0.14109409E+03</pdfrwt>
<totfact> 0.91754576E+05</totfact>
</mgrwt>
</event>
<event>
 6    1  0.4259848E-002  0.1267585E+03  0.7546771E-02  0.1232346E+00
         21   -1    0    0  503  502  0.00000000000E+00  0.00000000000E+00  0.64344921209E+02  0.64344921209E+02  0.00000000000E+00 0. -1.
         21   -1    0    0  504  503 -0.00000000000E+00 -0.00000000000E+00 -0.60947178196E+03  0.60947178196E+03  0.00000000000E+00 0.  1.
         25    2    1    2    0    0 -0.20763890432E+02 -0.31847695995E+01  0.15187172283E+01  0.12676764703E+03  0.12500579157E+03 0.  0.
          5    1    3    3  501    0  0.27833670159E+02  0.29319375163E+02 -0.38572456856E+02  0.55876501164E+02  0.10000000000E+00 0. -1.
         -5    1    3    3    0  501 -0.48597560590E+02 -0.32504144763E+02  0.40091174084E+02  0.70891145861E+02  0.10000000000E+00 0. -1.
         21    1    1    2  504  502  0.20763890432E+02  0.31847695995E+01 -0.54664557798E+03  0.54704905614E+03  0.00000000000E+00 0.  1.
<mgrwt>
<rscale>  1 0.12675855E+03</rscale>
<asrwt>0</asrwt>
<pdfrwt beam="1">  1       21 0.98992187E-02 0.12675855E+03</pdfrwt>
<pdfrwt beam="2">  1       21 0.93764889E-01 0.12675855E+03</pdfrwt>
<totfact> 0.81288623E+04</totfact>
</mgrwt>
</event>
<event>
 6    1  0.4259848E-002  0.1278404E+03  0.7546771E-02  0.1230696E+00
         21   -1    0    0  504  502  0.00000000000E+00  0.00000000000E+00  0.41299903491E+02  0.41299903491E+02  0.00000000000E+00 0.  1.
         21   -1    0    0  502  503 -0.00000000000E+00 -0.00000000000E+00 -0.40592820908E+03  0.40592820908E+03  0.00000000000E+00 0. -1.
         25    2    1    2    0    0  0.20741688516E+02 -0.16977909110E+02 -0.59646149819E+02  0.14107033890E+03  0.12499884115E+03 0.  0.
          5    1    3    3  501    0  0.15331919600E+02 -0.40454968206E+02 -0.91452465307E+02  0.10116934131E+03  0.10000000000E+00 0. -1.
         -5    1    3    3    0  501  0.54097689163E+01  0.23477059096E+02  0.31806315488E+02  0.39900997587E+02  0.10000000000E+00 0. -1.
         21    1    1    2  504  503 -0.20741688516E+02  0.16977909110E+02 -0.30498215577E+03  0.30615777367E+03  0.00000000000E+00 0. -1.
<mgrwt>
<rscale>  1 0.12784044E+03</rscale>
<asrwt>0</asrwt>
<pdfrwt beam="1">  1       21 0.63538311E-02 0.12784044E+03</pdfrwt>
<pdfrwt beam="2">  1       21 0.62450496E-01 0.12784044E+03</pdfrwt>
<totfact> 0.42953628E+05</totfact>
</mgrwt>
</event>
<event>
 6    1  0.4259848E-002  0.1270080E+03  0.7546771E-02  0.1231964E+00
         21   -1    0    0  503  502  0.00000000000E+00  0.00000000000E+00  0.50683247629E+03  0.50683247629E+03  0.00000000000E+00 0.  1.
         21   -1    0    0  504  503 -0.00000000000E+00 -0.00000000000E+00 -0.12485561495E+02  0.12485561495E+02  0.00000000000E+00 0.  1.
         25    2    1    2    0    0 -0.18540567901E+02  0.12720409127E+02  0.46674664548E+03  0.48371837020E+03  0.12500187650E+03 0.  0.
          5    1    3    3  501    0 -0.14029468719E+02  0.13265404511E+02  0.47441314323E+03  0.47480589447E+03  0.10000000000E+00 0. -1.
         -5    1    3    3    0  501 -0.45110991816E+01 -0.54499538373E+00 -0.76664977514E+01  0.89124757260E+01  0.10000000000E+00 0. -1.
         21    1    1    2  504  502  0.18540567901E+02 -0.12720409127E+02  0.27600269315E+02  0.35599667593E+02  0.00000000000E+00 0.  1.
<mgrwt>
<rscale>  1 0.12700799E+03</rscale>
<asrwt>0</asrwt>
<pdfrwt beam="1">  1       21 0.77974211E-01 0.12700799E+03</pdfrwt>
<pdfrwt beam="2">  1       21 0.19208560E-02 0.12700799E+03</pdfrwt>
<totfact> 0.19111197E+06</totfact>
</mgrwt>
</event>
<event>
 6    1  0.4259848E-002  0.1268039E+03  0.7546771E-02  0.1232277E+00
         21   -1    0    0  503  502  0.00000000000E+00  0.00000000000E+00  0.35429109603E+03  0.35429109603E+03  0.00000000000E+00 0.  1.
         21   -1    0    0  504  503 -0.00000000000E+00 -0.00000000000E+00 -0.72208583109E+02  0.72208583109E+02  0.00000000000E+00 0.  1.
         25    2    1    2    0    0 -0.18118307428E+02  0.11171410985E+02  0.34102216754E+03  0.36383424710E+03  0.12500466840E+03 0.  0.
          5    1    3    3  501    0  0.37370310013E+02  0.16709773447E+02  0.38435693103E+02  0.56152195891E+02  0.10000000000E+00 0. -1.
         -5    1    3    3    0  501 -0.55488617441E+02 -0.55383624613E+01  0.30258647443E+03  0.30768205121E+03  0.10000000000E+00 0. -1.
         21    1    1    2  504  502  0.18118307428E+02 -0.11171410985E+02 -0.58939654613E+02  0.62665432045E+02  0.00000000000E+00 0.  1.
<mgrwt>
<rscale>  1 0.12680395E+03</rscale>
<asrwt>0</asrwt>
<pdfrwt beam="1">  1       21 0.54506321E-01 0.12680395E+03</pdfrwt>
<pdfrwt beam="2">  1       21 0.11109013E-01 0.12680395E+03</pdfrwt>
<totfact> 0.21790481E+05</totfact>
</mgrwt>
</event>
<event>
 6    1  0.4259848E-002  0.1274309E+03  0.7546771E-02  0.1231318E+00
         21   -1    0    0  503  502  0.00000000000E+00  0.00000000000E+00  0.69820535786E+03  0.69820535786E+03  0.00000000000E+00 0. -1.
         21   -1    0    0  504  503 -0.00000000000E+00 -0.00000000000E+00 -0.16884347617E+03  0.16884347617E+03  0.00000000000E+00 0.  1.
         25    2    1    2    0    0  0.75270005057E+01 -0.23598008160E+02  0.69144223380E+03  0.70308675833E+03  0.12500042129E+03 0.  0.
          5    1    3    3  501    0 -0.42370001787E+02 -0.29099823023E+02  0.56049725788E+03  0.56284918303E+03  0.10000000000E+00 0. -1.
         -5    1    3    3    0  501  0.49897002293E+02  0.55018148626E+01  0.13094497592E+03  0.14023757529E+03  0.10000000000E+00 0. -1.
         21    1    1    2  504  502 -0.75270005057E+01  0.23598008160E+02 -0.16208035211E+03  0.16396207570E+03  0.00000000000E+00 0.  1.
<mgrwt>
<rscale>  1 0.12743087E+03</rscale>
<asrwt>0</asrwt>
<pdfrwt beam="1">  1       21 0.10741621E+00 0.12743087E+03</pdfrwt>
<pdfrwt beam="2">  1       21 0.25975920E-01 0.12743087E+03</pdfrwt>
<totfact> 0.10255602E+04</totfact>
</mgrwt>
</event>
<event>
 6    1  0.4259848E-002  0.1290877E+03  0.7546771E-02  0.1228816E+00
         21   -1    0    0  503  502  0.00000000000E+00  0.00000000000E+00  0.68389594508E+02  0.68389594508E+02  0.00000000000E+00 0. -1.
         21   -1    0    0  504  503 -0.00000000000E+00 -0.00000000000E+00 -0.14188897310E+03  0.14188897310E+03  0.00000000000E+00 0. -1.
         25    2    1    2    0    0 -0.18462111050E+02  0.26458993109E+02  0.10015910687E+01  0.12909160843E+03  0.12499084895E+03 0.  0.
          5    1    3    3  501    0 -0.59195684217E+01 -0.21725731646E+02  0.52703781431E+02  0.57312714846E+02  0.10000000000E+00 0.  1.
         -5    1    3    3    0  501 -0.12542542628E+02  0.48184724755E+02 -0.51702190363E+02  0.71778893580E+02  0.10000000000E+00 0.  1.
         21    1    1    2  504  502  0.18462111050E+02 -0.26458993109E+02 -0.74500969665E+02  0.81186959185E+02  0.00000000000E+00 0. -1.
<mgrwt>
<rscale>  1 0.12908772E+03</rscale>
<asrwt>0</asrwt>
<pdfrwt beam="1">  1       21 0.10521476E-01 0.12908772E+03</pdfrwt>
<pdfrwt beam="2">  1       21 0.21829073E-01 0.12908772E+03</pdfrwt>
<totfact> 0.14488891E+06</totfact>
</mgrwt>
</event>
<event>
 6    1  0.4259848E-002  0.1261456E+03  0.7546771E-02  0.1233290E+00
         21   -1    0    0  504  502  0.00000000000E+00  0.00000000000E+00  0.13514346025E+03  0.13514346025E+03  0.00000000000E+00 0. -1.
         21   -1    0    0  502  503 -0.00000000000E+00 -0.00000000000E+00 -0.38015272546E+02  0.38015272546E+02  0.00000000000E+00 0. -1.
         25    2    1    2    0    0 -0.46382830757E+01 -0.16466373042E+02  0.87578649483E+02  0.15356667340E+03  0.12498019132E+03 0.  0.
          5    1    3    3  501    0  0.50573163572E+02 -0.41465652724E+02  0.49049118998E+02  0.81748830597E+02  0.10000000000E+00 0.  1.
         -5    1    3    3    0  501 -0.55211446648E+02  0.24999279682E+02  0.38529530485E+02  0.71817842804E+02  0.10000000000E+00 0.  1.
         21    1    1    2  504  503  0.46382830757E+01  0.16466373042E+02  0.95495382171E+01  0.19592059391E+02  0.00000000000E+00 0.  1.
<mgrwt>
<rscale>  1 0.12614556E+03</rscale>
<asrwt>0</asrwt>
<pdfrwt beam="1">  1       21 0.20791301E-01 0.12614556E+03</pdfrwt>
<pdfrwt beam="2">  1       21 0.58485035E-02 0.12614556E+03</pdfrwt>
<totfact> 0.43582110E+06</totfact>
</mgrwt>
</event>
<event>
 6    1  0.4259848E-002  0.1532566E+03  0.7546771E-02  0.1196528E+00
         21   -1    0    0  503  502  0.00000000000E+00  0.00000000000E+00  0.52310730447E+03  0.52310730447E+03  0.00000000000E+00 0.  1.
         21   -1    0    0  504  503 -0.00000000000E+00 -0.00000000000E+00 -0.38151862083E+02  0.38151862083E+02  0.00000000000E+00 0.  1.
         25    2    1    2    0    0  0.58410547045E+02 -0.66703592854E+02  0.43107634543E+03  0.45750889718E+03  0.12500565629E+03 0.  0.
          5    1    3    3  501    0 -0.23537320058E+01 -0.70068788410E+02  0.34524645789E+03  0.35229292052E+03  0.10000000000E+00 0.  1.
         -5    1    3    3    0  501  0.60764279050E+02  0.33651955553E+01  0.85829887545E+02  0.10521597667E+03  0.10000000000E+00 0.  1.
         21    1    1    2  504  502 -0.58410547045E+02  0.66703592854E+02  0.53879096957E+02  0.10375026937E+03  0.00000000000E+00 0.  1.
<mgrwt>
<rscale>  1 0.15325657E+03</rscale>
<asrwt>0</asrwt>
<pdfrwt beam="1">  1       21 0.80478042E-01 0.15325657E+03</pdfrwt>
<pdfrwt beam="2">  1       21 0.58695176E-02 0.15325657E+03</pdfrwt>
<totfact> 0.28072103E+05</totfact>
</mgrwt>
</event>
<event>
 6    1  0.4259848E-002  0.1434453E+03  0.7546771E-02  0.1208767E+00
         21   -1    0    0  503  502  0.00000000000E+00  0.00000000000E+00  0.11168348889E+03  0.11168348889E+03  0.00000000000E+00 0.  1.
         21   -1    0    0  504  503 -0.00000000000E+00 -0.00000000000E+00 -0.11396010001E+03  0.11396010001E+03  0.00000000000E+00 0.  1.
         25    2    1    2    0    0 -0.18887548188E+02  0.67784551274E+02  0.32607165104E+02  0.14710466409E+03  0.12500028045E+03 0.  0.
          5    1    3    3  501    0 -0.54888686928E+02  0.84499291812E+02  0.95788790016E+01  0.10121592361E+03  0.10000000000E+00 0.  1.
         -5    1    3    3    0  501  0.36001138740E+02 -0.16714740538E+02  0.23028286103E+02  0.45888740478E+02  0.10000000000E+00 0.  1.
         21    1    1    2  504  502  0.18887548188E+02 -0.67784551274E+02 -0.34883776219E+02  0.78538924816E+02  0.00000000000E+00 0. -1.
<mgrwt>
<rscale>  1 0.14344530E+03</rscale>
<asrwt>0</asrwt>
<pdfrwt beam="1">  1       21 0.17182075E-01 0.14344530E+03</pdfrwt>
<pdfrwt beam="2">  1       21 0.17532323E-01 0.14344530E+03</pdfrwt>
<totfact> 0.90380981E+05</totfact>
</mgrwt>
</event>
<event>
 6    1  0.4259848E-002  0.1284056E+03  0.7546771E-02  0.1229841E+00
         21   -1    0    0  504  502  0.00000000000E+00  0.00000000000E+00  0.28077269979E+03  0.28077269979E+03  0.00000000000E+00 0. -1.
         21   -1    0    0  502  503 -0.00000000000E+00 -0.00000000000E+00 -0.26133321963E+03  0.26133321963E+03  0.00000000000E+00 0. -1.
         25    2    1    2    0    0  0.21790411133E+02  0.19702243871E+02  0.26517103267E+03  0.29462461440E+03  0.12499994564E+03 0.  0.
          5    1    3    3  501    0  0.55747372965E+02  0.55769739938E+02  0.16494348615E+03  0.18282340416E+03  0.10000000000E+00 0.  1.
         -5    1    3    3    0  501 -0.33956961832E+02 -0.36067496067E+02  0.10022754653E+03  0.11180121024E+03  0.10000000000E+00 0.  1.
         21    1    1    2  504  503 -0.21790411133E+02 -0.19702243871E+02 -0.24573155252E+03  0.24748130502E+03  0.00000000000E+00 0. -1.
<mgrwt>
<rscale>  1 0.12840556E+03</rscale>
<asrwt>0</asrwt>
<pdfrwt beam="1">  1       21 0.43195800E-01 0.12840556E+03</pdfrwt>
<pdfrwt beam="2">  1       21 0.40205111E-01 0.12840556E+03</pdfrwt>
<totfact> 0.31873302E+04</totfact>
</mgrwt>
</event>
<event>
 6    1  0.4259848E-002  0.1306277E+03  0.7546771E-02  0.1226527E+00
         21   -1    0    0  503  502  0.00000000000E+00  0.00000000000E+00  0.15270761814E+03  0.15270761814E+03  0.00000000000E+00 0.  1.
         21   -1    0    0  504  503 -0.00000000000E+00 -0.00000000000E+00 -0.48172672546E+02  0.48172672546E+02  0.00000000000E+00 0.  1.
         25    2    1    2    0    0 -0.37601564162E+02 -0.51401283258E+01  0.95650066055E+02  0.16190286605E+03  0.12499321722E+03 0.  0.
          5    1    3    3  501    0 -0.31681477709E+02  0.50581561941E+02  0.11467719708E+02  0.60776056417E+02  0.10000000000E+00 0. -1.
         -5    1    3    3    0  501 -0.59200864529E+01 -0.55721690267E+02  0.84182346347E+02  0.10112680963E+03  0.10000000000E+00 0. -1.
         21    1    1    2  504  502  0.37601564162E+02  0.51401283258E+01  0.88848795344E+01  0.38977424633E+02  0.00000000000E+00 0.  1.
<mgrwt>
<rscale>  1 0.13062773E+03</rscale>
<asrwt>0</asrwt>
<pdfrwt beam="1">  1       21 0.23493480E-01 0.13062773E+03</pdfrwt>
<pdfrwt beam="2">  1       21 0.74111804E-02 0.13062773E+03</pdfrwt>
<totfact> 0.23204691E+06</totfact>
</mgrwt>
</event>
<event>
 6    1  0.4259848E-002  0.1534869E+03  0.7546771E-02  0.1196253E+00
         21   -1    0    0  504  502  0.00000000000E+00  0.00000000000E+00  0.58392038756E+01  0.58392038756E+01  0.00000000000E+00 0.  1.
         21   -1    0    0  502  503 -0.00000000000E+00 -0.00000000000E+00 -0.25359624956E+04  0.25359624956E+04  0.00000000000E+00 0.  1.
         25    2    1    2    0    0 -0.71455450222E+02 -0.53160646184E+02 -0.14977959349E+04  0.15056396912E+04  0.12500512612E+03 0.  0.
          5    1    3    3  501    0 -0.30901171422E+02 -0.23845219594E+02 -0.13292322371E+04  0.13298051839E+04  0.10000000000E+00 0. -1.
         -5    1    3    3    0  501 -0.40554278801E+02 -0.29315426590E+02 -0.16856369773E+03  0.17583450730E+03  0.10000000000E+00 0. -1.
         21    1    1    2  504  503  0.71455450222E+02  0.53160646184E+02 -0.10323273568E+04  0.10361620082E+04  0.00000000000E+00 0.  1.
<mgrwt>
<rscale>  1 0.15348686E+03</rscale>
<asrwt>0</asrwt>
<pdfrwt beam="1">  1       21 0.89833958E-03 0.15348686E+03</pdfrwt>
<pdfrwt beam="2">  1       21 0.39014785E+00 0.15348686E+03</pdfrwt>
<totfact> 0.46757426E+04</totfact>
</mgrwt>
</event>
<event>
 6    1  0.4259848E-002  0.1259986E+03  0.7546771E-02  0.1233517E+00
         21   -1    0    0  504  502  0.00000000000E+00  0.00000000000E+00  0.23989838854E+03  0.23989838854E+03  0.00000000000E+00 0.  1.
         21   -1    0    0  502  503 -0.00000000000E+00 -0.00000000000E+00 -0.48412546786E+02  0.48412546786E+02  0.00000000000E+00 0.  1.
         25    2    1    2    0    0 -0.11425340220E+02  0.10653514115E+02  0.22129813705E+03  0.25465371154E+03  0.12502644351E+03 0.  0.
          5    1    3    3  501    0 -0.64142897005E+02  0.28554631286E+02  0.12875494248E+03  0.14665443538E+03  0.10000000000E+00 0.  1.
         -5    1    3    3    0  501  0.52717556785E+02 -0.17901117170E+02  0.92543194565E+02  0.10799927615E+03  0.10000000000E+00 0.  1.
         21    1    1    2  504  503  0.11425340220E+02 -0.10653514115E+02 -0.29812295297E+02  0.33657223786E+02  0.00000000000E+00 0.  1.
<mgrwt>
<rscale>  1 0.12599860E+03</rscale>
<asrwt>0</asrwt>
<pdfrwt beam="1">  1       21 0.36907444E-01 0.12599860E+03</pdfrwt>
<pdfrwt beam="2">  1       21 0.74480842E-02 0.12599860E+03</pdfrwt>
<totfact> 0.96359402E+05</totfact>
</mgrwt>
</event>
<event>
 6    1  0.4259848E-002  0.1260980E+03  0.7546771E-02  0.1233363E+00
         21   -1    0    0  504  502  0.00000000000E+00  0.00000000000E+00  0.75504753218E+02  0.75504753218E+02  0.00000000000E+00 0. -1.
         21   -1    0    0  502  503 -0.00000000000E+00 -0.00000000000E+00 -0.95134185397E+03  0.95134185397E+03  0.00000000000E+00 0. -1.
         25    2    1    2    0    0  0.11431683700E+02 -0.11985826356E+02  0.22727106952E+02  0.12812975590E+03  0.12500547800E+03 0.  0.
          5    1    3    3  501    0  0.27526220581E+02  0.87315690366E+01  0.69076963664E+02  0.74870354789E+02  0.10000000000E+00 0. -1.
         -5    1    3    3    0  501 -0.16094536880E+02 -0.20717395393E+02 -0.46349856712E+02  0.53259401109E+02  0.10000000000E+00 0. -1.
         21    1    1    2  504  503 -0.11431683700E+02  0.11985826356E+02 -0.89856420771E+03  0.89871685129E+03  0.00000000000E+00 0. -1.
<mgrwt>
<rscale>  1 0.12609803E+03</rscale>
<asrwt>0</asrwt>
<pdfrwt beam="1">  1       21 0.11616116E-01 0.12609803E+03</pdfrwt>
<pdfrwt beam="2">  1       21 0.14636029E+00 0.12609803E+03</pdfrwt>
<totfact> 0.20825296E+04</totfact>
</mgrwt>
</event>
<event>
 6    1  0.4259848E-002  0.1269060E+03  0.7546771E-02  0.1232120E+00
         21   -1    0    0  504  502  0.00000000000E+00  0.00000000000E+00  0.19333278615E+03  0.19333278615E+03  0.00000000000E+00 0. -1.
         21   -1    0    0  502  503 -0.00000000000E+00 -0.00000000000E+00 -0.30641202342E+02  0.30641202342E+02  0.00000000000E+00 0. -1.
         25    2    1    2    0    0  0.16429479714E+02 -0.14503681909E+02  0.15591686686E+03  0.20103534463E+03  0.12499942330E+03 0.  0.
          5    1    3    3  501    0  0.38384442497E+02 -0.62138672150E+02  0.75685308015E+02  0.10518011148E+03  0.10000000000E+00 0. -1.
         -5    1    3    3    0  501 -0.21954962782E+02  0.47634990241E+02  0.80231558845E+02  0.95855233142E+02  0.10000000000E+00 0. -1.
         21    1    1    2  504  503 -0.16429479714E+02  0.14503681909E+02  0.67747169458E+01  0.22938643863E+02  0.00000000000E+00 0. -1.
<mgrwt>
<rscale>  1 0.12690603E+03</rscale>
<asrwt>0</asrwt>
<pdfrwt beam="1">  1       21 0.29743505E-01 0.12690603E+03</pdfrwt>
<pdfrwt beam="2">  1       21 0.47140313E-02 0.12690603E+03</pdfrwt>
<totfact> 0.31865447E+06</totfact>
</mgrwt>
</event>
<event>
 6    1  0.4259848E-002  0.1389318E+03  0.7546771E-02  0.1214774E+00
         21   -1    0    0  504  502  0.00000000000E+00  0.00000000000E+00  0.12052627230E+04  0.12052627230E+04  0.00000000000E+00 0.  1.
         21   -1    0    0  502  503 -0.00000000000E+00 -0.00000000000E+00 -0.82628234588E+01  0.82628234588E+01  0.00000000000E+00 0.  1.
         25    2    1    2    0    0 -0.40291315837E+02 -0.45327600009E+02  0.82761692653E+03  0.83919713155E+03  0.12499626824E+03 0.  0.
          5    1    3    3  501    0 -0.18801188363E+02 -0.84847732462E+02  0.65807534982E+03  0.66378897130E+03  0.10000000000E+00 0.  1.
         -5    1    3    3    0  501 -0.21490127473E+02  0.39520132453E+02  0.16954157671E+03  0.17540816025E+03  0.10000000000E+00 0.  1.
         21    1    1    2  504  503  0.40291315837E+02  0.45327600009E+02  0.36938297299E+03  0.37432841488E+03  0.00000000000E+00 0.  1.
<mgrwt>
<rscale>  1 0.13893181E+03</rscale>
<asrwt>0</asrwt>
<pdfrwt beam="1">  1       21 0.18542489E+00 0.13893181E+03</pdfrwt>
<pdfrwt beam="2">  1       21 0.12712046E-02 0.13893181E+03</pdfrwt>
<totfact> 0.43659713E+05</totfact>
</mgrwt>
</event>
<event>
 6    1  0.4259848E-002  0.1407582E+03  0.7546771E-02  0.1212312E+00
         21   -1    0    0  503  502  0.00000000000E+00  0.00000000000E+00  0.29952331723E+02  0.29952331723E+02  0.00000000000E+00 0. -1.
         21   -1    0    0  504  503 -0.00000000000E+00 -0.00000000000E+00 -0.14546123291E+04  0.14546123291E+04  0.00000000000E+00 0.  1.
         25    2    1    2    0    0 -0.64711666721E+02  0.12214188673E+01 -0.14085998903E+03  0.19913416752E+03  0.12499515387E+03 0.  0.
          5    1    3    3  501    0 -0.60524833849E+02 -0.56417820988E+02 -0.88433509625E+02  0.12110624122E+03  0.10000000000E+00 0.  1.
         -5    1    3    3    0  501 -0.41868328722E+01  0.57639239856E+02 -0.52426479407E+02  0.78027926306E+02  0.10000000000E+00 0.  1.
         21    1    1    2  504  502  0.64711666721E+02 -0.12214188673E+01 -0.12838000084E+04  0.12854304933E+04  0.00000000000E+00 0.  1.
<mgrwt>
<rscale>  1 0.14075823E+03</rscale>
<asrwt>0</asrwt>
<pdfrwt beam="1">  1       21 0.46080520E-02 0.14075823E+03</pdfrwt>
<pdfrwt beam="2">  1       21 0.22378646E+00 0.14075823E+03</pdfrwt>
<totfact> 0.30756181E+04</totfact>
</mgrwt>
</event>
<event>
 6    1  0.4259848E-002  0.1290738E+03  0.7546771E-02  0.1228837E+00
         21   -1    0    0  504  502  0.00000000000E+00  0.00000000000E+00  0.13421378197E+02  0.13421378197E+02  0.00000000000E+00 0.  1.
         21   -1    0    0  502  503 -0.00000000000E+00 -0.00000000000E+00 -0.48896868835E+03  0.48896868835E+03  0.00000000000E+00 0.  1.
         25    2    1    2    0    0  0.10322589405E+02 -0.30473561674E+02 -0.35967293110E+03  0.38213173821E+03  0.12499941667E+03 0.  0.
          5    1    3    3  501    0 -0.11313563715E+02 -0.74228238556E+02 -0.26741983051E+03  0.27776105536E+03  0.10000000000E+00 0. -1.
         -5    1    3    3    0  501  0.21636153120E+02  0.43754676882E+02 -0.92253100591E+02  0.10437068285E+03  0.10000000000E+00 0. -1.
         21    1    1    2  504  503 -0.10322589405E+02  0.30473561674E+02 -0.11587437905E+03  0.12025832834E+03  0.00000000000E+00 0. -1.
<mgrwt>
<rscale>  1 0.12907381E+03</rscale>
<asrwt>0</asrwt>
<pdfrwt beam="1">  1       21 0.20648272E-02 0.12907381E+03</pdfrwt>
<pdfrwt beam="2">  1       21 0.75225959E-01 0.12907381E+03</pdfrwt>
<totfact> 0.18420666E+06</totfact>
</mgrwt>
</event>
<event>
 6    1  0.4259848E-002  0.1273781E+03  0.7546771E-02  0.1231399E+00
         21   -1    0    0  503  502  0.00000000000E+00  0.00000000000E+00  0.58545720471E+02  0.58545720471E+02  0.00000000000E+00 0. -1.
         21   -1    0    0  504  503 -0.00000000000E+00 -0.00000000000E+00 -0.31441612004E+03  0.31441612004E+03  0.00000000000E+00 0.  1.
         25    2    1    2    0    0 -0.22526861201E+02  0.96566092041E+01 -0.12087934170E+02  0.12795041218E+03  0.12499792097E+03 0.  0.
          5    1    3    3  501    0 -0.70858503224E+02 -0.31785836932E+01 -0.26800254465E+02  0.75824102453E+02  0.10000000000E+00 0.  1.
         -5    1    3    3    0  501  0.48331642023E+02  0.12835192897E+02  0.14712320295E+02  0.52126309727E+02  0.10000000000E+00 0.  1.
         21    1    1    2  504  502  0.22526861201E+02 -0.96566092041E+01 -0.24378246540E+03  0.24501142834E+03  0.00000000000E+00 0.  1.
<mgrwt>
<rscale>  1 0.12737814E+03</rscale>
<asrwt>0</asrwt>
<pdfrwt beam="1">  1       21 0.90070339E-02 0.12737814E+03</pdfrwt>
<pdfrwt beam="2">  1       21 0.48371711E-01 0.12737814E+03</pdfrwt>
<totfact> 0.40261599E+05</totfact>
</mgrwt>
</event>
<event>
 6    1  0.4259848E-002  0.1260162E+03  0.7546771E-02  0.1233490E+00
         21   -1    0    0  504  502  0.00000000000E+00  0.00000000000E+00  0.72592156380E+02  0.72592156380E+02  0.00000000000E+00 0.  1.
         21   -1    0    0  502  503 -0.00000000000E+00 -0.00000000000E+00 -0.47580356655E+03  0.47580356655E+03  0.00000000000E+00 0. -1.
         25    2    1    2    0    0 -0.10216782356E+02 -0.12439227390E+02  0.17632732382E+02  0.12724383900E+03  0.12498385613E+03 0.  0.
          5    1    3    3  501    0  0.53630190590E+02  0.15968583864E+02  0.44899324572E+01  0.56136997665E+02  0.10000000000E+00 0. -1.
         -5    1    3    3    0  501 -0.63846972946E+02 -0.28407811254E+02  0.13142799925E+02  0.71106841333E+02  0.10000000000E+00 0. -1.
         21    1    1    2  504  503  0.10216782356E+02  0.12439227390E+02 -0.42084414255E+03  0.42115188393E+03  0.00000000000E+00 0. -1.
<mgrwt>
<rscale>  1 0.12601619E+03</rscale>
<asrwt>0</asrwt>
<pdfrwt beam="1">  1       21 0.11168024E-01 0.12601619E+03</pdfrwt>
<pdfrwt beam="2">  1       21 0.73200549E-01 0.12601619E+03</pdfrwt>
<totfact> 0.11483619E+05</totfact>
</mgrwt>
</event>
<event>
 6    1  0.4259848E-002  0.1466054E+03  0.7546771E-02  0.1204707E+00
         21   -1    0    0  503  502  0.00000000000E+00  0.00000000000E+00  0.10369020837E+03  0.10369020837E+03  0.00000000000E+00 0.  1.
         21   -1    0    0  504  503 -0.00000000000E+00 -0.00000000000E+00 -0.37926375807E+03  0.37926375807E+03  0.00000000000E+00 0.  1.
         25    2    1    2    0    0 -0.23207002311E+02 -0.73050135452E+02  0.44990832973E+02  0.15335358615E+03  0.12497303744E+03 0.  0.
          5    1    3    3  501    0  0.20634838613E+02  0.28381790210E+01  0.60824897743E+02  0.64292534638E+02  0.10000000000E+00 0.  1.
         -5    1    3    3    0  501 -0.43841840924E+02 -0.75888314473E+02 -0.15834064771E+02  0.89061051511E+02  0.10000000000E+00 0.  1.
         21    1    1    2  504  502  0.23207002311E+02  0.73050135452E+02 -0.32056438267E+03  0.32960038028E+03  0.00000000000E+00 0.  1.
<mgrwt>
<rscale>  1 0.14660541E+03</rscale>
<asrwt>0</asrwt>
<pdfrwt beam="1">  1       21 0.15952340E-01 0.14660541E+03</pdfrwt>
<pdfrwt beam="2">  1       21 0.58348269E-01 0.14660541E+03</pdfrwt>
<totfact> 0.98202655E+04</totfact>
</mgrwt>
</event>
<event>
 6    1  0.4259848E-002  0.1261086E+03  0.7546771E-02  0.1233347E+00
         21   -1    0    0  504  502  0.00000000000E+00  0.00000000000E+00  0.71907873873E+02  0.71907873873E+02  0.00000000000E+00 0.  1.
         21   -1    0    0  502  503 -0.00000000000E+00 -0.00000000000E+00 -0.71342015892E+02  0.71342015892E+02  0.00000000000E+00 0.  1.
         25    2    1    2    0    0 -0.16846569986E+01 -0.16625887230E+02  0.40748646897E+01  0.12617443008E+03  0.12499649630E+03 0.  0.
          5    1    3    3  501    0  0.21007773243E+02  0.12457586444E+02 -0.52919394882E+02  0.58283705710E+02  0.10000000000E+00 0.  1.
         -5    1    3    3    0  501 -0.22692430242E+02 -0.29083473674E+02  0.56994259572E+02  0.67890724369E+02  0.10000000000E+00 0.  1.
         21    1    1    2  504  503  0.16846569986E+01  0.16625887230E+02 -0.35090067084E+01  0.17075459686E+02  0.00000000000E+00 0. -1.
<mgrwt>
<rscale>  1 0.12610861E+03</rscale>
<asrwt>0</asrwt>
<pdfrwt beam="1">  1       21 0.11062750E-01 0.12610861E+03</pdfrwt>
<pdfrwt beam="2">  1       21 0.10975695E-01 0.12610861E+03</pdfrwt>
<totfact> 0.45960569E+06</totfact>
</mgrwt>
</event>
<event>
 6    1  0.4259848E-002  0.1965942E+03  0.7546771E-02  0.1152645E+00
         21   -1    0    0  504  502  0.00000000000E+00  0.00000000000E+00  0.34727781685E+03  0.34727781685E+03  0.00000000000E+00 0.  1.
         21   -1    0    0  502  503 -0.00000000000E+00 -0.00000000000E+00 -0.15014966043E+03  0.15014966043E+03  0.00000000000E+00 0.  1.
         25    2    1    2    0    0  0.37903009890E+02 -0.14692594671E+03  0.26602287904E+03  0.33078308109E+03  0.12500161034E+03 0.  0.
          5    1    3    3  501    0  0.77346606037E+02 -0.53383367913E+02  0.14536136245E+03  0.17309597664E+03  0.10000000000E+00 0.  1.
         -5    1    3    3    0  501 -0.39443596147E+02 -0.93542578794E+02  0.12066151659E+03  0.15768710445E+03  0.10000000000E+00 0.  1.
         21    1    1    2  504  503 -0.37903009890E+02  0.14692594671E+03 -0.68894722621E+02  0.16664439618E+03  0.00000000000E+00 0.  1.
<mgrwt>
<rscale>  1 0.19659419E+03</rscale>
<asrwt>0</asrwt>
<pdfrwt beam="1">  1       21 0.53427356E-01 0.19659419E+03</pdfrwt>
<pdfrwt beam="2">  1       21 0.23099948E-01 0.19659419E+03</pdfrwt>
<totfact> 0.58268532E+04</totfact>
</mgrwt>
</event>
<event>
 6    1  0.4259848E-002  0.1263904E+03  0.7546771E-02  0.1232912E+00
         21   -1    0    0  504  502  0.00000000000E+00  0.00000000000E+00  0.22311536636E+02  0.22311536636E+02  0.00000000000E+00 0.  1.
         21   -1    0    0  502  503 -0.00000000000E+00 -0.00000000000E+00 -0.68678796740E+03  0.68678796740E+03  0.00000000000E+00 0.  1.
         25    2    1    2    0    0  0.12691916517E+02  0.13802685486E+02 -0.15825967834E+03  0.20253558970E+03  0.12499176147E+03 0.  0.
          5    1    3    3  501    0  0.42005829751E+02 -0.22494440111E+02 -0.12173952130E+02  0.49180328175E+02  0.10000000000E+00 0. -1.
         -5    1    3    3    0  501 -0.29313913234E+02  0.36297125597E+02 -0.14608572621E+03  0.15335526152E+03  0.10000000000E+00 0. -1.
         21    1    1    2  504  503 -0.12691916517E+02 -0.13802685486E+02 -0.50621675243E+03  0.50656391434E+03  0.00000000000E+00 0.  1.
<mgrwt>
<rscale>  1 0.12639042E+03</rscale>
<asrwt>0</asrwt>
<pdfrwt beam="1">  1       21 0.34325444E-02 0.12639042E+03</pdfrwt>
<pdfrwt beam="2">  1       21 0.10565968E+00 0.12639042E+03</pdfrwt>
<totfact> 0.36991277E+05</totfact>
</mgrwt>
</event>
<event>
 6    1  0.4259848E-002  0.1316609E+03  0.7546771E-02  0.1225012E+00
         21   -1    0    0  503  502  0.00000000000E+00  0.00000000000E+00  0.23925067987E+03  0.23925067987E+03  0.00000000000E+00 0.  1.
         21   -1    0    0  504  503 -0.00000000000E+00 -0.00000000000E+00 -0.20522738939E+03  0.20522738939E+03  0.00000000000E+00 0.  1.
         25    2    1    2    0    0 -0.55967117115E+01  0.40966849276E+02  0.21867617548E+03  0.25525255866E+03  0.12499997224E+03 0.  0.
          5    1    3    3  501    0 -0.11486730507E+02 -0.17667104252E+02 -0.68467901141E+01  0.22157619124E+02  0.10000000000E+00 0. -1.
         -5    1    3    3    0  501  0.58900187954E+01  0.58633953528E+02  0.22552296559E+03  0.23309493954E+03  0.10000000000E+00 0. -1.
         21    1    1    2  504  502  0.55967117115E+01 -0.40966849276E+02 -0.18465288500E+03  0.18922551060E+03  0.00000000000E+00 0.  1.
<mgrwt>
<rscale>  1 0.13166092E+03</rscale>
<asrwt>0</asrwt>
<pdfrwt beam="1">  1       21 0.36807797E-01 0.13166092E+03</pdfrwt>
<pdfrwt beam="2">  1       21 0.31573445E-01 0.13166092E+03</pdfrwt>
<totfact> 0.70515431E+04</totfact>
</mgrwt>
</event>
<event>
 6    1  0.4259848E-002  0.1259837E+03  0.7546771E-02  0.1233540E+00
         21   -1    0    0  503  502  0.00000000000E+00  0.00000000000E+00  0.59343352404E+03  0.59343352404E+03  0.00000000000E+00 0. -1.
         21   -1    0    0  504  503 -0.00000000000E+00 -0.00000000000E+00 -0.30881645644E+03  0.30881645644E+03  0.00000000000E+00 0. -1.
         25    2    1    2    0    0 -0.15377529860E+02  0.32180878221E+01  0.58654051460E+03  0.59991805632E+03  0.12500029808E+03 0.  0.
          5    1    3    3  501    0  0.46073699576E+02 -0.62227572880E+01  0.41238936803E+03  0.41500181851E+03  0.10000000000E+00 0. -1.
         -5    1    3    3    0  501 -0.61451229435E+02  0.94408451101E+01  0.17415114657E+03  0.18491623782E+03  0.10000000000E+00 0. -1.
         21    1    1    2  504  502  0.15377529860E+02 -0.32180878221E+01 -0.30192344700E+03  0.30233192415E+03  0.00000000000E+00 0. -1.
<mgrwt>
<rscale>  1 0.12598373E+03</rscale>
<asrwt>0</asrwt>
<pdfrwt beam="1">  1       21 0.91297465E-01 0.12598373E+03</pdfrwt>
<pdfrwt beam="2">  1       21 0.47510224E-01 0.12598373E+03</pdfrwt>
<totfact> 0.45785045E+03</totfact>
</mgrwt>
</event>
<event>
 6    1  0.4259848E-002  0.1508673E+03  0.7546771E-02  0.1199411E+00
         21   -1    0    0  503  502  0.00000000000E+00  0.00000000000E+00  0.39859080523E+03  0.39859080523E+03  0.00000000000E+00 0.  1.
         21   -1    0    0  504  503 -0.00000000000E+00 -0.00000000000E+00 -0.43899076064E+02  0.43899076064E+02  0.00000000000E+00 0.  1.
         25    2    1    2    0    0 -0.78928466350E+02  0.30111144814E+02  0.31476428558E+03  0.34905228397E+03  0.12499823050E+03 0.  0.
          5    1    3    3  501    0 -0.28576638194E+02  0.70843318301E+02  0.10730210958E+03  0.13171618245E+03  0.10000000000E+00 0. -1.
         -5    1    3    3    0  501 -0.50351828155E+02 -0.40732173488E+02  0.20746217600E+03  0.21733610153E+03  0.10000000000E+00 0. -1.
         21    1    1    2  504  502  0.78928466350E+02 -0.30111144814E+02  0.39927443591E+02  0.93437597326E+02  0.00000000000E+00 0.  1.
<mgrwt>
<rscale>  1 0.15086730E+03</rscale>
<asrwt>0</asrwt>
<pdfrwt beam="1">  1       21 0.61321660E-01 0.15086730E+03</pdfrwt>
<pdfrwt beam="2">  1       21 0.67537043E-02 0.15086730E+03</pdfrwt>
<totfact> 0.40114998E+05</totfact>
</mgrwt>
</event>
<event>
 6    1  0.4259848E-002  0.1310551E+03  0.7546771E-02  0.1225898E+00
         21   -1    0    0  504  502  0.00000000000E+00  0.00000000000E+00  0.15811373039E+03  0.15811373039E+03  0.00000000000E+00 0.  1.
         21   -1    0    0  502  503 -0.00000000000E+00 -0.00000000000E+00 -0.53470361400E+02  0.53470361400E+02  0.00000000000E+00 0.  1.
         25    2    1    2    0    0 -0.20819846430E+02 -0.33418074011E+02  0.11094527137E+03  0.17170994415E+03  0.12500087202E+03 0.  0.
          5    1    3    3  501    0 -0.11852181995E+02  0.23131238747E+02 -0.17328356415E+02  0.31237963442E+02  0.10000000000E+00 0.  1.
         -5    1    3    3    0  501 -0.89676644347E+01 -0.56549312758E+02  0.12827362779E+03  0.14047198071E+03  0.10000000000E+00 0.  1.
         21    1    1    2  504  503  0.20819846430E+02  0.33418074011E+02 -0.63019023856E+01  0.39874147635E+02  0.00000000000E+00 0.  1.
<mgrwt>
<rscale>  1 0.13105515E+03</rscale>
<asrwt>0</asrwt>
<pdfrwt beam="1">  1       21 0.24325189E-01 0.13105515E+03</pdfrwt>
<pdfrwt beam="2">  1       21 0.82262095E-02 0.13105515E+03</pdfrwt>
<totfact> 0.18161300E+06</totfact>
</mgrwt>
</event>
<event>
 6    1  0.4259848E-002  0.1263254E+03  0.7546771E-02  0.1233012E+00
         21   -1    0    0  504  502  0.00000000000E+00  0.00000000000E+00  0.13116047766E+03  0.13116047766E+03  0.00000000000E+00 0.  1.
         21   -1    0    0  502  503 -0.00000000000E+00 -0.00000000000E+00 -0.40154560083E+02  0.40154560083E+02  0.00000000000E+00 0.  1.
         25    2    1    2    0    0 -0.18181249166E+02  0.16087393196E+01  0.84297654541E+02  0.15186904442E+03  0.12499986491E+03 0.  0.
          5    1    3    3  501    0 -0.99746558588E+01 -0.50245161859E+02  0.85140501711E+02  0.99362895898E+02  0.10000000000E+00 0. -1.
         -5    1    3    3    0  501 -0.82065933073E+01  0.51853901178E+02 -0.84284716970E+00  0.52506148521E+02  0.10000000000E+00 0. -1.
         21    1    1    2  504  503  0.18181249166E+02 -0.16087393196E+01  0.67082630369E+01  0.19445993325E+02  0.00000000000E+00 0.  1.
<mgrwt>
<rscale>  1 0.12632542E+03</rscale>
<asrwt>0</asrwt>
<pdfrwt beam="1">  1       21 0.20178535E-01 0.12632542E+03</pdfrwt>
<pdfrwt beam="2">  1       21 0.61776247E-02 0.12632542E+03</pdfrwt>
<totfact> 0.41985927E+06</totfact>
</mgrwt>
</event>
<event>
 6    1  0.4259848E-002  0.1295932E+03  0.7546771E-02  0.1228061E+00
         21   -1    0    0  503  502  0.00000000000E+00  0.00000000000E+00  0.48882214772E+02  0.48882214772E+02  0.00000000000E+00 0.  1.
         21   -1    0    0  504  503 -0.00000000000E+00 -0.00000000000E+00 -0.70326468540E+03  0.70326468540E+03  0.00000000000E+00 0. -1.
         25    2    1    2    0    0 -0.32399734148E+02  0.10894605888E+02 -0.38324345535E+02  0.13514118812E+03  0.12500380017E+03 0.  0.
          5    1    3    3  501    0 -0.32881382850E+02 -0.33033824815E+02 -0.67772688227E+02  0.82253061886E+02  0.10000000000E+00 0. -1.
         -5    1    3    3    0  501  0.48164870153E+00  0.43928430703E+02  0.29448342692E+02  0.52888126236E+02  0.10000000000E+00 0. -1.
         21    1    1    2  504  502  0.32399734148E+02 -0.10894605888E+02 -0.61605812509E+03  0.61700571205E+03  0.00000000000E+00 0. -1.
<mgrwt>
<rscale>  1 0.12959315E+03</rscale>
<asrwt>0</asrwt>
<pdfrwt beam="1">  1       21 0.75203411E-02 0.12959315E+03</pdfrwt>
<pdfrwt beam="2">  1       21 0.10819456E+00 0.12959315E+03</pdfrwt>
<totfact> 0.93409501E+04</totfact>
</mgrwt>
</event>
<event>
 6    1  0.4259848E-002  0.1276573E+03  0.7546771E-02  0.1230974E+00
         21   -1    0    0  503  502  0.00000000000E+00  0.00000000000E+00  0.77817886608E+02  0.77817886608E+02  0.00000000000E+00 0. -1.
         21   -1    0    0  504  503 -0.00000000000E+00 -0.00000000000E+00 -0.82572653273E+02  0.82572653273E+02  0.00000000000E+00 0. -1.
         25    2    1    2    0    0  0.16268987322E+02  0.20153802581E+02  0.13985355345E+02  0.12842105631E+03  0.12500208731E+03 0.  0.
          5    1    3    3  501    0 -0.10595760322E+02  0.70119550704E+02  0.86273919429E+01  0.71438528957E+02  0.10000000000E+00 0.  1.
         -5    1    3    3    0  501  0.26864747644E+02 -0.49965748124E+02  0.53579634018E+01  0.56982527352E+02  0.10000000000E+00 0.  1.
         21    1    1    2  504  502 -0.16268987322E+02 -0.20153802581E+02 -0.18740122010E+02  0.31969483572E+02  0.00000000000E+00 0. -1.
<mgrwt>
<rscale>  1 0.12765727E+03</rscale>
<asrwt>0</asrwt>
<pdfrwt beam="1">  1       21 0.11971982E-01 0.12765727E+03</pdfrwt>
<pdfrwt beam="2">  1       21 0.12703485E-01 0.12765727E+03</pdfrwt>
<totfact> 0.30886306E+06</totfact>
</mgrwt>
</event>
<event>
 6    1  0.4259848E-002  0.1278576E+03  0.7546771E-02  0.1230670E+00
         21   -1    0    0  504  502  0.00000000000E+00  0.00000000000E+00  0.63077400810E+03  0.63077400810E+03  0.00000000000E+00 0.  1.
         21   -1    0    0  502  503 -0.00000000000E+00 -0.00000000000E+00 -0.13221693497E+02  0.13221693497E+02  0.00000000000E+00 0.  1.
         25    2    1    2    0    0  0.18214162066E+02  0.19785721208E+02  0.59592053060E+03  0.60948244990E+03  0.12499738991E+03 0.  0.
          5    1    3    3  501    0  0.16422281377E+02  0.23633959730E+02  0.23798874920E+02  0.37345037496E+02  0.10000000000E+00 0.  1.
         -5    1    3    3    0  501  0.17918806890E+01 -0.38482385220E+01  0.57212165568E+03  0.57213741240E+03  0.10000000000E+00 0.  1.
         21    1    1    2  504  503 -0.18214162066E+02 -0.19785721208E+02  0.21631784005E+02  0.34513251697E+02  0.00000000000E+00 0.  1.
<mgrwt>
<rscale>  1 0.12785765E+03</rscale>
<asrwt>0</asrwt>
<pdfrwt beam="1">  1       21 0.97042131E-01 0.12785765E+03</pdfrwt>
<pdfrwt beam="2">  1       21 0.20341072E-02 0.12785765E+03</pdfrwt>
<totfact> 0.10603727E+06</totfact>
</mgrwt>
</event>
<event>
 6    1  0.4259848E-002  0.1388574E+03  0.7546771E-02  0.1214875E+00
         21   -1    0    0  504  502  0.00000000000E+00  0.00000000000E+00  0.33739965614E+03  0.33739965614E+03  0.00000000000E+00 0. -1.
         21   -1    0    0  502  503 -0.00000000000E+00 -0.00000000000E+00 -0.37834268810E+02  0.37834268810E+02  0.00000000000E+00 0. -1.
         25    2    1    2    0    0 -0.50442765183E+02 -0.33279415471E+02  0.27856859056E+03  0.31125848022E+03  0.12501755801E+03 0.  0.
          5    1    3    3  501    0  0.41118585606E+02  0.19758343298E+00  0.74332584282E+02  0.84947749867E+02  0.10000000000E+00 0. -1.
         -5    1    3    3    0  501 -0.91561350788E+02 -0.33476998904E+02  0.20423600628E+03  0.22631073036E+03  0.10000000000E+00 0. -1.
         21    1    1    2  504  503  0.50442765183E+02  0.33279415471E+02  0.20996796768E+02  0.63975444726E+02  0.00000000000E+00 0. -1.
<mgrwt>
<rscale>  1 0.13885742E+03</rscale>
<asrwt>0</asrwt>
<pdfrwt beam="1">  1       21 0.51907637E-01 0.13885742E+03</pdfrwt>
<pdfrwt beam="2">  1       21 0.58206570E-02 0.13885742E+03</pdfrwt>
<totfact> 0.73537074E+05</totfact>
</mgrwt>
</event>
<event>
 6    1  0.4259848E-002  0.1264512E+03  0.7546771E-02  0.1232819E+00
         21   -1    0    0  504  502  0.00000000000E+00  0.00000000000E+00  0.17704077921E+02  0.17704077921E+02  0.00000000000E+00 0.  1.
         21   -1    0    0  502  503 -0.00000000000E+00 -0.00000000000E+00 -0.29942561151E+03  0.29942561151E+03  0.00000000000E+00 0.  1.
         25    2    1    2    0    0  0.31974789595E+01 -0.18802064375E+02 -0.24082826621E+03  0.27200762372E+03  0.12500460817E+03 0.  0.
          5    1    3    3  501    0  0.51959494688E+02 -0.17501259850E+02 -0.20301480145E+03  0.21028814230E+03  0.10000000000E+00 0.  1.
         -5    1    3    3    0  501 -0.48762015728E+02 -0.13008045251E+01 -0.37813464755E+02  0.61719481423E+02  0.10000000000E+00 0.  1.
         21    1    1    2  504  503 -0.31974789595E+01  0.18802064375E+02 -0.40893267386E+02  0.45122065710E+02  0.00000000000E+00 0.  1.
<mgrwt>
<rscale>  1 0.12645115E+03</rscale>
<asrwt>0</asrwt>
<pdfrwt beam="1">  1       21 0.27237044E-02 0.12645115E+03</pdfrwt>
<pdfrwt beam="2">  1       21 0.46065477E-01 0.12645115E+03</pdfrwt>
<totfact> 0.33186142E+06</totfact>
</mgrwt>
</event>
<event>
 6    1  0.4259848E-002  0.1261192E+03  0.7546771E-02  0.1233330E+00
         21   -1    0    0  504  502  0.00000000000E+00  0.00000000000E+00  0.82518740112E+03  0.82518740112E+03  0.00000000000E+00 0. -1.
         21   -1    0    0  502  503 -0.00000000000E+00 -0.00000000000E+00 -0.69241477264E+01  0.69241477264E+01  0.00000000000E+00 0. -1.
         25    2    1    2    0    0  0.11047847206E+02  0.12458293628E+02  0.78326930707E+03  0.79335796466E+03  0.12501515382E+03 0.  0.
          5    1    3    3  501    0 -0.40028799518E+02  0.44597299486E+02  0.27102604915E+03  0.27757224867E+03  0.10000000000E+00 0. -1.
         -5    1    3    3    0  501  0.51076646723E+02 -0.32139005859E+02  0.51224325792E+03  0.51578571599E+03  0.10000000000E+00 0. -1.
         21    1    1    2  504  503 -0.11047847206E+02 -0.12458293628E+02  0.34993946327E+02  0.38753584189E+02  0.00000000000E+00 0. -1.
<mgrwt>
<rscale>  1 0.12611920E+03</rscale>
<asrwt>0</asrwt>
<pdfrwt beam="1">  1       21 0.12695183E+00 0.12611920E+03</pdfrwt>
<pdfrwt beam="2">  1       21 0.10652541E-02 0.12611920E+03</pdfrwt>
<totfact> 0.15637710E+06</totfact>
</mgrwt>
</event>
<event>
 6    1  0.4259848E-002  0.1264381E+03  0.7546771E-02  0.1232839E+00
         21   -1    0    0  503  502  0.00000000000E+00  0.00000000000E+00  0.66339522068E+02  0.66339522068E+02  0.00000000000E+00 0. -1.
         21   -1    0    0  504  503 -0.00000000000E+00 -0.00000000000E+00 -0.14191507259E+03  0.14191507259E+03  0.00000000000E+00 0. -1.
         25    2    1    2    0    0 -0.33753898573E+01  0.18644223035E+02  0.39532465414E+01  0.12649990139E+03  0.12501038590E+03 0.  0.
          5    1    3    3  501    0 -0.11537682688E+02 -0.52057904862E+02 -0.92391635876E+01  0.54115762253E+02  0.10000000000E+00 0.  1.
         -5    1    3    3    0  501  0.81622928312E+01  0.70702127896E+02  0.13192410129E+02  0.72384139135E+02  0.10000000000E+00 0.  1.
         21    1    1    2  504  502  0.33753898573E+01 -0.18644223035E+02 -0.79528797067E+02  0.81754693273E+02  0.00000000000E+00 0. -1.
<mgrwt>
<rscale>  1 0.12643811E+03</rscale>
<asrwt>0</asrwt>
<pdfrwt beam="1">  1       21 0.10206080E-01 0.12643811E+03</pdfrwt>
<pdfrwt beam="2">  1       21 0.21833088E-01 0.12643811E+03</pdfrwt>
<totfact> 0.15271160E+06</totfact>
</mgrwt>
</event>
<event>
 6    1  0.4259848E-002  0.1288413E+03  0.7546771E-02  0.1229185E+00
         21   -1    0    0  503  502  0.00000000000E+00  0.00000000000E+00  0.37851334908E+02  0.37851334908E+02  0.00000000000E+00 0. -1.
         21   -1    0    0  504  503 -0.00000000000E+00 -0.00000000000E+00 -0.17964684307E+04  0.17964684307E+04  0.00000000000E+00 0. -1.
         25    2    1    2    0    0  0.23980010627E+02 -0.20134881493E+02 -0.72356641768E+02  0.14776861810E+03  0.12497850425E+03 0.  0.
          5    1    3    3  501    0  0.12085667045E+02 -0.72122530228E+02 -0.27660857839E+02  0.78184754082E+02  0.10000000000E+00 0. -1.
         -5    1    3    3    0  501  0.11894343582E+02  0.51987648736E+02 -0.44695783929E+02  0.69583864016E+02  0.10000000000E+00 0. -1.
         21    1    1    2  504  502 -0.23980010627E+02  0.20134881493E+02 -0.16862604540E+04  0.16865511475E+04  0.00000000000E+00 0. -1.
<mgrwt>
<rscale>  1 0.12884130E+03</rscale>
<asrwt>0</asrwt>
<pdfrwt beam="1">  1       21 0.58232806E-02 0.12884130E+03</pdfrwt>
<pdfrwt beam="2">  1       21 0.27637984E+00 0.12884130E+03</pdfrwt>
<totfact> 0.10448303E+04</totfact>
</mgrwt>
</event>
<event>
 6    1  0.4259848E-002  0.1338190E+03  0.7546771E-02  0.1221897E+00
         21   -1    0    0  504  502  0.00000000000E+00  0.00000000000E+00  0.32112968226E+03  0.32112968226E+03  0.00000000000E+00 0.  1.
         21   -1    0    0  502  503 -0.00000000000E+00 -0.00000000000E+00 -0.11477177114E+03  0.11477177114E+03  0.00000000000E+00 0.  1.
         25    2    1    2    0    0  0.11156950929E+02  0.46472415006E+02  0.30126024713E+03  0.32964414169E+03  0.12499344277E+03 0.  0.
          5    1    3    3  501    0 -0.10550267247E+02 -0.37001316725E+02  0.15629230092E+03  0.16095868695E+03  0.10000000000E+00 0.  1.
         -5    1    3    3    0  501  0.21707218177E+02  0.83473731732E+02  0.14496794621E+03  0.16868545473E+03  0.10000000000E+00 0.  1.
         21    1    1    2  504  503 -0.11156950929E+02 -0.46472415006E+02 -0.94902336018E+02  0.10625731171E+03  0.00000000000E+00 0.  1.
<mgrwt>
<rscale>  1 0.13381900E+03</rscale>
<asrwt>0</asrwt>
<pdfrwt beam="1">  1       21 0.49404566E-01 0.13381900E+03</pdfrwt>
<pdfrwt beam="2">  1       21 0.17657196E-01 0.13381900E+03</pdfrwt>
<totfact> 0.11611218E+05</totfact>
</mgrwt>
</event>
<event>
 6    1  0.4259848E-002  0.1270606E+03  0.7546771E-02  0.1231884E+00
         21   -1    0    0  503  502  0.00000000000E+00  0.00000000000E+00  0.12746538964E+03  0.12746538964E+03  0.00000000000E+00 0.  1.
         21   -1    0    0  504  503 -0.00000000000E+00 -0.00000000000E+00 -0.11170794961E+03  0.11170794961E+03  0.00000000000E+00 0.  1.
         25    2    1    2    0    0 -0.22780861021E+02  0.34499550359E+00  0.93761441543E+02  0.15791011939E+03  0.12500124494E+03 0.  0.
          5    1    3    3  501    0 -0.19673439469E+02 -0.59188793997E+02  0.69939527394E+02  0.93711819145E+02  0.10000000000E+00 0.  1.
         -5    1    3    3    0  501 -0.31074215515E+01  0.59533789500E+02  0.23821914149E+02  0.64198300248E+02  0.10000000000E+00 0.  1.
         21    1    1    2  504  502  0.22780861021E+02 -0.34499550359E+00 -0.78004001507E+02  0.81263219859E+02  0.00000000000E+00 0.  1.
<mgrwt>
<rscale>  1 0.12706061E+03</rscale>
<asrwt>0</asrwt>
<pdfrwt beam="1">  1       21 0.19610060E-01 0.12706061E+03</pdfrwt>
<pdfrwt beam="2">  1       21 0.17185838E-01 0.12706061E+03</pdfrwt>
<totfact> 0.73520174E+05</totfact>
</mgrwt>
</event>
<event>
 6    1  0.4259848E-002  0.1295523E+03  0.7546771E-02  0.1228122E+00
         21   -1    0    0  504  502  0.00000000000E+00  0.00000000000E+00  0.77322794549E+03  0.77322794549E+03  0.00000000000E+00 0.  1.
         21   -1    0    0  502  503 -0.00000000000E+00 -0.00000000000E+00 -0.16124088635E+02  0.16124088635E+02  0.00000000000E+00 0.  1.
         25    2    1    2    0    0  0.10267070590E+02 -0.32334677277E+02  0.74019368699E+03  0.75144559749E+03  0.12503138661E+03 0.  0.
          5    1    3    3  501    0  0.20915766259E+01  0.85989907428E+01 -0.11526538995E+01  0.89250179602E+01  0.10000000000E+00 0.  1.
         -5    1    3    3    0  501  0.81754939637E+01 -0.40933668020E+02  0.74134634089E+03  0.74252057953E+03  0.10000000000E+00 0.  1.
         21    1    1    2  504  503 -0.10267070590E+02  0.32334677277E+02  0.16910169860E+02  0.37906436627E+02  0.00000000000E+00 0.  1.
<mgrwt>
<rscale>  1 0.12955227E+03</rscale>
<asrwt>0</asrwt>
<pdfrwt beam="1">  1       21 0.11895812E+00 0.12955227E+03</pdfrwt>
<pdfrwt beam="2">  1       21 0.24806296E-02 0.12955227E+03</pdfrwt>
<totfact> 0.47367079E+05</totfact>
</mgrwt>
</event>
<event>
 6    1  0.4259848E-002  0.1271987E+03  0.7546771E-02  0.1231673E+00
         21   -1    0    0  503  502  0.00000000000E+00  0.00000000000E+00  0.46327766701E+02  0.46327766701E+02  0.00000000000E+00 0.  1.
         21   -1    0    0  504  503 -0.00000000000E+00 -0.00000000000E+00 -0.53897178738E+03  0.53897178738E+03  0.00000000000E+00 0.  1.
         25    2    1    2    0    0 -0.84580110613E+00 -0.23486695659E+02 -0.41869152840E+02  0.13391244557E+03  0.12500870717E+03 0.  0.
          5    1    3    3  501    0 -0.50777170113E+02  0.25863276441E+02 -0.17908112690E+02  0.59732240650E+02  0.10000000000E+00 0.  1.
         -5    1    3    3    0  501  0.49931369007E+02 -0.49349972101E+02 -0.23961040151E+02  0.74180204923E+02  0.10000000000E+00 0.  1.
         21    1    1    2  504  502  0.84580110613E+00  0.23486695659E+02 -0.45077486784E+03  0.45138710851E+03  0.00000000000E+00 0.  1.
<mgrwt>
<rscale>  1 0.12719873E+03</rscale>
<asrwt>0</asrwt>
<pdfrwt beam="1">  1       21 0.71273491E-02 0.12719873E+03</pdfrwt>
<pdfrwt beam="2">  1       21 0.82918732E-01 0.12719873E+03</pdfrwt>
<totfact> 0.18973694E+05</totfact>
</mgrwt>
</event>
<event>
 6    1  0.4259848E-002  0.1423321E+03  0.7546771E-02  0.1210225E+00
         21   -1    0    0  503  502  0.00000000000E+00  0.00000000000E+00  0.95571979625E+03  0.95571979625E+03  0.00000000000E+00 0.  1.
         21   -1    0    0  504  503 -0.00000000000E+00 -0.00000000000E+00 -0.18403823163E+02  0.18403823163E+02  0.00000000000E+00 0.  1.
         25    2    1    2    0    0  0.35897245434E+02  0.57817884764E+02  0.85750197822E+03  0.86923418332E+03  0.12500761082E+03 0.  0.
          5    1    3    3  501    0  0.52539242405E+02 -0.22292066453E+02  0.44951716804E+03  0.45312581319E+03  0.10000000000E+00 0. -1.
         -5    1    3    3    0  501 -0.16641996971E+02  0.80109951217E+02  0.40798481019E+03  0.41610837013E+03  0.10000000000E+00 0. -1.
         21    1    1    2  504  502 -0.35897245434E+02 -0.57817884764E+02  0.79813994866E+02  0.10488943610E+03  0.00000000000E+00 0.  1.
<mgrwt>
<rscale>  1 0.14233209E+03</rscale>
<asrwt>0</asrwt>
<pdfrwt beam="1">  1       21 0.14703378E+00 0.14233209E+03</pdfrwt>
<pdfrwt beam="2">  1       21 0.28313581E-02 0.14233209E+03</pdfrwt>
<totfact> 0.22351730E+05</totfact>
</mgrwt>
</event>
<event>
 6    1  0.4259848E-002  0.1347582E+03  0.7546771E-02  0.1220562E+00
         21   -1    0    0  504  502  0.00000000000E+00  0.00000000000E+00  0.85915359356E+02  0.85915359356E+02  0.00000000000E+00 0.  1.
         21   -1    0    0  502  503 -0.00000000000E+00 -0.00000000000E+00 -0.11426699748E+03  0.11426699748E+03  0.00000000000E+00 0.  1.
         25    2    1    2    0    0 -0.38894935007E+02 -0.31974349615E+02  0.12509966451E+02  0.13533757500E+03  0.12499833977E+03 0.  0.
          5    1    3    3  501    0 -0.68723803599E+02 -0.45472410380E+02 -0.24454762917E+02  0.85957819401E+02  0.10000000000E+00 0.  1.
         -5    1    3    3    0  501  0.29828868592E+02  0.13498060765E+02  0.36964729368E+02  0.49379755600E+02  0.10000000000E+00 0.  1.
         21    1    1    2  504  503  0.38894935007E+02  0.31974349615E+02 -0.40861604572E+02  0.64844781831E+02  0.00000000000E+00 0.  1.
<mgrwt>
<rscale>  1 0.13475815E+03</rscale>
<asrwt>0</asrwt>
<pdfrwt beam="1">  1       21 0.13217748E-01 0.13475815E+03</pdfrwt>
<pdfrwt beam="2">  1       21 0.17579538E-01 0.13475815E+03</pdfrwt>
<totfact> 0.14439789E+06</totfact>
</mgrwt>
</event>
<event>
 6    1  0.4259848E-002  0.1361489E+03  0.7546771E-02  0.1218607E+00
         21   -1    0    0  503  502  0.00000000000E+00  0.00000000000E+00  0.38216096630E+03  0.38216096630E+03  0.00000000000E+00 0.  1.
         21   -1    0    0  504  503 -0.00000000000E+00 -0.00000000000E+00 -0.33786013523E+02  0.33786013523E+02  0.00000000000E+00 0.  1.
         25    2    1    2    0    0  0.40182838686E+02  0.36020407627E+02  0.33311911645E+03  0.35986783189E+03  0.12499752155E+03 0.  0.
          5    1    3    3  501    0 -0.29945032928E+02  0.53379811736E+02  0.18885343233E+03  0.19852389831E+03  0.10000000000E+00 0. -1.
         -5    1    3    3    0  501  0.70127871614E+02 -0.17359404109E+02  0.14426568412E+03  0.16134393358E+03  0.10000000000E+00 0. -1.
         21    1    1    2  504  502 -0.40182838686E+02 -0.36020407627E+02  0.15255836323E+02  0.56079147928E+02  0.00000000000E+00 0.  1.
<mgrwt>
<rscale>  1 0.13614885E+03</rscale>
<asrwt>0</asrwt>
<pdfrwt beam="1">  1       21 0.58793992E-01 0.13614885E+03</pdfrwt>
<pdfrwt beam="2">  1       21 0.51978485E-02 0.13614885E+03</pdfrwt>
<totfact> 0.68563856E+05</totfact>
</mgrwt>
</event>
<event>
 6    1  0.4259848E-002  0.1275599E+03  0.7546771E-02  0.1231122E+00
         21   -1    0    0  503  502  0.00000000000E+00  0.00000000000E+00  0.48938072843E+03  0.48938072843E+03  0.00000000000E+00 0. -1.
         21   -1    0    0  504  503 -0.00000000000E+00 -0.00000000000E+00 -0.25391207408E+02  0.25391207408E+02  0.00000000000E+00 0. -1.
         25    2    1    2    0    0  0.18341110126E+02 -0.17500566063E+02  0.47140506342E+03  0.48835874969E+03  0.12501547283E+03 0.  0.
          5    1    3    3  501    0  0.41789390469E+02 -0.36957410456E+02  0.44364740302E+03  0.44714117630E+03  0.10000000000E+00 0.  1.
         -5    1    3    3    0  501 -0.23448280344E+02  0.19456844393E+02  0.27757660404E+02  0.41217573387E+02  0.10000000000E+00 0.  1.
         21    1    1    2  504  502 -0.18341110126E+02  0.17500566063E+02 -0.74155424012E+01  0.26413186144E+02  0.00000000000E+00 0. -1.
<mgrwt>
<rscale>  1 0.12755993E+03</rscale>
<asrwt>0</asrwt>
<pdfrwt beam="1">  1       21 0.75289336E-01 0.12755993E+03</pdfrwt>
<pdfrwt beam="2">  1       21 0.39063400E-02 0.12755993E+03</pdfrwt>
<totfact> 0.64770216E+05</totfact>
</mgrwt>
</event>
<event>
 6    1  0.4259848E-002  0.1295041E+03  0.7546771E-02  0.1228193E+00
         21   -1    0    0  503  502  0.00000000000E+00  0.00000000000E+00  0.38224416760E+03  0.38224416760E+03  0.00000000000E+00 0. -1.
         21   -1    0    0  504  503 -0.00000000000E+00 -0.00000000000E+00 -0.23793167449E+02  0.23793167449E+02  0.00000000000E+00 0. -1.
         25    2    1    2    0    0 -0.33728771300E+02  0.17760580942E+01  0.34699167965E+03  0.37037081823E+03  0.12502212944E+03 0.  0.
          5    1    3    3  501    0 -0.69025244115E+02  0.30165625480E+02  0.14542277061E+03  0.16377497214E+03  0.10000000000E+00 0. -1.
         -5    1    3    3    0  501  0.35296472816E+02 -0.28389567385E+02  0.20156890904E+03  0.20659584609E+03  0.10000000000E+00 0. -1.
         21    1    1    2  504  502  0.33728771300E+02 -0.17760580942E+01  0.11459320493E+02  0.35666516818E+02  0.00000000000E+00 0. -1.
<mgrwt>
<rscale>  1 0.12950412E+03</rscale>
<asrwt>0</asrwt>
<pdfrwt beam="1">  1       21 0.58806791E-01 0.12950412E+03</pdfrwt>
<pdfrwt beam="2">  1       21 0.36604876E-02 0.12950412E+03</pdfrwt>
<totfact> 0.12305470E+06</totfact>
</mgrwt>
</event>
<event>
 6    1  0.4259848E-002  0.1264698E+03  0.7546771E-02  0.1232790E+00
         21   -1    0    0  503  502  0.00000000000E+00  0.00000000000E+00  0.26378647379E+03  0.26378647379E+03  0.00000000000E+00 0.  1.
         21   -1    0    0  504  503 -0.00000000000E+00 -0.00000000000E+00 -0.53677415493E+02  0.53677415493E+02  0.00000000000E+00 0.  1.
         25    2    1    2    0    0 -0.60799090179E+01  0.18239408485E+02  0.21992904009E+02  0.12836780572E+03  0.12499985761E+03 0.  0.
          5    1    3    3  501    0 -0.26611398872E+02  0.40770858244E+02  0.61518107277E+02  0.78453278802E+02  0.10000000000E+00 0.  1.
         -5    1    3    3    0  501  0.20531489854E+02 -0.22531449759E+02 -0.39525203268E+02  0.49914526916E+02  0.10000000000E+00 0.  1.
         21    1    1    2  504  502  0.60799090179E+01 -0.18239408485E+02  0.18811615429E+03  0.18909608356E+03  0.00000000000E+00 0.  1.
<mgrwt>
<rscale>  1 0.12646978E+03</rscale>
<asrwt>0</asrwt>
<pdfrwt beam="1">  1       21 0.40582534E-01 0.12646978E+03</pdfrwt>
<pdfrwt beam="2">  1       21 0.82580641E-02 0.12646978E+03</pdfrwt>
<totfact> 0.66796034E+05</totfact>
</mgrwt>
</event>
<event>
 6    1  0.4259848E-002  0.1265237E+03  0.7546771E-02  0.1232707E+00
         21   -1    0    0  504  502  0.00000000000E+00  0.00000000000E+00  0.36063784824E+02  0.36063784824E+02  0.00000000000E+00 0. -1.
         21   -1    0    0  502  503 -0.00000000000E+00 -0.00000000000E+00 -0.19362523264E+03  0.19362523264E+03  0.00000000000E+00 0. -1.
         25    2    1    2    0    0 -0.10555078395E+02 -0.16301995961E+02 -0.79909793882E+02  0.14964562854E+03  0.12502429456E+03 0.  0.
          5    1    3    3  501    0 -0.58329312443E+02 -0.40482829830E+02 -0.32331436447E+02  0.78016023892E+02  0.10000000000E+00 0.  1.
         -5    1    3    3    0  501  0.47774234048E+02  0.24180833869E+02 -0.47578357435E+02  0.71629604645E+02  0.10000000000E+00 0.  1.
         21    1    1    2  504  503  0.10555078395E+02  0.16301995961E+02 -0.77651653930E+02  0.80043388923E+02  0.00000000000E+00 0. -1.
<mgrwt>
<rscale>  1 0.12652367E+03</rscale>
<asrwt>0</asrwt>
<pdfrwt beam="1">  1       21 0.55482746E-02 0.12652367E+03</pdfrwt>
<pdfrwt beam="2">  1       21 0.29788497E-01 0.12652367E+03</pdfrwt>
<totfact> 0.24158518E+06</totfact>
</mgrwt>
</event>
<event>
 6    1  0.4259848E-002  0.1277539E+03  0.7546771E-02  0.1230827E+00
         21   -1    0    0  503  502  0.00000000000E+00  0.00000000000E+00  0.11188640580E+02  0.11188640580E+02  0.00000000000E+00 0. -1.
         21   -1    0    0  504  503 -0.00000000000E+00 -0.00000000000E+00 -0.74235209670E+03  0.74235209670E+03  0.00000000000E+00 0. -1.
         25    2    1    2    0    0  0.15631893643E+02 -0.21326130044E+02 -0.37046047851E+03  0.39186989524E+03  0.12498755434E+03 0.  0.
          5    1    3    3  501    0  0.51034209504E+02 -0.47020697299E+02 -0.12901184882E+03  0.14649062650E+03  0.10000000000E+00 0.  1.
         -5    1    3    3    0  501 -0.35402315861E+02  0.25694567255E+02 -0.24144862968E+03  0.24537926875E+03  0.10000000000E+00 0.  1.
         21    1    1    2  504  502 -0.15631893643E+02  0.21326130044E+02 -0.36070297761E+03  0.36167084203E+03  0.00000000000E+00 0. -1.
<mgrwt>
<rscale>  1 0.12775386E+03</rscale>
<asrwt>0</asrwt>
<pdfrwt beam="1">  1       21 0.17213285E-02 0.12775386E+03</pdfrwt>
<pdfrwt beam="2">  1       21 0.11420807E+00 0.12775386E+03</pdfrwt>
<totfact> 0.94336574E+05</totfact>
</mgrwt>
</event>
<event>
 6    1  0.4259848E-002  0.1278718E+03  0.7546771E-02  0.1230648E+00
         21   -1    0    0  504  502  0.00000000000E+00  0.00000000000E+00  0.16995279433E+04  0.16995279433E+04  0.00000000000E+00 0.  1.
         21   -1    0    0  502  503 -0.00000000000E+00 -0.00000000000E+00 -0.95528790451E+01  0.95528790451E+01  0.00000000000E+00 0.  1.
         25    2    1    2    0    0 -0.98077135596E+01 -0.25049399735E+02  0.16716446889E+04  0.16765283058E+04  0.12501012197E+03 0.  0.
          5    1    3    3  501    0 -0.24721651228E+02 -0.71835302845E+02  0.11780266796E+04  0.11804737772E+04  0.10000000000E+00 0. -1.
         -5    1    3    3    0  501  0.14913937668E+02  0.46785903111E+02  0.49361800925E+03  0.49605452858E+03  0.10000000000E+00 0. -1.
         21    1    1    2  504  503  0.98077135596E+01  0.25049399735E+02  0.18330375371E+02  0.32552516548E+02  0.00000000000E+00 0.  1.
<mgrwt>
<rscale>  1 0.12787179E+03</rscale>
<asrwt>0</asrwt>
<pdfrwt beam="1">  1       21 0.26146560E+00 0.12787179E+03</pdfrwt>
<pdfrwt beam="2">  1       21 0.14696751E-02 0.12787179E+03</pdfrwt>
<totfact> 0.12148746E+05</totfact>
</mgrwt>
</event>
<event>
 6    1  0.4259848E-002  0.1259674E+03  0.7546771E-02  0.1233565E+00
         21   -1    0    0  504  502  0.00000000000E+00  0.00000000000E+00  0.23477973957E+02  0.23477973957E+02  0.00000000000E+00 0.  1.
         21   -1    0    0  502  503 -0.00000000000E+00 -0.00000000000E+00 -0.21362183194E+03  0.21362183194E+03  0.00000000000E+00 0.  1.
         25    2    1    2    0    0  0.91224563873E+01  0.12623178744E+02 -0.17187173705E+03  0.21309076061E+03  0.12500085763E+03 0.  0.
          5    1    3    3  501    0 -0.18385059800E+02 -0.51848525454E+02 -0.88062150490E+02  0.10383271336E+03  0.10000000000E+00 0. -1.
         -5    1    3    3    0  501  0.27507516187E+02  0.64471704198E+02 -0.83809586558E+02  0.10925804725E+03  0.10000000000E+00 0. -1.
         21    1    1    2  504  503 -0.91224563873E+01 -0.12623178744E+02 -0.18272120932E+02  0.24009045285E+02  0.00000000000E+00 0.  1.
<mgrwt>
<rscale>  1 0.12596737E+03</rscale>
<asrwt>0</asrwt>
<pdfrwt beam="1">  1       21 0.36119962E-02 0.12596737E+03</pdfrwt>
<pdfrwt beam="2">  1       21 0.32864895E-01 0.12596737E+03</pdfrwt>
<totfact> 0.40883133E+06</totfact>
</mgrwt>
</event>
<event>
 6    1  0.4259848E-002  0.1351565E+03  0.7546771E-02  0.1219999E+00
         21   -1    0    0  504  502  0.00000000000E+00  0.00000000000E+00  0.21906443980E+03  0.21906443980E+03  0.00000000000E+00 0. -1.
         21   -1    0    0  502  503 -0.00000000000E+00 -0.00000000000E+00 -0.10850345579E+04  0.10850345579E+04  0.00000000000E+00 0.  1.
         25    2    1    2    0    0 -0.39028087900E+02 -0.33457039718E+02  0.19753743155E+03  0.23934979092E+03  0.12499888159E+03 0.  0.
          5    1    3    3  501    0  0.25042809860E+02 -0.41847543519E+02  0.15373472978E+03  0.16128464392E+03  0.10000000000E+00 0.  1.
         -5    1    3    3    0  501 -0.64070897760E+02  0.83905038005E+01  0.43802701774E+02  0.78065147002E+02  0.10000000000E+00 0.  1.
         21    1    1    2  504  503  0.39028087900E+02  0.33457039718E+02 -0.10635075496E+04  0.10647492068E+04  0.00000000000E+00 0.  1.
<mgrwt>
<rscale>  1 0.13515652E+03</rscale>
<asrwt>0</asrwt>
<pdfrwt beam="1">  1       21 0.33702222E-01 0.13515652E+03</pdfrwt>
<pdfrwt beam="2">  1       21 0.16692839E+00 0.13515652E+03</pdfrwt>
<totfact> 0.20290611E+03</totfact>
</mgrwt>
</event>
<event>
 6    1  0.4259848E-002  0.1300064E+03  0.7546771E-02  0.1227446E+00
         21   -1    0    0  504  502  0.00000000000E+00  0.00000000000E+00  0.10848759564E+03  0.10848759564E+03  0.00000000000E+00 0. -1.
         21   -1    0    0  502  503 -0.00000000000E+00 -0.00000000000E+00 -0.73372107114E+02  0.73372107114E+02  0.00000000000E+00 0. -1.
         25    2    1    2    0    0  0.31544848267E+02 -0.16764687550E+02  0.54786552384E+02  0.14107878866E+03  0.12500210433E+03 0.  0.
          5    1    3    3  501    0  0.30859862199E+02 -0.35112027970E+02  0.89971945460E+02  0.10139105766E+03  0.10000000000E+00 0. -1.
         -5    1    3    3    0  501  0.68498606836E+00  0.18347340420E+02 -0.35185393076E+02  0.39687731005E+02  0.10000000000E+00 0. -1.
         21    1    1    2  504  503 -0.31544848267E+02  0.16764687550E+02 -0.19671063857E+02  0.40780914091E+02  0.00000000000E+00 0. -1.
<mgrwt>
<rscale>  1 0.13000638E+03</rscale>
<asrwt>0</asrwt>
<pdfrwt beam="1">  1       21 0.16690399E-01 0.13000638E+03</pdfrwt>
<pdfrwt beam="2">  1       21 0.11288016E-01 0.13000638E+03</pdfrwt>
<totfact> 0.20988725E+06</totfact>
</mgrwt>
</event>
<event>
 6    1  0.4259848E-002  0.1788429E+03  0.7546771E-02  0.1168928E+00
         21   -1    0    0  503  502  0.00000000000E+00  0.00000000000E+00  0.49160378022E+03  0.49160378022E+03  0.00000000000E+00 0. -1.
         21   -1    0    0  504  503 -0.00000000000E+00 -0.00000000000E+00 -0.49905878711E+02  0.49905878711E+02  0.00000000000E+00 0. -1.
         25    2    1    2    0    0 -0.46900601676E+02 -0.11899588049E+03  0.20179863963E+03  0.26964325449E+03  0.12500043090E+03 0.  0.
          5    1    3    3  501    0 -0.77506600911E+01 -0.75288174478E+02  0.19534234120E+02  0.78166349861E+02  0.10000000000E+00 0.  1.
         -5    1    3    3    0  501 -0.39149941585E+02 -0.43707706015E+02  0.18226440551E+03  0.19147690463E+03  0.10000000000E+00 0.  1.
         21    1    1    2  504  502  0.46900601676E+02  0.11899588049E+03  0.23989926188E+03  0.27186640444E+03  0.00000000000E+00 0. -1.
<mgrwt>
<rscale>  1 0.17884293E+03</rscale>
<asrwt>0</asrwt>
<pdfrwt beam="1">  1       21 0.75631347E-01 0.17884293E+03</pdfrwt>
<pdfrwt beam="2">  1       21 0.76778278E-02 0.17884293E+03</pdfrwt>
<totfact> 0.20196775E+05</totfact>
</mgrwt>
</event>
<event>
 6    1  0.4259848E-002  0.1261245E+03  0.7546771E-02  0.1233322E+00
         21   -1    0    0  504  502  0.00000000000E+00  0.00000000000E+00  0.22017786781E+03  0.22017786781E+03  0.00000000000E+00 0. -1.
         21   -1    0    0  502  503 -0.00000000000E+00 -0.00000000000E+00 -0.10397246896E+03  0.10397246896E+03  0.00000000000E+00 0. -1.
         25    2    1    2    0    0  0.66147440168E+01  0.15453025312E+02  0.20122527407E+03  0.23748471491E+03  0.12499931224E+03 0.  0.
          5    1    3    3  501    0 -0.19539620573E+02 -0.46708621221E+02  0.12943888036E+03  0.13898894135E+03  0.10000000000E+00 0. -1.
         -5    1    3    3    0  501  0.26154364590E+02  0.62161646533E+02  0.71786393715E+02  0.98495773561E+02  0.10000000000E+00 0. -1.
         21    1    1    2  504  503 -0.66147440168E+01 -0.15453025312E+02 -0.85019875227E+02  0.86665621865E+02  0.00000000000E+00 0. -1.
<mgrwt>
<rscale>  1 0.12612446E+03</rscale>
<asrwt>0</asrwt>
<pdfrwt beam="1">  1       21 0.33873518E-01 0.12612446E+03</pdfrwt>
<pdfrwt beam="2">  1       21 0.15995765E-01 0.12612446E+03</pdfrwt>
<totfact> 0.29700735E+05</totfact>
</mgrwt>
</event>
<event>
 6    1  0.4259848E-002  0.1279347E+03  0.7546771E-02  0.1230553E+00
         21   -1    0    0  504  502  0.00000000000E+00  0.00000000000E+00  0.95229956714E+01  0.95229956714E+01  0.00000000000E+00 0.  1.
         21   -1    0    0  502  503 -0.00000000000E+00 -0.00000000000E+00 -0.12748373753E+04  0.12748373753E+04  0.00000000000E+00 0.  1.
         25    2    1    2    0    0  0.67876471940E+00  0.27665393531E+02 -0.43099116946E+03  0.44957833131E+03  0.12490577692E+03 0.  0.
          5    1    3    3  501    0  0.30648536252E+02  0.63976947884E+02 -0.16732845746E+03  0.18174489074E+03  0.10000000000E+00 0.  1.
         -5    1    3    3    0  501 -0.29969771533E+02 -0.36311554353E+02 -0.26366271200E+03  0.26783344056E+03  0.10000000000E+00 0.  1.
         21    1    1    2  504  503 -0.67876471940E+00 -0.27665393531E+02 -0.83432321021E+03  0.83478203970E+03  0.00000000000E+00 0.  1.
<mgrwt>
<rscale>  1 0.12793470E+03</rscale>
<asrwt>0</asrwt>
<pdfrwt beam="1">  1       21 0.14650774E-02 0.12793470E+03</pdfrwt>
<pdfrwt beam="2">  1       21 0.19612867E+00 0.12793470E+03</pdfrwt>
<totfact> 0.29837211E+05</totfact>
</mgrwt>
</event>
<event>
 6    1  0.4259848E-002  0.1321479E+03  0.7546771E-02  0.1224303E+00
         21   -1    0    0  504  502  0.00000000000E+00  0.00000000000E+00  0.25638719519E+04  0.25638719519E+04  0.00000000000E+00 0.  1.
         21   -1    0    0  502  503 -0.00000000000E+00 -0.00000000000E+00 -0.62862156981E+01  0.62862156981E+01  0.00000000000E+00 0. -1.
         25    2    1    2    0    0 -0.82478377677E+01 -0.42074580329E+02  0.24602648824E+04  0.24638113495E+04  0.12499910864E+03 0.  0.
          5    1    3    3  501    0 -0.44528745042E+02  0.10544060629E-01  0.19538285152E+04  0.19543358683E+04  0.10000000000E+00 0.  1.
         -5    1    3    3    0  501  0.36280907275E+02 -0.42085124389E+02  0.50643636719E+03  0.50947548119E+03  0.10000000000E+00 0.  1.
         21    1    1    2  504  503  0.82478377677E+01  0.42074580329E+02  0.97320853823E+02  0.10634681813E+03  0.00000000000E+00 0. -1.
<mgrwt>
<rscale>  1 0.13214793E+03</rscale>
<asrwt>0</asrwt>
<pdfrwt beam="1">  1       21 0.39444100E+00 0.13214793E+03</pdfrwt>
<pdfrwt beam="2">  1       21 0.96711215E-03 0.13214793E+03</pdfrwt>
<totfact> 0.40397547E+04</totfact>
</mgrwt>
</event>
<event>
 6    1  0.4259848E-002  0.1265603E+03  0.7546771E-02  0.1232651E+00
         21   -1    0    0  504  502  0.00000000000E+00  0.00000000000E+00  0.40639531483E+02  0.40639531483E+02  0.00000000000E+00 0.  1.
         21   -1    0    0  502  503 -0.00000000000E+00 -0.00000000000E+00 -0.13261873630E+03  0.13261873630E+03  0.00000000000E+00 0.  1.
         25    2    1    2    0    0 -0.84161374158E+01 -0.17941953344E+02 -0.83970673299E+02  0.15188347805E+03  0.12499908749E+03 0.  0.
          5    1    3    3  501    0 -0.43528146402E+02  0.92366781351E+01 -0.96059457936E+02  0.10586522191E+03  0.10000000000E+00 0.  1.
         -5    1    3    3    0  501  0.35112008987E+02 -0.27178631479E+02  0.12088784637E+02  0.46018256140E+02  0.10000000000E+00 0.  1.
         21    1    1    2  504  503  0.84161374158E+01  0.17941953344E+02 -0.80085315146E+01  0.21374789725E+02  0.00000000000E+00 0.  1.
<mgrwt>
<rscale>  1 0.12656033E+03</rscale>
<asrwt>0</asrwt>
<pdfrwt beam="1">  1       21 0.62522356E-02 0.12656033E+03</pdfrwt>
<pdfrwt beam="2">  1       21 0.20402882E-01 0.12656033E+03</pdfrwt>
<totfact> 0.40308817E+06</totfact>
</mgrwt>
</event>
<event>
 6    1  0.4259848E-002  0.1276981E+03  0.7546771E-02  0.1230912E+00
         21   -1    0    0  503  502  0.00000000000E+00  0.00000000000E+00  0.98556209589E+03  0.98556209589E+03  0.00000000000E+00 0. -1.
         21   -1    0    0  504  503 -0.00000000000E+00 -0.00000000000E+00 -0.62615651636E+01  0.62615651636E+01  0.00000000000E+00 0. -1.
         25    2    1    2    0    0  0.22630461411E+02  0.13006033096E+02  0.87688348001E+03  0.88613285275E+03  0.12500200216E+03 0.  0.
          5    1    3    3  501    0 -0.46308136051E+02  0.26714743800E+02  0.49082134338E+03  0.49372433819E+03  0.10000000000E+00 0. -1.
         -5    1    3    3    0  501  0.68938597462E+02 -0.13708710704E+02  0.38606213662E+03  0.39240851456E+03  0.10000000000E+00 0. -1.
         21    1    1    2  504  502 -0.22630461411E+02 -0.13006033096E+02  0.10241705072E+03  0.10569080830E+03  0.00000000000E+00 0. -1.
<mgrwt>
<rscale>  1 0.12769806E+03</rscale>
<asrwt>0</asrwt>
<pdfrwt beam="1">  1       21 0.15162481E+00 0.12769806E+03</pdfrwt>
<pdfrwt beam="2">  1       21 0.96331850E-03 0.12769806E+03</pdfrwt>
<totfact> 0.11686528E+06</totfact>
</mgrwt>
</event>
<event>
 6    1  0.4259848E-002  0.1512946E+03  0.7546771E-02  0.1198891E+00
         21   -1    0    0  504  502  0.00000000000E+00  0.00000000000E+00  0.16434521475E+03  0.16434521475E+03  0.00000000000E+00 0. -1.
         21   -1    0    0  502  503 -0.00000000000E+00 -0.00000000000E+00 -0.91724684256E+02  0.91724684256E+02  0.00000000000E+00 0. -1.
         25    2    1    2    0    0 -0.76725587227E+02 -0.37129592463E+02  0.78842989849E+02  0.17060562944E+03  0.12499856550E+03 0.  0.
          5    1    3    3  501    0 -0.47621741050E+02  0.43944627885E+02  0.28089727273E+02  0.70625797828E+02  0.10000000000E+00 0. -1.
         -5    1    3    3    0  501 -0.29103846177E+02 -0.81074220348E+02  0.50753262576E+02  0.99979831614E+02  0.10000000000E+00 0. -1.
         21    1    1    2  504  503  0.76725587227E+02  0.37129592463E+02 -0.62224593537E+01  0.85464269565E+02  0.00000000000E+00 0. -1.
<mgrwt>
<rscale>  1 0.15129463E+03</rscale>
<asrwt>0</asrwt>
<pdfrwt beam="1">  1       21 0.25283879E-01 0.15129463E+03</pdfrwt>
<pdfrwt beam="2">  1       21 0.14111490E-01 0.15129463E+03</pdfrwt>
<totfact> 0.65267181E+05</totfact>
</mgrwt>
</event>
<event>
 6    1  0.4259848E-002  0.1280516E+03  0.7546771E-02  0.1230376E+00
         21   -1    0    0  503  502  0.00000000000E+00  0.00000000000E+00  0.38985929671E+03  0.38985929671E+03  0.00000000000E+00 0.  1.
         21   -1    0    0  504  503 -0.00000000000E+00 -0.00000000000E+00 -0.15761722732E+02  0.15761722732E+02  0.00000000000E+00 0.  1.
         25    2    1    2    0    0 -0.25073576521E+02 -0.12131175238E+02  0.32236088893E+03  0.34686274996E+03  0.12498549896E+03 0.  0.
          5    1    3    3  501    0 -0.19423928487E+00 -0.38560445453E+01 -0.11419074868E+02  0.12054546000E+02  0.10000000000E+00 0.  1.
         -5    1    3    3    0  501 -0.24879337236E+02 -0.82751306923E+01  0.33377996380E+03  0.33480820396E+03  0.10000000000E+00 0.  1.
         21    1    1    2  504  502  0.25073576521E+02  0.12131175238E+02  0.51736685043E+02  0.58758269473E+02  0.00000000000E+00 0. -1.
<mgrwt>
<rscale>  1 0.12805165E+03</rscale>
<asrwt>0</asrwt>
<pdfrwt beam="1">  1       21 0.59978346E-01 0.12805165E+03</pdfrwt>
<pdfrwt beam="2">  1       21 0.24248807E-02 0.12805165E+03</pdfrwt>
<totfact> 0.23178453E+06</totfact>
</mgrwt>
</event>
<event>
 6    1  0.4259848E-002  0.1291362E+03  0.7546771E-02  0.1228743E+00
         21   -1    0    0  503  502  0.00000000000E+00  0.00000000000E+00  0.26517324408E+03  0.26517324408E+03  0.00000000000E+00 0. -1.
         21   -1    0    0  504  503 -0.00000000000E+00 -0.00000000000E+00 -0.24604329570E+02  0.24604329570E+02  0.00000000000E+00 0. -1.
         25    2    1    2    0    0 -0.11221315822E+02 -0.30396590530E+02  0.19357704730E+03  0.23269775035E+03  0.12500519641E+03 0.  0.
          5    1    3    3  501    0  0.14945639402E+02 -0.44408694213E+01  0.19518422585E+03  0.19580598939E+03  0.10000000000E+00 0.  1.
         -5    1    3    3    0  501 -0.26166955224E+02 -0.25955721109E+02 -0.16071785480E+01  0.36891760962E+02  0.10000000000E+00 0.  1.
         21    1    1    2  504  502  0.11221315822E+02  0.30396590530E+02  0.46991867208E+02  0.57079823303E+02  0.00000000000E+00 0.  1.
<mgrwt>
<rscale>  1 0.12913625E+03</rscale>
<asrwt>0</asrwt>
<pdfrwt beam="1">  1       21 0.40795882E-01 0.12913625E+03</pdfrwt>
<pdfrwt beam="2">  1       21 0.37852817E-02 0.12913625E+03</pdfrwt>
<totfact> 0.24707108E+06</totfact>
</mgrwt>
</event>
<event>
 6    1  0.4259848E-002  0.1351221E+03  0.7546771E-02  0.1220047E+00
         21   -1    0    0  503  502  0.00000000000E+00  0.00000000000E+00  0.49702170511E+02  0.49702170511E+02  0.00000000000E+00 0.  1.
         21   -1    0    0  504  503 -0.00000000000E+00 -0.00000000000E+00 -0.18047877385E+03  0.18047877385E+03  0.00000000000E+00 0.  1.
         25    2    1    2    0    0  0.14019326381E+01 -0.51146896693E+02 -0.75201322301E+02  0.15463902011E+03  0.12506005441E+03 0.  0.
          5    1    3    3  501    0  0.56261068422E+02 -0.54902381043E+02 -0.32697967964E+02  0.85139569961E+02  0.10000000000E+00 0.  1.
         -5    1    3    3    0  501 -0.54859135784E+02  0.37554843509E+01 -0.42503354337E+02  0.69499450153E+02  0.10000000000E+00 0.  1.
         21    1    1    2  504  502 -0.14019326381E+01  0.51146896693E+02 -0.55575281042E+02  0.75541924249E+02  0.00000000000E+00 0. -1.
<mgrwt>
<rscale>  1 0.13512212E+03</rscale>
<asrwt>0</asrwt>
<pdfrwt beam="1">  1       21 0.76464878E-02 0.13512212E+03</pdfrwt>
<pdfrwt beam="2">  1       21 0.27765965E-01 0.13512212E+03</pdfrwt>
<totfact> 0.16033407E+06</totfact>
</mgrwt>
</event>
<event>
 6    1  0.4259848E-002  0.1263503E+03  0.7546771E-02  0.1232974E+00
         21   -1    0    0  503  502  0.00000000000E+00  0.00000000000E+00  0.18374402558E+03  0.18374402558E+03  0.00000000000E+00 0.  1.
         21   -1    0    0  504  503 -0.00000000000E+00 -0.00000000000E+00 -0.33230774470E+02  0.33230774470E+02  0.00000000000E+00 0.  1.
         25    2    1    2    0    0 -0.16910224615E+02 -0.71976218487E+01  0.15300188773E+03  0.19842878244E+03  0.12500657021E+03 0.  0.
          5    1    3    3  501    0 -0.33995049730E+02 -0.60941043360E+02  0.79406997270E+02  0.10571166155E+03  0.10000000000E+00 0. -1.
         -5    1    3    3    0  501  0.17084825116E+02  0.53743421511E+02  0.73594890462E+02  0.92717120895E+02  0.10000000000E+00 0. -1.
         21    1    1    2  504  502  0.16910224615E+02  0.71976218487E+01 -0.24886366229E+01  0.18546017606E+02  0.00000000000E+00 0.  1.
<mgrwt>
<rscale>  1 0.12635032E+03</rscale>
<asrwt>0</asrwt>
<pdfrwt beam="1">  1       21 0.28268311E-01 0.12635032E+03</pdfrwt>
<pdfrwt beam="2">  1       21 0.51124270E-02 0.12635032E+03</pdfrwt>
<totfact> 0.30660422E+06</totfact>
</mgrwt>
</event>
<event>
 6    1  0.4259848E-002  0.1261436E+03  0.7546771E-02  0.1233293E+00
         21   -1    0    0  504  502  0.00000000000E+00  0.00000000000E+00  0.32153669187E+03  0.32153669187E+03  0.00000000000E+00 0.  1.
         21   -1    0    0  502  503 -0.00000000000E+00 -0.00000000000E+00 -0.16454849557E+02  0.16454849557E+02  0.00000000000E+00 0.  1.
         25    2    1    2    0    0 -0.71009688460E+01 -0.15398466662E+02  0.28526027372E+03  0.31190646685E+03  0.12499873506E+03 0.  0.
          5    1    3    3  501    0  0.52485810039E+02 -0.34744053540E+02  0.15752661970E+03  0.16963653919E+03  0.10000000000E+00 0.  1.
         -5    1    3    3    0  501 -0.59586778886E+02  0.19345586879E+02  0.12773365402E+03  0.14226992767E+03  0.10000000000E+00 0.  1.
         21    1    1    2  504  503  0.71009688460E+01  0.15398466662E+02  0.19821568595E+02  0.26085074576E+02  0.00000000000E+00 0.  1.
<mgrwt>
<rscale>  1 0.12614365E+03</rscale>
<asrwt>0</asrwt>
<pdfrwt beam="1">  1       21 0.49467179E-01 0.12614365E+03</pdfrwt>
<pdfrwt beam="2">  1       21 0.25315156E-02 0.12614365E+03</pdfrwt>
<totfact> 0.32310992E+06</totfact>
</mgrwt>
</event>
<event>
 6    1  0.4259848E-002  0.1392614E+03  0.7546771E-02  0.1214326E+00
         21   -1    0    0  504  502  0.00000000000E+00  0.00000000000E+00  0.33444097749E+03  0.33444097749E+03  0.00000000000E+00 0. -1.
         21   -1    0    0  502  503 -0.00000000000E+00 -0.00000000000E+00 -0.58968149005E+02  0.58968149005E+02  0.00000000000E+00 0. -1.
         25    2    1    2    0    0 -0.57651287565E+02  0.21088836289E+02  0.29726495192E+03  0.32826845857E+03  0.12500127711E+03 0.  0.
          5    1    3    3  501    0  0.19986467566E+02  0.17362569739E+02  0.64554281059E+01  0.27250692941E+02  0.10000000000E+00 0. -1.
         -5    1    3    3    0  501 -0.77637755131E+02  0.37262665508E+01  0.29080952382E+03  0.30101776563E+03  0.10000000000E+00 0. -1.
         21    1    1    2  504  503  0.57651287565E+02 -0.21088836289E+02 -0.21792123434E+02  0.65140667925E+02  0.00000000000E+00 0. -1.
<mgrwt>
<rscale>  1 0.13926137E+03</rscale>
<asrwt>0</asrwt>
<pdfrwt beam="1">  1       21 0.51452457E-01 0.13926137E+03</pdfrwt>
<pdfrwt beam="2">  1       21 0.90720231E-02 0.13926137E+03</pdfrwt>
<totfact> 0.34942390E+05</totfact>
</mgrwt>
</event>
<event>
 6    1  0.4259848E-002  0.1739963E+03  0.7546771E-02  0.1173743E+00
         21   -1    0    0  504  502  0.00000000000E+00  0.00000000000E+00  0.21519105256E+03  0.21519105256E+03  0.00000000000E+00 0.  1.
         21   -1    0    0  502  503 -0.00000000000E+00 -0.00000000000E+00 -0.10286709781E+03  0.10286709781E+03  0.00000000000E+00 0.  1.
         25    2    1    2    0    0  0.21245478088E+02  0.11915508570E+03  0.86449354757E+02  0.19428901161E+03  0.12500169722E+03 0.  0.
          5    1    3    3  501    0 -0.45007734930E+02  0.55248358756E+02  0.71652648207E+02  0.10105537761E+03  0.10000000000E+00 0.  1.
         -5    1    3    3    0  501  0.66253213018E+02  0.63906726943E+02  0.14796706549E+02  0.93233633998E+02  0.10000000000E+00 0.  1.
         21    1    1    2  504  503 -0.21245478088E+02 -0.11915508570E+03  0.25874599992E+02  0.12376913877E+03  0.00000000000E+00 0.  1.
<mgrwt>
<rscale>  1 0.17399635E+03</rscale>
<asrwt>0</asrwt>
<pdfrwt beam="1">  1       21 0.33106316E-01 0.17399635E+03</pdfrwt>
<pdfrwt beam="2">  1       21 0.15825707E-01 0.17399635E+03</pdfrwt>
<totfact> 0.31382383E+05</totfact>
</mgrwt>
</event>
<event>
 6    1  0.4259848E-002  0.1263448E+03  0.7546771E-02  0.1232982E+00
         21   -1    0    0  503  502  0.00000000000E+00  0.00000000000E+00  0.57854570344E+02  0.57854570344E+02  0.00000000000E+00 0.  1.
         21   -1    0    0  504  503 -0.00000000000E+00 -0.00000000000E+00 -0.24698742831E+03  0.24698742831E+03  0.00000000000E+00 0.  1.
         25    2    1    2    0    0  0.17609107485E+02  0.48411099993E+01 -0.12159230289E+02  0.12692858740E+03  0.12501800832E+03 0.  0.
          5    1    3    3  501    0 -0.25451594275E+02 -0.17632202376E+02 -0.54376220547E+02  0.62573649188E+02  0.10000000000E+00 0.  1.
         -5    1    3    3    0  501  0.43060701760E+02  0.22473312375E+02  0.42216990258E+02  0.64354938207E+02  0.10000000000E+00 0.  1.
         21    1    1    2  504  502 -0.17609107485E+02 -0.48411099993E+01 -0.17697362768E+03  0.17791341126E+03  0.00000000000E+00 0.  1.
<mgrwt>
<rscale>  1 0.12634484E+03</rscale>
<asrwt>0</asrwt>
<pdfrwt beam="1">  1       21 0.89007030E-02 0.12634484E+03</pdfrwt>
<pdfrwt beam="2">  1       21 0.37998066E-01 0.12634484E+03</pdfrwt>
<totfact> 0.66892828E+05</totfact>
</mgrwt>
</event>
<event>
 6    1  0.4259848E-002  0.1591990E+03  0.7546771E-02  0.1189604E+00
         21   -1    0    0  503  502  0.00000000000E+00  0.00000000000E+00  0.36949566580E+02  0.36949566580E+02  0.00000000000E+00 0. -1.
         21   -1    0    0  504  503 -0.00000000000E+00 -0.00000000000E+00 -0.66958887415E+03  0.66958887415E+03  0.00000000000E+00 0. -1.
         25    2    1    2    0    0  0.98569712960E+02  0.15889778361E+01 -0.16757361444E+03  0.23113901699E+03  0.12500326298E+03 0.  0.
          5    1    3    3  501    0  0.71811939372E+02 -0.51305852280E+02 -0.55223789933E+02  0.10411014403E+03  0.10000000000E+00 0.  1.
         -5    1    3    3    0  501  0.26757773587E+02  0.52894830116E+02 -0.11234982451E+03  0.12702887297E+03  0.10000000000E+00 0.  1.
         21    1    1    2  504  502 -0.98569712960E+02 -0.15889778361E+01 -0.46506569313E+03  0.47539942374E+03  0.00000000000E+00 0. -1.
<mgrwt>
<rscale>  1 0.15919902E+03</rscale>
<asrwt>0</asrwt>
<pdfrwt beam="1">  1       21 0.56845490E-02 0.15919902E+03</pdfrwt>
<pdfrwt beam="2">  1       21 0.10301367E+00 0.15919902E+03</pdfrwt>
<totfact> 0.16741768E+05</totfact>
</mgrwt>
</event>
<event>
 6    1  0.4259848E-002  0.1269065E+03  0.7546771E-02  0.1232119E+00
         21   -1    0    0  503  502  0.00000000000E+00  0.00000000000E+00  0.23482818479E+02  0.23482818479E+02  0.00000000000E+00 0. -1.
         21   -1    0    0  504  503 -0.00000000000E+00 -0.00000000000E+00 -0.37750254239E+03  0.37750254239E+03  0.00000000000E+00 0. -1.
         25    2    1    2    0    0  0.21926290245E+02 -0.17418156246E+00 -0.15303866492E+03  0.19881172605E+03  0.12499790763E+03 0.  0.
          5    1    3    3  501    0 -0.65086785398E+01 -0.47630924110E+02 -0.15415281648E+02  0.50484737656E+02  0.10000000000E+00 0.  1.
         -5    1    3    3    0  501  0.28434968785E+02  0.47456742547E+02 -0.13762338327E+03  0.14832698840E+03  0.10000000000E+00 0.  1.
         21    1    1    2  504  502 -0.21926290245E+02  0.17418156246E+00 -0.20098105899E+03  0.20217363482E+03  0.00000000000E+00 0. -1.
<mgrwt>
<rscale>  1 0.12690654E+03</rscale>
<asrwt>0</asrwt>
<pdfrwt beam="1">  1       21 0.36127414E-02 0.12690654E+03</pdfrwt>
<pdfrwt beam="2">  1       21 0.58077312E-01 0.12690654E+03</pdfrwt>
<totfact> 0.12908920E+06</totfact>
</mgrwt>
</event>
<event>
 6    1  0.4259848E-002  0.1280854E+03  0.7546771E-02  0.1230325E+00
         21   -1    0    0  503  502  0.00000000000E+00  0.00000000000E+00  0.46166624640E+03  0.46166624640E+03  0.00000000000E+00 0.  1.
         21   -1    0    0  504  503 -0.00000000000E+00 -0.00000000000E+00 -0.13186855227E+02  0.13186855227E+02  0.00000000000E+00 0.  1.
         25    2    1    2    0    0 -0.18449600570E+02 -0.20999712297E+02  0.37036111024E+03  0.39188418279E+03  0.12499794023E+03 0.  0.
          5    1    3    3  501    0  0.11696427123E+02  0.20924008165E+02  0.31599799441E+03  0.31690592136E+03  0.10000000000E+00 0. -1.
         -5    1    3    3    0  501 -0.30146027693E+02 -0.41923720462E+02  0.54363115835E+02  0.74978261424E+02  0.10000000000E+00 0. -1.
         21    1    1    2  504  502  0.18449600570E+02  0.20999712297E+02  0.78118280928E+02  0.82968918837E+02  0.00000000000E+00 0.  1.
<mgrwt>
<rscale>  1 0.12808537E+03</rscale>
<asrwt>0</asrwt>
<pdfrwt beam="1">  1       21 0.71025564E-01 0.12808537E+03</pdfrwt>
<pdfrwt beam="2">  1       21 0.20287473E-02 0.12808537E+03</pdfrwt>
<totfact> 0.21499447E+06</totfact>
</mgrwt>
</event>
<event>
 6    1  0.4259848E-002  0.1260548E+03  0.7546771E-02  0.1233430E+00
         21   -1    0    0  503  502  0.00000000000E+00  0.00000000000E+00  0.98978568723E+03  0.98978568723E+03  0.00000000000E+00 0.  1.
         21   -1    0    0  504  503 -0.00000000000E+00 -0.00000000000E+00 -0.89746721991E+01  0.89746721991E+01  0.00000000000E+00 0.  1.
         25    2    1    2    0    0 -0.16149958477E+02 -0.20619815319E+01  0.97220827678E+03  0.98034623355E+03  0.12499892505E+03 0.  0.
          5    1    3    3  501    0 -0.92941337473E+01  0.11602084651E+02  0.97756796899E+01  0.17792223126E+02  0.10000000000E+00 0.  1.
         -5    1    3    3    0  501 -0.68558247296E+01 -0.13664066183E+02  0.96243259709E+03  0.96255401042E+03  0.10000000000E+00 0.  1.
         21    1    1    2  504  502  0.16149958477E+02  0.20619815319E+01  0.86027382548E+01  0.18414125885E+02  0.00000000000E+00 0.  1.
<mgrwt>
<rscale>  1 0.12605477E+03</rscale>
<asrwt>0</asrwt>
<pdfrwt beam="1">  1       21 0.15227463E+00 0.12605477E+03</pdfrwt>
<pdfrwt beam="2">  1       21 0.13807196E-02 0.12605477E+03</pdfrwt>
<totfact> 0.65402431E+05</totfact>
</mgrwt>
</event>
<event>
 6    1  0.4259848E-002  0.1475106E+03  0.7546771E-02  0.1203566E+00
         21   -1    0    0  504  502  0.00000000000E+00  0.00000000000E+00  0.26947280360E+02  0.26947280360E+02  0.00000000000E+00 0. -1.
         21   -1    0    0  502  503 -0.00000000000E+00 -0.00000000000E+00 -0.63882743706E+03  0.63882743706E+03  0.00000000000E+00 0. -1.
         25    2    1    2    0    0  0.76608395695E+02 -0.16283835870E+02 -0.21183232897E+03  0.25813238145E+03  0.12500152461E+03 0.  0.
          5    1    3    3  501    0 -0.20415768138E+02 -0.19566625704E+02 -0.12410782048E+03  0.12728871723E+03  0.10000000000E+00 0.  1.
         -5    1    3    3    0  501  0.97024163833E+02  0.32827898341E+01 -0.87724508489E+02  0.13084366422E+03  0.10000000000E+00 0.  1.
         21    1    1    2  504  503 -0.76608395695E+02  0.16283835870E+02 -0.40004782773E+03  0.40764233597E+03  0.00000000000E+00 0. -1.
<mgrwt>
<rscale>  1 0.14751065E+03</rscale>
<asrwt>0</asrwt>
<pdfrwt beam="1">  1       21 0.41457357E-02 0.14751065E+03</pdfrwt>
<pdfrwt beam="2">  1       21 0.98281138E-01 0.14751065E+03</pdfrwt>
<totfact> 0.31933194E+05</totfact>
</mgrwt>
</event>
<event>
 6    1  0.4259848E-002  0.1292663E+03  0.7546771E-02  0.1228549E+00
         21   -1    0    0  503  502  0.00000000000E+00  0.00000000000E+00  0.12350937452E+03  0.12350937452E+03  0.00000000000E+00 0.  1.
         21   -1    0    0  504  503 -0.00000000000E+00 -0.00000000000E+00 -0.54857415607E+02  0.54857415607E+02  0.00000000000E+00 0.  1.
         25    2    1    2    0    0  0.31938468457E+02 -0.81004702525E+01  0.66444635701E+02  0.14534322791E+03  0.12499632355E+03 0.  0.
          5    1    3    3  501    0  0.78837608160E+02 -0.16859956226E+02  0.50059590912E+02  0.94897835732E+02  0.10000000000E+00 0. -1.
         -5    1    3    3    0  501 -0.46899139704E+02  0.87594859738E+01  0.16385044789E+02  0.50445392180E+02  0.10000000000E+00 0. -1.
         21    1    1    2  504  502 -0.31938468457E+02  0.81004702525E+01  0.22073232131E+01  0.33023562216E+02  0.00000000000E+00 0.  1.
<mgrwt>
<rscale>  1 0.12926625E+03</rscale>
<asrwt>0</asrwt>
<pdfrwt beam="1">  1       21 0.19001442E-01 0.12926625E+03</pdfrwt>
<pdfrwt beam="2">  1       21 0.84396025E-02 0.12926625E+03</pdfrwt>
<totfact> 0.27511008E+06</totfact>
</mgrwt>
</event>
<event>
 6    1  0.4259848E-002  0.1269001E+03  0.7546771E-02  0.1232129E+00
         21   -1    0    0  503  502  0.00000000000E+00  0.00000000000E+00  0.21793291680E+03  0.21793291680E+03  0.00000000000E+00 0.  1.
         21   -1    0    0  504  503 -0.00000000000E+00 -0.00000000000E+00 -0.10955193083E+03  0.10955193083E+03  0.00000000000E+00 0.  1.
         25    2    1    2    0    0 -0.78221707464E+01 -0.20395257793E+02  0.19803660110E+03  0.23520656081E+03  0.12500591177E+03 0.  0.
          5    1    3    3  501    0  0.38569713996E+02 -0.30486795891E+02  0.23807933180E+02  0.54625042277E+02  0.10000000000E+00 0. -1.
         -5    1    3    3    0  501 -0.46391884743E+02  0.10091538098E+02  0.17422866792E+03  0.18058151853E+03  0.10000000000E+00 0. -1.
         21    1    1    2  504  502  0.78221707464E+01  0.20395257793E+02 -0.89655615129E+02  0.92278286828E+02  0.00000000000E+00 0.  1.
<mgrwt>
<rscale>  1 0.12690008E+03</rscale>
<asrwt>0</asrwt>
<pdfrwt beam="1">  1       21 0.33528141E-01 0.12690008E+03</pdfrwt>
<pdfrwt beam="2">  1       21 0.16854143E-01 0.12690008E+03</pdfrwt>
<totfact> 0.27554739E+05</totfact>
</mgrwt>
</event>
<event>
 6    1  0.4259848E-002  0.1259220E+03  0.7546771E-02  0.1233635E+00
         21   -1    0    0  504  502  0.00000000000E+00  0.00000000000E+00  0.23927050683E+02  0.23927050683E+02  0.00000000000E+00 0.  1.
         21   -1    0    0  502  503 -0.00000000000E+00 -0.00000000000E+00 -0.22312242672E+03  0.22312242672E+03  0.00000000000E+00 0.  1.
         25    2    1    2    0    0  0.14960901476E+02 -0.21139206703E+01 -0.15139683054E+03  0.19691966406E+03  0.12501222566E+03 0.  0.
          5    1    3    3  501    0  0.31479913425E+02 -0.58215934488E+02 -0.66433236794E+02  0.93773476679E+02  0.10000000000E+00 0. -1.
         -5    1    3    3    0  501 -0.16519011949E+02  0.56102013818E+02 -0.84963593743E+02  0.10314618738E+03  0.10000000000E+00 0. -1.
         21    1    1    2  504  503 -0.14960901476E+02  0.21139206703E+01 -0.47798545500E+02  0.50129813339E+02  0.00000000000E+00 0.  1.
<mgrwt>
<rscale>  1 0.12592201E+03</rscale>
<asrwt>0</asrwt>
<pdfrwt beam="1">  1       21 0.36810846E-02 0.12592201E+03</pdfrwt>
<pdfrwt beam="2">  1       21 0.34326528E-01 0.12592201E+03</pdfrwt>
<totfact> 0.36393361E+06</totfact>
</mgrwt>
</event>
<event>
 6    1  0.4259848E-002  0.1513148E+03  0.7546771E-02  0.1198867E+00
         21   -1    0    0  504  502  0.00000000000E+00  0.00000000000E+00  0.46598052129E+03  0.46598052129E+03  0.00000000000E+00 0. -1.
         21   -1    0    0  502  503 -0.00000000000E+00 -0.00000000000E+00 -0.71832154706E+03  0.71832154706E+03  0.00000000000E+00 0.  1.
         25    2    1    2    0    0 -0.11479532719E+02  0.84495033552E+02  0.45105350883E+03  0.47575774252E+03  0.12499988548E+03 0.  0.
          5    1    3    3  501    0 -0.18907187268E+02  0.84488573153E+02  0.45768386950E+03  0.46580074616E+03  0.10000000000E+00 0. -1.
         -5    1    3    3    0  501  0.74276545489E+01  0.64603992546E-02 -0.66303606694E+01  0.99569963564E+01  0.10000000000E+00 0. -1.
         21    1    1    2  504  503  0.11479532719E+02 -0.84495033552E+02 -0.70339453460E+03  0.70854432583E+03  0.00000000000E+00 0.  1.
<mgrwt>
<rscale>  1 0.15131478E+03</rscale>
<asrwt>0</asrwt>
<pdfrwt beam="1">  1       21 0.71689311E-01 0.15131478E+03</pdfrwt>
<pdfrwt beam="2">  1       21 0.11051101E+00 0.15131478E+03</pdfrwt>
<totfact> 0.11874744E+03</totfact>
</mgrwt>
</event>
<event>
 6    1  0.4259848E-002  0.1328578E+03  0.7546771E-02  0.1223276E+00
         21   -1    0    0  503  502  0.00000000000E+00  0.00000000000E+00  0.53889772340E+03  0.53889772340E+03  0.00000000000E+00 0.  1.
         21   -1    0    0  504  503 -0.00000000000E+00 -0.00000000000E+00 -0.95681006451E+02  0.95681006451E+02  0.00000000000E+00 0. -1.
         25    2    1    2    0    0 -0.37559155220E+02  0.24802546816E+02  0.52482559579E+03  0.54138073859E+03  0.12500136657E+03 0.  0.
          5    1    3    3  501    0 -0.56814994495E+02 -0.32427580193E+02  0.35881565064E+03  0.36473027390E+03  0.10000000000E+00 0. -1.
         -5    1    3    3    0  501  0.19255839275E+02  0.57230127009E+02  0.16600994516E+03  0.17665046469E+03  0.10000000000E+00 0. -1.
         21    1    1    2  504  502  0.37559155220E+02 -0.24802546816E+02 -0.81608878845E+02  0.93197991264E+02  0.00000000000E+00 0. -1.
<mgrwt>
<rscale>  1 0.13285781E+03</rscale>
<asrwt>0</asrwt>
<pdfrwt beam="1">  1       21 0.82907340E-01 0.13285781E+03</pdfrwt>
<pdfrwt beam="2">  1       21 0.14720155E-01 0.13285781E+03</pdfrwt>
<totfact> 0.53067705E+04</totfact>
</mgrwt>
</event>
<event>
 6    1  0.4259848E-002  0.1262313E+03  0.7546771E-02  0.1233157E+00
         21   -1    0    0  503  502  0.00000000000E+00  0.00000000000E+00  0.33992706414E+02  0.33992706414E+02  0.00000000000E+00 0.  1.
         21   -1    0    0  504  503 -0.00000000000E+00 -0.00000000000E+00 -0.19979181867E+03  0.19979181867E+03  0.00000000000E+00 0.  1.
         25    2    1    2    0    0 -0.52777389114E+01 -0.16763560780E+02 -0.87635557939E+02  0.15366952823E+03  0.12500184555E+03 0.  0.
          5    1    3    3  501    0  0.48005948997E+02  0.26561654362E+02 -0.23437461218E+02  0.59660851568E+02  0.10000000000E+00 0. -1.
         -5    1    3    3    0  501 -0.53283687908E+02 -0.43325215142E+02 -0.64198096722E+02  0.94008676658E+02  0.10000000000E+00 0. -1.
         21    1    1    2  504  502  0.52777389114E+01  0.16763560780E+02 -0.78163554318E+02  0.80114996859E+02  0.00000000000E+00 0. -1.
<mgrwt>
<rscale>  1 0.12623127E+03</rscale>
<asrwt>0</asrwt>
<pdfrwt beam="1">  1       21 0.52296471E-02 0.12623127E+03</pdfrwt>
<pdfrwt beam="2">  1       21 0.30737203E-01 0.12623127E+03</pdfrwt>
<totfact> 0.25121395E+06</totfact>
</mgrwt>
</event>
<event>
 6    1  0.4259848E-002  0.1261179E+03  0.7546771E-02  0.1233333E+00
         21   -1    0    0  504  502  0.00000000000E+00  0.00000000000E+00  0.58501829673E+03  0.58501829673E+03  0.00000000000E+00 0. -1.
         21   -1    0    0  502  503 -0.00000000000E+00 -0.00000000000E+00 -0.92936715108E+01  0.92936715108E+01  0.00000000000E+00 0. -1.
         25    2    1    2    0    0 -0.15604435118E+02  0.61370615788E+01  0.54400817673E+03  0.55843586164E+03  0.12499821317E+03 0.  0.
          5    1    3    3  501    0 -0.64770712816E+01  0.65619278220E+02  0.28325641034E+03  0.29082992646E+03  0.10000000000E+00 0. -1.
         -5    1    3    3    0  501 -0.91273638368E+01 -0.59482216641E+02  0.26075176638E+03  0.26760593517E+03  0.10000000000E+00 0. -1.
         21    1    1    2  504  503  0.15604435118E+02 -0.61370615788E+01  0.31716448497E+02  0.35876106609E+02  0.00000000000E+00 0.  1.
<mgrwt>
<rscale>  1 0.12611786E+03</rscale>
<asrwt>0</asrwt>
<pdfrwt beam="1">  1       21 0.90002786E-01 0.12611786E+03</pdfrwt>
<pdfrwt beam="2">  1       21 0.14297961E-02 0.12611786E+03</pdfrwt>
<totfact> 0.22194747E+06</totfact>
</mgrwt>
</event>
<event>
 6    1  0.4259848E-002  0.1295177E+03  0.7546771E-02  0.1228173E+00
         21   -1    0    0  503  502  0.00000000000E+00  0.00000000000E+00  0.89453932835E+03  0.89453932835E+03  0.00000000000E+00 0.  1.
         21   -1    0    0  504  503 -0.00000000000E+00 -0.00000000000E+00 -0.77130283277E+01  0.77130283277E+01  0.00000000000E+00 0.  1.
         25    2    1    2    0    0  0.26830427660E+02 -0.20747350484E+02  0.76061432717E+03  0.77156269950E+03  0.12499808067E+03 0.  0.
          5    1    3    3  501    0  0.75087832240E+02 -0.33950785739E+01  0.53084508594E+03  0.53614011636E+03  0.10000000000E+00 0. -1.
         -5    1    3    3    0  501 -0.48257404580E+02 -0.17352271911E+02  0.22976924123E+03  0.23542258314E+03  0.10000000000E+00 0. -1.
         21    1    1    2  504  502 -0.26830427660E+02  0.20747350484E+02  0.12621197286E+03  0.13068965718E+03  0.00000000000E+00 0.  1.
<mgrwt>
<rscale>  1 0.12951774E+03</rscale>
<asrwt>0</asrwt>
<pdfrwt beam="1">  1       21 0.13762135E+00 0.12951774E+03</pdfrwt>
<pdfrwt beam="2">  1       21 0.11866204E-02 0.12951774E+03</pdfrwt>
<totfact> 0.10778166E+06</totfact>
</mgrwt>
</event>
<event>
 6    1  0.4259848E-002  0.1358747E+03  0.7546771E-02  0.1218990E+00
         21   -1    0    0  503  502  0.00000000000E+00  0.00000000000E+00  0.18831961873E+04  0.18831961873E+04  0.00000000000E+00 0. -1.
         21   -1    0    0  504  503 -0.00000000000E+00 -0.00000000000E+00 -0.67767240890E+01  0.67767240890E+01  0.00000000000E+00 0. -1.
         25    2    1    2    0    0 -0.11294550477E+02 -0.52052643126E+02  0.17065017077E+04  0.17119024530E+04  0.12499954219E+03 0.  0.
          5    1    3    3  501    0 -0.36456694935E+02  0.31228528522E+02  0.51719833655E+03  0.51942125576E+03  0.10000000000E+00 0.  1.
         -5    1    3    3    0  501  0.25162144458E+02 -0.83281171648E+02  0.11893033712E+04  0.11924811972E+04  0.10000000000E+00 0.  1.
         21    1    1    2  504  502  0.11294550477E+02  0.52052643126E+02  0.16991775553E+03  0.17807045844E+03  0.00000000000E+00 0. -1.
<mgrwt>
<rscale>  1 0.13587469E+03</rscale>
<asrwt>0</asrwt>
<pdfrwt beam="1">  1       21 0.28972207E+00 0.13587469E+03</pdfrwt>
<pdfrwt beam="2">  1       21 0.10425744E-02 0.13587469E+03</pdfrwt>
<totfact> 0.14401157E+05</totfact>
</mgrwt>
</event>
<event>
 6    1  0.4259848E-002  0.1260231E+03  0.7546771E-02  0.1233479E+00
         21   -1    0    0  503  502  0.00000000000E+00  0.00000000000E+00  0.23445314207E+02  0.23445314207E+02  0.00000000000E+00 0.  1.
         21   -1    0    0  504  503 -0.00000000000E+00 -0.00000000000E+00 -0.22948084187E+03  0.22948084187E+03  0.00000000000E+00 0.  1.
         25    2    1    2    0    0 -0.15312085827E+02 -0.45635011125E+01 -0.15682187970E+03  0.20118382659E+03  0.12500617831E+03 0.  0.
          5    1    3    3  501    0 -0.55116369958E+02 -0.43273493683E+02 -0.95635780824E+02  0.11856062612E+03  0.10000000000E+00 0. -1.
         -5    1    3    3    0  501  0.39804284131E+02  0.38709992571E+02 -0.61186098876E+02  0.82623200469E+02  0.10000000000E+00 0. -1.
         21    1    1    2  504  502  0.15312085827E+02  0.45635011125E+01 -0.49213647962E+02  0.51742329484E+02  0.00000000000E+00 0. -1.
<mgrwt>
<rscale>  1 0.12602313E+03</rscale>
<asrwt>0</asrwt>
<pdfrwt beam="1">  1       21 0.36069715E-02 0.12602313E+03</pdfrwt>
<pdfrwt beam="2">  1       21 0.35304744E-01 0.12602313E+03</pdfrwt>
<totfact> 0.35620347E+06</totfact>
</mgrwt>
</event>
<event>
 6    1  0.4259848E-002  0.1357470E+03  0.7546771E-02  0.1219169E+00
         21   -1    0    0  503  502  0.00000000000E+00  0.00000000000E+00  0.14752716341E+03  0.14752716341E+03  0.00000000000E+00 0. -1.
         21   -1    0    0  504  503 -0.00000000000E+00 -0.00000000000E+00 -0.18893529640E+03  0.18893529640E+03  0.00000000000E+00 0. -1.
         25    2    1    2    0    0  0.48273704375E+02  0.21707431356E+02  0.11085615353E+03  0.17526079711E+03  0.12500278844E+03 0.  0.
          5    1    3    3  501    0  0.87035538154E+02  0.55147392981E+01  0.98314140319E+02  0.13142023222E+03  0.10000000000E+00 0.  1.
         -5    1    3    3    0  501 -0.38761833779E+02  0.16192692058E+02  0.12542013210E+02  0.43840564884E+02  0.10000000000E+00 0.  1.
         21    1    1    2  504  502 -0.48273704375E+02 -0.21707431356E+02 -0.15226428652E+03  0.16120166270E+03  0.00000000000E+00 0. -1.
<mgrwt>
<rscale>  1 0.13574705E+03</rscale>
<asrwt>0</asrwt>
<pdfrwt beam="1">  1       21 0.22696487E-01 0.13574705E+03</pdfrwt>
<pdfrwt beam="2">  1       21 0.29066969E-01 0.13574705E+03</pdfrwt>
<totfact> 0.20939601E+05</totfact>
</mgrwt>
</event>
<event>
 6    1  0.4259848E-002  0.1264545E+03  0.7546771E-02  0.1232814E+00
         21   -1    0    0  503  502  0.00000000000E+00  0.00000000000E+00  0.94188763964E+02  0.94188763964E+02  0.00000000000E+00 0.  1.
         21   -1    0    0  504  503 -0.00000000000E+00 -0.00000000000E+00 -0.53523230519E+03  0.53523230519E+03  0.00000000000E+00 0.  1.
         25    2    1    2    0    0  0.14893157818E+02 -0.11961184448E+02  0.51476713793E+02  0.13653053599E+03  0.12500343639E+03 0.  0.
          5    1    3    3  501    0 -0.35400933453E+02  0.64476604809E+01  0.70941586429E+02  0.79545691902E+02  0.10000000000E+00 0.  1.
         -5    1    3    3    0  501  0.50294091272E+02 -0.18408844929E+02 -0.19464872636E+02  0.56984844083E+02  0.10000000000E+00 0.  1.
         21    1    1    2  504  502 -0.14893157818E+02  0.11961184448E+02 -0.49252025502E+03  0.49289053317E+03  0.00000000000E+00 0.  1.
<mgrwt>
<rscale>  1 0.12645448E+03</rscale>
<asrwt>0</asrwt>
<pdfrwt beam="1">  1       21 0.14490579E-01 0.12645448E+03</pdfrwt>
<pdfrwt beam="2">  1       21 0.82343433E-01 0.12645448E+03</pdfrwt>
<totfact> 0.55630366E+04</totfact>
</mgrwt>
</event>
<event>
 6    1  0.4259848E-002  0.1277830E+03  0.7546771E-02  0.1230783E+00
         21   -1    0    0  504  502  0.00000000000E+00  0.00000000000E+00  0.83037109623E+01  0.83037109623E+01  0.00000000000E+00 0.  1.
         21   -1    0    0  502  503 -0.00000000000E+00 -0.00000000000E+00 -0.89522230657E+03  0.89522230657E+03  0.00000000000E+00 0.  1.
         25    2    1    2    0    0  0.24862820756E+02 -0.92590246671E+01 -0.83967589104E+03  0.84934334015E+03  0.12499847225E+03 0.  0.
          5    1    3    3  501    0  0.54723350559E+02  0.25667651104E+02 -0.69316524792E+03  0.69579561965E+03  0.10000000000E+00 0. -1.
         -5    1    3    3    0  501 -0.29860529803E+02 -0.34926675771E+02 -0.14651064313E+03  0.15354772050E+03  0.10000000000E+00 0. -1.
         21    1    1    2  504  503 -0.24862820756E+02  0.92590246671E+01 -0.47242704567E+02  0.54182677384E+02  0.00000000000E+00 0.  1.
<mgrwt>
<rscale>  1 0.12778305E+03</rscale>
<asrwt>0</asrwt>
<pdfrwt beam="1">  1       21 0.12774937E-02 0.12778305E+03</pdfrwt>
<pdfrwt beam="2">  1       21 0.13772654E+00 0.12778305E+03</pdfrwt>
<totfact> 0.95708184E+05</totfact>
</mgrwt>
</event>
<event>
 6    1  0.4259848E-002  0.1321809E+03  0.7546771E-02  0.1224255E+00
         21   -1    0    0  504  502  0.00000000000E+00  0.00000000000E+00  0.84948790679E+02  0.84948790679E+02  0.00000000000E+00 0.  1.
         21   -1    0    0  502  503 -0.00000000000E+00 -0.00000000000E+00 -0.11570097809E+03  0.11570097809E+03  0.00000000000E+00 0.  1.
         25    2    1    2    0    0 -0.29450772581E+02 -0.31267955762E+02  0.20518424059E+02  0.13376398056E+03  0.12500705463E+03 0.  0.
          5    1    3    3  501    0 -0.38056815946E+02 -0.45613206852E+02  0.63912733131E+02  0.87256709401E+02  0.10000000000E+00 0. -1.
         -5    1    3    3    0  501  0.86060433651E+01  0.14345251090E+02 -0.43394309071E+02  0.46507271163E+02  0.10000000000E+00 0. -1.
         21    1    1    2  504  503  0.29450772581E+02  0.31267955762E+02 -0.51270611470E+02  0.66885788204E+02  0.00000000000E+00 0.  1.
<mgrwt>
<rscale>  1 0.13218092E+03</rscale>
<asrwt>0</asrwt>
<pdfrwt beam="1">  1       21 0.13069045E-01 0.13218092E+03</pdfrwt>
<pdfrwt beam="2">  1       21 0.17800150E-01 0.13218092E+03</pdfrwt>
<totfact> 0.14397827E+06</totfact>
</mgrwt>
</event>
<event>
 6    1  0.4259848E-002  0.1266301E+03  0.7546771E-02  0.1232544E+00
         21   -1    0    0  504  502  0.00000000000E+00  0.00000000000E+00  0.11791627890E+02  0.11791627890E+02  0.00000000000E+00 0.  1.
         21   -1    0    0  502  503 -0.00000000000E+00 -0.00000000000E+00 -0.79505233516E+03  0.79505233516E+03  0.00000000000E+00 0.  1.
         25    2    1    2    0    0 -0.34704088195E+01 -0.19968429060E+02 -0.33514165478E+03  0.35826680458E+03  0.12499757037E+03 0.  0.
          5    1    3    3  501    0 -0.21226993407E+02 -0.68662641916E+02 -0.23130448306E+03  0.24221254618E+03  0.10000000000E+00 0.  1.
         -5    1    3    3    0  501  0.17756584587E+02  0.48694212856E+02 -0.10383717172E+03  0.11605425840E+03  0.10000000000E+00 0.  1.
         21    1    1    2  504  503  0.34704088195E+01  0.19968429060E+02 -0.44811905249E+03  0.44857715847E+03  0.00000000000E+00 0.  1.
<mgrwt>
<rscale>  1 0.12663007E+03</rscale>
<asrwt>0</asrwt>
<pdfrwt beam="1">  1       21 0.18140968E-02 0.12663007E+03</pdfrwt>
<pdfrwt beam="2">  1       21 0.12231573E+00 0.12663007E+03</pdfrwt>
<totfact> 0.73423400E+05</totfact>
</mgrwt>
</event>
<event>
 6    1  0.4259848E-002  0.1278694E+03  0.7546771E-02  0.1230652E+00
         21   -1    0    0  504  502  0.00000000000E+00  0.00000000000E+00  0.85148568412E+02  0.85148568412E+02  0.00000000000E+00 0. -1.
         21   -1    0    0  502  503 -0.00000000000E+00 -0.00000000000E+00 -0.15276960654E+03  0.15276960654E+03  0.00000000000E+00 0. -1.
         25    2    1    2    0    0 -0.27087328254E+02  0.35262909349E+00  0.34355989154E+02  0.13240437589E+03  0.12496694389E+03 0.  0.
          5    1    3    3  501    0  0.26873210953E+02  0.44215003988E+02  0.35683741138E+02  0.62852807624E+02  0.10000000000E+00 0. -1.
         -5    1    3    3    0  501 -0.53960539207E+02 -0.43862374894E+02 -0.13277519846E+01  0.69551568266E+02  0.10000000000E+00 0. -1.
         21    1    1    2  504  503  0.27087328254E+02 -0.35262909349E+00 -0.10197702728E+03  0.10551379906E+03  0.00000000000E+00 0. -1.
<mgrwt>
<rscale>  1 0.12786941E+03</rscale>
<asrwt>0</asrwt>
<pdfrwt beam="1">  1       21 0.13099780E-01 0.12786941E+03</pdfrwt>
<pdfrwt beam="2">  1       21 0.23503016E-01 0.12786941E+03</pdfrwt>
<totfact> 0.85622314E+05</totfact>
</mgrwt>
</event>
<event>
 6    1  0.4259848E-002  0.2352425E+03  0.7546771E-02  0.1123003E+00
         21   -1    0    0  504  502  0.00000000000E+00  0.00000000000E+00  0.51947363363E+03  0.51947363363E+03  0.00000000000E+00 0.  1.
         21   -1    0    0  502  503 -0.00000000000E+00 -0.00000000000E+00 -0.11166265637E+03  0.11166265637E+03  0.00000000000E+00 0.  1.
         25    2    1    2    0    0  0.10119485196E+03  0.17168000826E+03  0.81835832519E+02  0.24907056491E+03  0.12499847808E+03 0.  0.
          5    1    3    3  501    0  0.18982190786E+02  0.14825835885E+03  0.57981675906E+02  0.16032076995E+03  0.10000000000E+00 0. -1.
         -5    1    3    3    0  501  0.82212661172E+02  0.23421649408E+02  0.23854156613E+02  0.88749794962E+02  0.10000000000E+00 0. -1.
         21    1    1    2  504  503 -0.10119485196E+03 -0.17168000826E+03  0.32597514474E+03  0.38206572509E+03  0.00000000000E+00 0.  1.
<mgrwt>
<rscale>  1 0.23524252E+03</rscale>
<asrwt>0</asrwt>
<pdfrwt beam="1">  1       21 0.79919019E-01 0.23524252E+03</pdfrwt>
<pdfrwt beam="2">  1       21 0.17178871E-01 0.23524252E+03</pdfrwt>
<totfact> 0.41311609E+04</totfact>
</mgrwt>
</event>
<event>
 6    1  0.4259848E-002  0.1336595E+03  0.7546771E-02  0.1222125E+00
         21   -1    0    0  503  502  0.00000000000E+00  0.00000000000E+00  0.79194253219E+02  0.79194253219E+02  0.00000000000E+00 0.  1.
         21   -1    0    0  504  503 -0.00000000000E+00 -0.00000000000E+00 -0.10935784182E+03  0.10935784182E+03  0.00000000000E+00 0.  1.
         25    2    1    2    0    0 -0.83410329360E+01 -0.46581425752E+02 -0.23885547037E+01  0.13368084060E+03  0.12500183956E+03 0.  0.
          5    1    3    3  501    0  0.39072841550E+02  0.22809484677E+02  0.15368946428E+02  0.47782570591E+02  0.10000000000E+00 0. -1.
         -5    1    3    3    0  501 -0.47413874486E+02 -0.69390910429E+02 -0.17757501132E+02  0.85898270008E+02  0.10000000000E+00 0. -1.
         21    1    1    2  504  502  0.83410329360E+01  0.46581425752E+02 -0.27775033892E+02  0.54871254435E+02  0.00000000000E+00 0.  1.
<mgrwt>
<rscale>  1 0.13365950E+03</rscale>
<asrwt>0</asrwt>
<pdfrwt beam="1">  1       21 0.12183731E-01 0.13365950E+03</pdfrwt>
<pdfrwt beam="2">  1       21 0.16824283E-01 0.13365950E+03</pdfrwt>
<totfact> 0.18084391E+06</totfact>
</mgrwt>
</event>
<event>
 6    1  0.4259848E-002  0.1262061E+03  0.7546771E-02  0.1233196E+00
         21   -1    0    0  503  502  0.00000000000E+00  0.00000000000E+00  0.40383750804E+02  0.40383750804E+02  0.00000000000E+00 0.  1.
         21   -1    0    0  504  503 -0.00000000000E+00 -0.00000000000E+00 -0.46557450519E+03  0.46557450519E+03  0.00000000000E+00 0.  1.
         25    2    1    2    0    0 -0.15197252685E+02  0.89353525750E+01 -0.58952550235E+02  0.13929598742E+03  0.12496868375E+03 0.  0.
          5    1    3    3  501    0 -0.47995566780E+02  0.27943322007E+02  0.13829443554E+02  0.57233444631E+02  0.10000000000E+00 0. -1.
         -5    1    3    3    0  501  0.32798314095E+02 -0.19007969432E+02 -0.72781993789E+02  0.82062542791E+02  0.10000000000E+00 0. -1.
         21    1    1    2  504  502  0.15197252685E+02 -0.89353525750E+01 -0.36623820415E+03  0.36666226857E+03  0.00000000000E+00 0.  1.
<mgrwt>
<rscale>  1 0.12620606E+03</rscale>
<asrwt>0</asrwt>
<pdfrwt beam="1">  1       21 0.62128849E-02 0.12620606E+03</pdfrwt>
<pdfrwt beam="2">  1       21 0.71626845E-01 0.12620606E+03</pdfrwt>
<totfact> 0.33183915E+05</totfact>
</mgrwt>
</event>
<event>
 6    1  0.4259848E-002  0.1301032E+03  0.7546771E-02  0.1227303E+00
         21   -1    0    0  503  502  0.00000000000E+00  0.00000000000E+00  0.77379461566E+03  0.77379461566E+03  0.00000000000E+00 0. -1.
         21   -1    0    0  504  503 -0.00000000000E+00 -0.00000000000E+00 -0.91065420143E+01  0.91065420143E+01  0.00000000000E+00 0. -1.
         25    2    1    2    0    0  0.89273569006E+01  0.34974568499E+02  0.64016730445E+03  0.65325417505E+03  0.12499568548E+03 0.  0.
          5    1    3    3  501    0 -0.40829878012E+02  0.61052531003E+02  0.39016895425E+03  0.39702180462E+03  0.10000000000E+00 0.  1.
         -5    1    3    3    0  501  0.49757234912E+02 -0.26077962504E+02  0.24999835019E+03  0.25623237043E+03  0.10000000000E+00 0.  1.
         21    1    1    2  504  502 -0.89273569006E+01 -0.34974568499E+02  0.12452076920E+03  0.12964698263E+03  0.00000000000E+00 0. -1.
<mgrwt>
<rscale>  1 0.13010319E+03</rscale>
<asrwt>0</asrwt>
<pdfrwt beam="1">  1       21 0.11904527E+00 0.13010319E+03</pdfrwt>
<pdfrwt beam="2">  1       21 0.14010071E-02 0.13010319E+03</pdfrwt>
<totfact> 0.11860965E+06</totfact>
</mgrwt>
</event>
<event>
 6    1  0.4259848E-002  0.1260502E+03  0.7546771E-02  0.1233437E+00
         21   -1    0    0  503  502  0.00000000000E+00  0.00000000000E+00  0.16938339342E+03  0.16938339342E+03  0.00000000000E+00 0.  1.
         21   -1    0    0  504  503 -0.00000000000E+00 -0.00000000000E+00 -0.31086744489E+02  0.31086744489E+02  0.00000000000E+00 0.  1.
         25    2    1    2    0    0 -0.79480720204E+01  0.14286555225E+02  0.13310188742E+03  0.18331604055E+03  0.12498552228E+03 0.  0.
          5    1    3    3  501    0 -0.61798091718E+02  0.31509593740E+02  0.77693638675E+02  0.10415454924E+03  0.10000000000E+00 0.  1.
         -5    1    3    3    0  501  0.53850019698E+02 -0.17223038516E+02  0.55408248748E+02  0.79161491310E+02  0.10000000000E+00 0.  1.
         21    1    1    2  504  502  0.79480720204E+01 -0.14286555225E+02  0.51947615120E+01  0.17154097359E+02  0.00000000000E+00 0. -1.
<mgrwt>
<rscale>  1 0.12605022E+03</rscale>
<asrwt>0</asrwt>
<pdfrwt beam="1">  1       21 0.26058983E-01 0.12605022E+03</pdfrwt>
<pdfrwt beam="2">  1       21 0.47825762E-02 0.12605022E+03</pdfrwt>
<totfact> 0.40039037E+06</totfact>
</mgrwt>
</event>
<event>
 6    1  0.4259848E-002  0.1277849E+03  0.7546771E-02  0.1230780E+00
         21   -1    0    0  503  502  0.00000000000E+00  0.00000000000E+00  0.48747923740E+02  0.48747923740E+02  0.00000000000E+00 0. -1.
         21   -1    0    0  504  503 -0.00000000000E+00 -0.00000000000E+00 -0.12761854189E+03  0.12761854189E+03  0.00000000000E+00 0. -1.
         25    2    1    2    0    0 -0.22005901223E+02 -0.14848802703E+02 -0.50197081284E+02  0.13729066306E+03  0.12499693021E+03 0.  0.
          5    1    3    3  501    0  0.29914398589E+02 -0.24153656165E+02 -0.70877137396E+02  0.80634043397E+02  0.10000000000E+00 0. -1.
         -5    1    3    3    0  501 -0.51920299812E+02  0.93048534621E+01  0.20680056112E+02  0.56656619660E+02  0.10000000000E+00 0. -1.
         21    1    1    2  504  502  0.22005901223E+02  0.14848802703E+02 -0.28673536870E+02  0.39075802576E+02  0.00000000000E+00 0. -1.
<mgrwt>
<rscale>  1 0.12778489E+03</rscale>
<asrwt>0</asrwt>
<pdfrwt beam="1">  1       21 0.74996806E-02 0.12778489E+03</pdfrwt>
<pdfrwt beam="2">  1       21 0.19633622E-01 0.12778489E+03</pdfrwt>
<totfact> 0.31731523E+06</totfact>
</mgrwt>
</event>
<event>
 6    1  0.4259848E-002  0.1589315E+03  0.7546771E-02  0.1189908E+00
         21   -1    0    0  503  502  0.00000000000E+00  0.00000000000E+00  0.44818835084E+02  0.44818835084E+02  0.00000000000E+00 0.  1.
         21   -1    0    0  504  503 -0.00000000000E+00 -0.00000000000E+00 -0.85047113735E+03  0.85047113735E+03  0.00000000000E+00 0.  1.
         25    2    1    2    0    0 -0.97415451957E+02  0.12075134819E+02 -0.11128714310E+03  0.19402072783E+03  0.12499454167E+03 0.  0.
          5    1    3    3  501    0  0.30460872695E+02 -0.22515436089E+00 -0.20860071544E+02  0.36919751416E+02  0.10000000000E+00 0.  1.
         -5    1    3    3    0  501 -0.12787632465E+03  0.12300289180E+02 -0.90427071554E+02  0.15710097641E+03  0.10000000000E+00 0.  1.
         21    1    1    2  504  502  0.97415451957E+02 -0.12075134819E+02 -0.69436515917E+03  0.70126924461E+03  0.00000000000E+00 0.  1.
<mgrwt>
<rscale>  1 0.15893148E+03</rscale>
<asrwt>0</asrwt>
<pdfrwt beam="1">  1       21 0.68952053E-02 0.15893148E+03</pdfrwt>
<pdfrwt beam="2">  1       21 0.13084171E+00 0.15893148E+03</pdfrwt>
<totfact> 0.67190312E+04</totfact>
</mgrwt>
</event>
<event>
 6    1  0.4259848E-002  0.1271108E+03  0.7546771E-02  0.1231807E+00
         21   -1    0    0  504  502  0.00000000000E+00  0.00000000000E+00  0.63032460113E+03  0.63032460113E+03  0.00000000000E+00 0. -1.
         21   -1    0    0  502  503 -0.00000000000E+00 -0.00000000000E+00 -0.13155554743E+03  0.13155554743E+03  0.00000000000E+00 0.  1.
         25    2    1    2    0    0 -0.10638937806E+02  0.20437816482E+02  0.62284490408E+03  0.63568304879E+03  0.12500509044E+03 0.  0.
          5    1    3    3  501    0 -0.15672626221E+02  0.72439917596E+02  0.33073733594E+03  0.33894006588E+03  0.10000000000E+00 0.  1.
         -5    1    3    3    0  501  0.50336884143E+01 -0.52002101115E+02  0.29210756814E+03  0.29674298291E+03  0.10000000000E+00 0.  1.
         21    1    1    2  504  503  0.10638937806E+02 -0.20437816482E+02 -0.12407585038E+03  0.12619709976E+03  0.00000000000E+00 0.  1.
<mgrwt>
<rscale>  1 0.12711083E+03</rscale>
<asrwt>0</asrwt>
<pdfrwt beam="1">  1       21 0.96973014E-01 0.12711083E+03</pdfrwt>
<pdfrwt beam="2">  1       21 0.20239315E-01 0.12711083E+03</pdfrwt>
<totfact> 0.20824414E+04</totfact>
</mgrwt>
</event>
<event>
 6    1  0.4259848E-002  0.1503770E+03  0.7546771E-02  0.1200010E+00
         21   -1    0    0  503  502  0.00000000000E+00  0.00000000000E+00  0.15293520084E+02  0.15293520084E+02  0.00000000000E+00 0. -1.
         21   -1    0    0  504  503 -0.00000000000E+00 -0.00000000000E+00 -0.14764544292E+04  0.14764544292E+04  0.00000000000E+00 0. -1.
         25    2    1    2    0    0  0.61600119716E+02  0.56500150064E+02 -0.40053722172E+03  0.42783561832E+03  0.12500563434E+03 0.  0.
          5    1    3    3  501    0  0.52245776589E+02 -0.28396965521E+02 -0.22345132892E+03  0.23122827513E+03  0.10000000000E+00 0. -1.
         -5    1    3    3    0  501  0.93543431270E+01  0.84897115585E+02 -0.17708589280E+03  0.19660734319E+03  0.10000000000E+00 0. -1.
         21    1    1    2  504  502 -0.61600119716E+02 -0.56500150064E+02 -0.10606236874E+04  0.10639123310E+04  0.00000000000E+00 0. -1.
<mgrwt>
<rscale>  1 0.15037703E+03</rscale>
<asrwt>0</asrwt>
<pdfrwt beam="1">  1       21 0.23528487E-02 0.15037703E+03</pdfrwt>
<pdfrwt beam="2">  1       21 0.22714689E+00 0.15037703E+03</pdfrwt>
<totfact> 0.88441034E+04</totfact>
</mgrwt>
</event>
<event>
 6    1  0.4259848E-002  0.1265127E+03  0.7546771E-02  0.1232724E+00
         21   -1    0    0  504  502  0.00000000000E+00  0.00000000000E+00  0.23547894291E+03  0.23547894291E+03  0.00000000000E+00 0.  1.
         21   -1    0    0  502  503 -0.00000000000E+00 -0.00000000000E+00 -0.27299527096E+02  0.27299527096E+02  0.00000000000E+00 0.  1.
         25    2    1    2    0    0  0.13738531935E+02  0.13806109844E+02  0.20781839068E+03  0.24329806272E+03  0.12500443147E+03 0.  0.
          5    1    3    3  501    0 -0.19448365978E+02  0.63689463670E+02  0.10825264441E+03  0.12709536476E+03  0.10000000000E+00 0.  1.
         -5    1    3    3    0  501  0.33186897914E+02 -0.49883353826E+02  0.99565746276E+02  0.11620269796E+03  0.10000000000E+00 0.  1.
         21    1    1    2  504  503 -0.13738531935E+02 -0.13806109844E+02  0.36102512581E+00  0.19480407283E+02  0.00000000000E+00 0.  1.
<mgrwt>
<rscale>  1 0.12651270E+03</rscale>
<asrwt>0</asrwt>
<pdfrwt beam="1">  1       21 0.36227528E-01 0.12651270E+03</pdfrwt>
<pdfrwt beam="2">  1       21 0.41999274E-02 0.12651270E+03</pdfrwt>
<totfact> 0.26308933E+06</totfact>
</mgrwt>
</event>
<event>
 6    1  0.4259848E-002  0.1300489E+03  0.7546771E-02  0.1227383E+00
         21   -1    0    0  504  502  0.00000000000E+00  0.00000000000E+00  0.12371592480E+03  0.12371592480E+03  0.00000000000E+00 0. -1.
         21   -1    0    0  502  503 -0.00000000000E+00 -0.00000000000E+00 -0.11823032268E+03  0.11823032268E+03  0.00000000000E+00 0. -1.
         25    2    1    2    0    0 -0.34422546274E+02  0.10122372764E+02  0.84552728826E+02  0.15511892086E+03  0.12500136613E+03 0.  0.
          5    1    3    3  501    0  0.30613454043E+02 -0.19330638977E+02 -0.91235159610E+01  0.37337725094E+02  0.10000000000E+00 0. -1.
         -5    1    3    3    0  501 -0.65036000316E+02  0.29453011741E+02  0.93676244787E+02  0.11778119576E+03  0.10000000000E+00 0. -1.
         21    1    1    2  504  503  0.34422546274E+02 -0.10122372764E+02 -0.79067126712E+02  0.86827326625E+02  0.00000000000E+00 0. -1.
<mgrwt>
<rscale>  1 0.13004890E+03</rscale>
<asrwt>0</asrwt>
<pdfrwt beam="1">  1       21 0.19033219E-01 0.13004890E+03</pdfrwt>
<pdfrwt beam="2">  1       21 0.18189280E-01 0.13004890E+03</pdfrwt>
<totfact> 0.70030207E+05</totfact>
</mgrwt>
</event>
<event>
 6    1  0.4259848E-002  0.1283433E+03  0.7546771E-02  0.1229935E+00
         21   -1    0    0  503  502  0.00000000000E+00  0.00000000000E+00  0.17737936701E+03  0.17737936701E+03  0.00000000000E+00 0.  1.
         21   -1    0    0  504  503 -0.00000000000E+00 -0.00000000000E+00 -0.39274912974E+02  0.39274912974E+02  0.00000000000E+00 0.  1.
         25    2    1    2    0    0 -0.19290944656E+02 -0.21819922982E+02  0.13668335590E+03  0.18749490577E+03  0.12499500120E+03 0.  0.
          5    1    3    3  501    0  0.60146386991E+01 -0.11379366580E+02 -0.22528762706E+02  0.25946502876E+02  0.10000000000E+00 0.  1.
         -5    1    3    3    0  501 -0.25305583355E+02 -0.10440556401E+02  0.15921211861E+03  0.16154840290E+03  0.10000000000E+00 0.  1.
         21    1    1    2  504  502  0.19290944656E+02  0.21819922982E+02  0.14210981376E+01  0.29159374214E+02  0.00000000000E+00 0.  1.
<mgrwt>
<rscale>  1 0.12834329E+03</rscale>
<asrwt>0</asrwt>
<pdfrwt beam="1">  1       21 0.27289133E-01 0.12834329E+03</pdfrwt>
<pdfrwt beam="2">  1       21 0.60422944E-02 0.12834329E+03</pdfrwt>
<totfact> 0.24749891E+06</totfact>
</mgrwt>
</event>
<event>
 6    1  0.4259848E-002  0.1263150E+03  0.7546771E-02  0.1233028E+00
         21   -1    0    0  503  502  0.00000000000E+00  0.00000000000E+00  0.26359877695E+02  0.26359877695E+02  0.00000000000E+00 0.  1.
         21   -1    0    0  504  503 -0.00000000000E+00 -0.00000000000E+00 -0.20016758185E+03  0.20016758185E+03  0.00000000000E+00 0.  1.
         25    2    1    2    0    0 -0.16994136361E+02 -0.63621596412E+01 -0.14324082372E+03  0.19098014002E+03  0.12500481013E+03 0.  0.
          5    1    3    3  501    0 -0.24459939340E+02 -0.55090581854E+02 -0.29694223856E+02  0.67193881953E+02  0.10000000000E+00 0. -1.
         -5    1    3    3    0  501  0.74658029791E+01  0.48728422213E+02 -0.11354659986E+03  0.12378625806E+03  0.10000000000E+00 0. -1.
         21    1    1    2  504  502  0.16994136361E+02  0.63621596412E+01 -0.30566880442E+02  0.35547319532E+02  0.00000000000E+00 0.  1.
<mgrwt>
<rscale>  1 0.12631500E+03</rscale>
<asrwt>0</asrwt>
<pdfrwt beam="1">  1       21 0.40553658E-02 0.12631500E+03</pdfrwt>
<pdfrwt beam="2">  1       21 0.30795013E-01 0.12631500E+03</pdfrwt>
<totfact> 0.38293216E+06</totfact>
</mgrwt>
</event>
<event>
 6    1  0.4259848E-002  0.1275935E+03  0.7546771E-02  0.1231071E+00
         21   -1    0    0  503  502  0.00000000000E+00  0.00000000000E+00  0.48413651602E+03  0.48413651602E+03  0.00000000000E+00 0.  1.
         21   -1    0    0  504  503 -0.00000000000E+00 -0.00000000000E+00 -0.60223477141E+02  0.60223477141E+02  0.00000000000E+00 0. -1.
         25    2    1    2    0    0  0.46262223890E+01  0.25170456611E+02  0.47251111830E+03  0.48943525243E+03  0.12500062234E+03 0.  0.
          5    1    3    3  501    0  0.50367317404E+02 -0.24942833701E+02  0.15829801086E+03  0.16798000434E+03  0.10000000000E+00 0. -1.
         -5    1    3    3    0  501 -0.45741095015E+02  0.50113290312E+02  0.31421310744E+03  0.32145524810E+03  0.10000000000E+00 0. -1.
         21    1    1    2  504  502 -0.46262223890E+01 -0.25170456611E+02 -0.48598079427E+02  0.54924740724E+02  0.00000000000E+00 0. -1.
<mgrwt>
<rscale>  1 0.12759353E+03</rscale>
<asrwt>0</asrwt>
<pdfrwt beam="1">  1       21 0.74482538E-01 0.12759353E+03</pdfrwt>
<pdfrwt beam="2">  1       21 0.92651506E-02 0.12759353E+03</pdfrwt>
<totfact> 0.15319916E+05</totfact>
</mgrwt>
</event>
<event>
 6    1  0.4259848E-002  0.1261269E+03  0.7546771E-02  0.1233319E+00
         21   -1    0    0  504  502  0.00000000000E+00  0.00000000000E+00  0.43241958337E+02  0.43241958337E+02  0.00000000000E+00 0. -1.
         21   -1    0    0  502  503 -0.00000000000E+00 -0.00000000000E+00 -0.41336574321E+03  0.41336574321E+03  0.00000000000E+00 0. -1.
         25    2    1    2    0    0 -0.13027005097E+02 -0.10611315630E+02 -0.49418955200E+02  0.13546304464E+03  0.12500280177E+03 0.  0.
          5    1    3    3  501    0 -0.12127396407E+02 -0.46974458762E+02 -0.76171954177E+02  0.90309745447E+02  0.10000000000E+00 0. -1.
         -5    1    3    3    0  501 -0.89960869011E+00  0.36363143131E+02  0.26752998977E+02  0.45153299198E+02  0.10000000000E+00 0. -1.
         21    1    1    2  504  503  0.13027005097E+02  0.10611315630E+02 -0.32070482967E+03  0.32114465690E+03  0.00000000000E+00 0. -1.
<mgrwt>
<rscale>  1 0.12612693E+03</rscale>
<asrwt>0</asrwt>
<pdfrwt beam="1">  1       21 0.66526095E-02 0.12612693E+03</pdfrwt>
<pdfrwt beam="2">  1       21 0.63594725E-01 0.12612693E+03</pdfrwt>
<totfact> 0.38215573E+05</totfact>
</mgrwt>
</event>
<event>
 6    1  0.4259848E-002  0.1260947E+03  0.7546771E-02  0.1233368E+00
         21   -1    0    0  504  502  0.00000000000E+00  0.00000000000E+00  0.21587660675E+02  0.21587660675E+02  0.00000000000E+00 0. -1.
         21   -1    0    0  502  503 -0.00000000000E+00 -0.00000000000E+00 -0.28939474584E+03  0.28939474584E+03  0.00000000000E+00 0. -1.
         25    2    1    2    0    0  0.14041668560E+02 -0.87671561856E+01 -0.16932139828E+03  0.21111518464E+03  0.12500341510E+03 0.  0.
          5    1    3    3  501    0  0.15957614477E+02 -0.89403565421E+01  0.16888143560E+02  0.24895678898E+02  0.10000000000E+00 0.  1.
         -5    1    3    3    0  501 -0.19159459173E+01  0.17320035653E+00 -0.18620954184E+03  0.18621950574E+03  0.10000000000E+00 0.  1.
         21    1    1    2  504  503 -0.14041668560E+02  0.87671561856E+01 -0.98485686894E+02  0.99867221883E+02  0.00000000000E+00 0. -1.
<mgrwt>
<rscale>  1 0.12609475E+03</rscale>
<asrwt>0</asrwt>
<pdfrwt beam="1">  1       21 0.33211786E-02 0.12609475E+03</pdfrwt>
<pdfrwt beam="2">  1       21 0.44522268E-01 0.12609475E+03</pdfrwt>
<totfact> 0.25691510E+06</totfact>
</mgrwt>
</event>
<event>
 6    1  0.4259848E-002  0.1277659E+03  0.7546771E-02  0.1230809E+00
         21   -1    0    0  503  502  0.00000000000E+00  0.00000000000E+00  0.15460584598E+03  0.15460584598E+03  0.00000000000E+00 0.  1.
         21   -1    0    0  504  503 -0.00000000000E+00 -0.00000000000E+00 -0.56722414073E+02  0.56722414073E+02  0.00000000000E+00 0.  1.
         25    2    1    2    0    0 -0.25409071612E+02  0.73172688045E+01  0.12117618391E+03  0.17609027432E+03  0.12499981528E+03 0.  0.
          5    1    3    3  501    0 -0.56008312147E+02 -0.37775397846E+02  0.92405533288E+02  0.11446704458E+03  0.10000000000E+00 0.  1.
         -5    1    3    3    0  501  0.30599240534E+02  0.45092666650E+02  0.28770650623E+02  0.61623229745E+02  0.10000000000E+00 0.  1.
         21    1    1    2  504  502  0.25409071612E+02 -0.73172688045E+01 -0.23292752000E+02  0.35237985735E+02  0.00000000000E+00 0.  1.
<mgrwt>
<rscale>  1 0.12776587E+03</rscale>
<asrwt>0</asrwt>
<pdfrwt beam="1">  1       21 0.23785515E-01 0.12776587E+03</pdfrwt>
<pdfrwt beam="2">  1       21 0.87265253E-02 0.12776587E+03</pdfrwt>
<totfact> 0.17094237E+06</totfact>
</mgrwt>
</event>
<event>
 6    1  0.4259848E-002  0.1280990E+03  0.7546771E-02  0.1230304E+00
         21   -1    0    0  504  502  0.00000000000E+00  0.00000000000E+00  0.79219786301E+01  0.79219786301E+01  0.00000000000E+00 0.  1.
         21   -1    0    0  502  503 -0.00000000000E+00 -0.00000000000E+00 -0.11470931197E+04  0.11470931197E+04  0.00000000000E+00 0.  1.
         25    2    1    2    0    0  0.19832326074E+02 -0.19736384520E+02 -0.53220203614E+03  0.54740145433E+03  0.12500599547E+03 0.  0.
          5    1    3    3  501    0  0.15050565085E+02  0.36553354089E+02 -0.41925300178E+03  0.42111252262E+03  0.10000000000E+00 0.  1.
         -5    1    3    3    0  501  0.47817609890E+01 -0.56289738609E+02 -0.11294903436E+03  0.12628893171E+03  0.10000000000E+00 0.  1.
         21    1    1    2  504  503 -0.19832326074E+02  0.19736384520E+02 -0.60696910497E+03  0.60761364403E+03  0.00000000000E+00 0.  1.
<mgrwt>
<rscale>  1 0.12809897E+03</rscale>
<asrwt>0</asrwt>
<pdfrwt beam="1">  1       21 0.12187662E-02 0.12809897E+03</pdfrwt>
<pdfrwt beam="2">  1       21 0.17647582E+00 0.12809897E+03</pdfrwt>
<totfact> 0.53754241E+05</totfact>
</mgrwt>
</event>
<event>
 6    1  0.4259848E-002  0.1259927E+03  0.7546771E-02  0.1233526E+00
         21   -1    0    0  503  502  0.00000000000E+00  0.00000000000E+00  0.65348851950E+02  0.65348851950E+02  0.00000000000E+00 0.  1.
         21   -1    0    0  504  503 -0.00000000000E+00 -0.00000000000E+00 -0.77050105983E+02  0.77050105983E+02  0.00000000000E+00 0.  1.
         25    2    1    2    0    0 -0.14635890736E+02 -0.61982557788E+01 -0.11319323577E+02  0.12650010442E+03  0.12498608586E+03 0.  0.
          5    1    3    3  501    0  0.33329365154E+02 -0.50067461688E+02 -0.12749427176E+02  0.61482966705E+02  0.10000000000E+00 0. -1.
         -5    1    3    3    0  501 -0.47965255890E+02  0.43869205910E+02  0.14301035989E+01  0.65017137711E+02  0.10000000000E+00 0. -1.
         21    1    1    2  504  502  0.14635890736E+02  0.61982557788E+01 -0.38193045593E+00  0.15898853519E+02  0.00000000000E+00 0. -1.
<mgrwt>
<rscale>  1 0.12599266E+03</rscale>
<asrwt>0</asrwt>
<pdfrwt beam="1">  1       21 0.10053670E-01 0.12599266E+03</pdfrwt>
<pdfrwt beam="2">  1       21 0.11853862E-01 0.12599266E+03</pdfrwt>
<totfact> 0.47454659E+06</totfact>
</mgrwt>
</event>
<event>
 6    1  0.4259848E-002  0.1355579E+03  0.7546771E-02  0.1219434E+00
         21   -1    0    0  503  502  0.00000000000E+00  0.00000000000E+00  0.21317125229E+02  0.21317125229E+02  0.00000000000E+00 0.  1.
         21   -1    0    0  504  503 -0.00000000000E+00 -0.00000000000E+00 -0.41410696803E+03  0.41410696803E+03  0.00000000000E+00 0. -1.
         25    2    1    2    0    0 -0.50495307823E+02  0.13543885418E+02 -0.28881298469E+03  0.31904368268E+03  0.12507085346E+03 0.  0.
          5    1    3    3  501    0 -0.97902622413E+01  0.62125953131E+02 -0.20194225664E+03  0.21150926292E+03  0.10000000000E+00 0. -1.
         -5    1    3    3    0  501 -0.40705045582E+02 -0.48582067713E+02 -0.86870728052E+02  0.10753441975E+03  0.10000000000E+00 0. -1.
         21    1    1    2  504  502  0.50495307823E+02 -0.13543885418E+02 -0.10397685811E+03  0.11638041058E+03  0.00000000000E+00 0. -1.
<mgrwt>
<rscale>  1 0.13555785E+03</rscale>
<asrwt>0</asrwt>
<pdfrwt beam="1">  1       21 0.32795582E-02 0.13555785E+03</pdfrwt>
<pdfrwt beam="2">  1       21 0.63708755E-01 0.13555785E+03</pdfrwt>
<totfact> 0.12442979E+06</totfact>
</mgrwt>
</event>
<event>
 6    1  0.4259848E-002  0.1264530E+03  0.7546771E-02  0.1232816E+00
         21   -1    0    0  503  502  0.00000000000E+00  0.00000000000E+00  0.14880161636E+03  0.14880161636E+03  0.00000000000E+00 0.  1.
         21   -1    0    0  504  503 -0.00000000000E+00 -0.00000000000E+00 -0.35743426981E+02  0.35743426981E+02  0.00000000000E+00 0.  1.
         25    2    1    2    0    0  0.17663219794E+02  0.73377948004E+01  0.10190675512E+03  0.16240487505E+03  0.12499809652E+03 0.  0.
          5    1    3    3  501    0  0.69257513677E+02 -0.13922831779E+01  0.79599325524E+02  0.10552063437E+03  0.10000000000E+00 0. -1.
         -5    1    3    3    0  501 -0.51594293882E+02  0.87300779783E+01  0.22307429597E+02  0.56884240682E+02  0.10000000000E+00 0. -1.
         21    1    1    2  504  502 -0.17663219794E+02 -0.73377948004E+01  0.11151434256E+02  0.22140168292E+02  0.00000000000E+00 0. -1.
<mgrwt>
<rscale>  1 0.12645298E+03</rscale>
<asrwt>0</asrwt>
<pdfrwt beam="1">  1       21 0.22892556E-01 0.12645298E+03</pdfrwt>
<pdfrwt beam="2">  1       21 0.54989889E-02 0.12645298E+03</pdfrwt>
<totfact> 0.40426385E+06</totfact>
</mgrwt>
</event>
<event>
 6    1  0.4259848E-002  0.1293237E+03  0.7546771E-02  0.1228463E+00
         21   -1    0    0  504  502  0.00000000000E+00  0.00000000000E+00  0.21968899967E+02  0.21968899967E+02  0.00000000000E+00 0. -1.
         21   -1    0    0  502  503 -0.00000000000E+00 -0.00000000000E+00 -0.47424589299E+03  0.47424589299E+03  0.00000000000E+00 0. -1.
         25    2    1    2    0    0  0.32359724672E+02  0.72928326988E+01 -0.17843832517E+03  0.22037434414E+03  0.12499711388E+03 0.  0.
          5    1    3    3  501    0  0.58050734286E+01 -0.53043266947E+02 -0.38855294023E+02  0.66007809534E+02  0.10000000000E+00 0. -1.
         -5    1    3    3    0  501  0.26554651244E+02  0.60336099646E+02 -0.13958303115E+03  0.15436653461E+03  0.10000000000E+00 0. -1.
         21    1    1    2  504  503 -0.32359724672E+02 -0.72928326988E+01 -0.27383866785E+03  0.27584044881E+03  0.00000000000E+00 0. -1.
<mgrwt>
<rscale>  1 0.12932369E+03</rscale>
<asrwt>0</asrwt>
<pdfrwt beam="1">  1       21 0.33798308E-02 0.12932369E+03</pdfrwt>
<pdfrwt beam="2">  1       21 0.72960907E-01 0.12932369E+03</pdfrwt>
<totfact> 0.88181235E+05</totfact>
</mgrwt>
</event>
<event>
 6    1  0.4259848E-002  0.1259789E+03  0.7546771E-02  0.1233547E+00
         21   -1    0    0  503  502  0.00000000000E+00  0.00000000000E+00  0.89010753833E+01  0.89010753833E+01  0.00000000000E+00 0. -1.
         21   -1    0    0  504  503 -0.00000000000E+00 -0.00000000000E+00 -0.78050172918E+03  0.78050172918E+03  0.00000000000E+00 0. -1.
         25    2    1    2    0    0 -0.12315682964E+02 -0.96934133621E+01 -0.44670462050E+03  0.46412896491E+03  0.12500015914E+03 0.  0.
          5    1    3    3  501    0 -0.60727846332E+02  0.16585629262E+02 -0.15548618826E+03  0.16774659209E+03  0.10000000000E+00 0.  1.
         -5    1    3    3    0  501  0.48412163368E+02 -0.26279042624E+02 -0.29121843224E+03  0.29638237283E+03  0.10000000000E+00 0.  1.
         21    1    1    2  504  502  0.12315682964E+02  0.96934133621E+01 -0.32489603330E+03  0.32527383965E+03  0.00000000000E+00 0. -1.
<mgrwt>
<rscale>  1 0.12597888E+03</rscale>
<asrwt>0</asrwt>
<pdfrwt beam="1">  1       21 0.13693964E-02 0.12597888E+03</pdfrwt>
<pdfrwt beam="2">  1       21 0.12007717E+00 0.12597888E+03</pdfrwt>
<totfact> 0.12044553E+06</totfact>
</mgrwt>
</event>
<event>
 6    1  0.4259848E-002  0.1273749E+03  0.7546771E-02  0.1231404E+00
         21   -1    0    0  504  502  0.00000000000E+00  0.00000000000E+00  0.12628619383E+02  0.12628619383E+02  0.00000000000E+00 0. -1.
         21   -1    0    0  502  503 -0.00000000000E+00 -0.00000000000E+00 -0.46039679459E+03  0.46039679459E+03  0.00000000000E+00 0. -1.
         25    2    1    2    0    0 -0.21936332514E+02 -0.10827075927E+02 -0.35804156951E+03  0.38002384394E+03  0.12500371280E+03 0.  0.
          5    1    3    3  501    0 -0.38270562607E+02  0.36395150421E+02 -0.29445360726E+03  0.29915243567E+03  0.10000000000E+00 0.  1.
         -5    1    3    3    0  501  0.16334230093E+02 -0.47222226348E+02 -0.63587962243E+02  0.80871408274E+02  0.10000000000E+00 0.  1.
         21    1    1    2  504  503  0.21936332514E+02  0.10827075927E+02 -0.89726605703E+02  0.93001570031E+02  0.00000000000E+00 0. -1.
<mgrwt>
<rscale>  1 0.12737487E+03</rscale>
<asrwt>0</asrwt>
<pdfrwt beam="1">  1       21 0.19428644E-02 0.12737487E+03</pdfrwt>
<pdfrwt beam="2">  1       21 0.70830279E-01 0.12737487E+03</pdfrwt>
<totfact> 0.23188830E+06</totfact>
</mgrwt>
</event>
<event>
 6    1  0.4259848E-002  0.1316700E+03  0.7546771E-02  0.1224999E+00
         21   -1    0    0  504  502  0.00000000000E+00  0.00000000000E+00  0.16773855179E+03  0.16773855179E+03  0.00000000000E+00 0. -1.
         21   -1    0    0  502  503 -0.00000000000E+00 -0.00000000000E+00 -0.52854034128E+02  0.52854034128E+02  0.00000000000E+00 0. -1.
         25    2    1    2    0    0  0.12596686625E+02 -0.39423903919E+02  0.12091711243E+03  0.17876779765E+03  0.12499622668E+03 0.  0.
          5    1    3    3  501    0  0.36383614595E+02 -0.15585611139E+00  0.12731626426E+03  0.13241311434E+03  0.10000000000E+00 0. -1.
         -5    1    3    3    0  501 -0.23786927970E+02 -0.39268047808E+02 -0.63991518362E+01  0.46354683314E+02  0.10000000000E+00 0. -1.
         21    1    1    2  504  503 -0.12596686625E+02  0.39423903919E+02 -0.60325947653E+01  0.41824788269E+02  0.00000000000E+00 0. -1.
<mgrwt>
<rscale>  1 0.13166996E+03</rscale>
<asrwt>0</asrwt>
<pdfrwt beam="1">  1       21 0.25805931E-01 0.13166996E+03</pdfrwt>
<pdfrwt beam="2">  1       21 0.81313899E-02 0.13166996E+03</pdfrwt>
<totfact> 0.16571463E+06</totfact>
</mgrwt>
</event>
<event>
 6    1  0.4259848E-002  0.1335745E+03  0.7546771E-02  0.1222246E+00
         21   -1    0    0  504  502  0.00000000000E+00  0.00000000000E+00  0.66136085489E+02  0.66136085489E+02  0.00000000000E+00 0.  1.
         21   -1    0    0  502  503 -0.00000000000E+00 -0.00000000000E+00 -0.12634631635E+03  0.12634631635E+03  0.00000000000E+00 0.  1.
         25    2    1    2    0    0 -0.76503317358E+01  0.46531867531E+02 -0.56965333547E+02  0.14521431926E+03  0.12497362530E+03 0.  0.
          5    1    3    3  501    0  0.49409144371E+02  0.55447671164E+02 -0.21002620829E+02  0.77180488899E+02  0.10000000000E+00 0. -1.
         -5    1    3    3    0  501 -0.57059476107E+02 -0.89158036329E+01 -0.35962712719E+02  0.68033830365E+02  0.10000000000E+00 0. -1.
         21    1    1    2  504  503  0.76503317358E+01 -0.46531867531E+02 -0.32448973117E+01  0.47268082573E+02  0.00000000000E+00 0.  1.
<mgrwt>
<rscale>  1 0.13357451E+03</rscale>
<asrwt>0</asrwt>
<pdfrwt beam="1">  1       21 0.10174783E-01 0.13357451E+03</pdfrwt>
<pdfrwt beam="2">  1       21 0.19437895E-01 0.13357451E+03</pdfrwt>
<totfact> 0.19070509E+06</totfact>
</mgrwt>
</event>
<event>
 6    1  0.4259848E-002  0.1268490E+03  0.7546771E-02  0.1232208E+00
         21   -1    0    0  503  502  0.00000000000E+00  0.00000000000E+00  0.25476230205E+03  0.25476230205E+03  0.00000000000E+00 0. -1.
         21   -1    0    0  504  503 -0.00000000000E+00 -0.00000000000E+00 -0.55548866281E+02  0.55548866281E+02  0.00000000000E+00 0. -1.
         25    2    1    2    0    0 -0.85571550198E+01 -0.19880880763E+02  0.23582729727E+03  0.26777824959E+03  0.12498880947E+03 0.  0.
          5    1    3    3  501    0  0.10113539285E+01  0.36534389472E+02  0.14744740036E+02  0.39410681415E+02  0.10000000000E+00 0. -1.
         -5    1    3    3    0  501 -0.95685089482E+01 -0.56415270235E+02  0.22108255724E+03  0.22836756817E+03  0.10000000000E+00 0. -1.
         21    1    1    2  504  502  0.85571550198E+01  0.19880880763E+02 -0.36613861507E+02  0.42532918738E+02  0.00000000000E+00 0. -1.
<mgrwt>
<rscale>  1 0.12684903E+03</rscale>
<asrwt>0</asrwt>
<pdfrwt beam="1">  1       21 0.39194200E-01 0.12684903E+03</pdfrwt>
<pdfrwt beam="2">  1       21 0.85459796E-02 0.12684903E+03</pdfrwt>
<totfact> 0.67487060E+05</totfact>
</mgrwt>
</event>
<event>
 6    1  0.4259848E-002  0.1260848E+03  0.7546771E-02  0.1233384E+00
         21   -1    0    0  504  502  0.00000000000E+00  0.00000000000E+00  0.23459666702E+03  0.23459666702E+03  0.00000000000E+00 0.  1.
         21   -1    0    0  502  503 -0.00000000000E+00 -0.00000000000E+00 -0.25315867884E+02  0.25315867884E+02  0.00000000000E+00 0.  1.
         25    2    1    2    0    0 -0.50256208624E+01  0.15684882547E+02  0.20820577876E+03  0.24340713959E+03  0.12500446748E+03 0.  0.
          5    1    3    3  501    0  0.40192352691E+02  0.51869975273E+02  0.13464941986E+03  0.14978783601E+03  0.10000000000E+00 0.  1.
         -5    1    3    3    0  501 -0.45217973553E+02 -0.36185092726E+02  0.73556358902E+02  0.93619303580E+02  0.10000000000E+00 0.  1.
         21    1    1    2  504  503  0.50256208624E+01 -0.15684882547E+02  0.10750203766E+01  0.16505395311E+02  0.00000000000E+00 0.  1.
<mgrwt>
<rscale>  1 0.12608485E+03</rscale>
<asrwt>0</asrwt>
<pdfrwt beam="1">  1       21 0.36091793E-01 0.12608485E+03</pdfrwt>
<pdfrwt beam="2">  1       21 0.38947491E-02 0.12608485E+03</pdfrwt>
<totfact> 0.30038921E+06</totfact>
</mgrwt>
</event>
<event>
 6    1  0.4259848E-002  0.1297492E+03  0.7546771E-02  0.1227828E+00
         21   -1    0    0  504  502  0.00000000000E+00  0.00000000000E+00  0.27286754635E+02  0.27286754635E+02  0.00000000000E+00 0. -1.
         21   -1    0    0  502  503 -0.00000000000E+00 -0.00000000000E+00 -0.63020778571E+03  0.63020778571E+03  0.00000000000E+00 0. -1.
         25    2    1    2    0    0 -0.34244463455E+02 -0.59337824353E+01 -0.13129383357E+03  0.18458851746E+03  0.12500782773E+03 0.  0.
          5    1    3    3  501    0 -0.65732323125E+02 -0.14661366181E+02 -0.13582063082E+03  0.15160127875E+03  0.10000000000E+00 0. -1.
         -5    1    3    3    0  501  0.31487859669E+02  0.87275837461E+01  0.45267972509E+01  0.32987238714E+02  0.10000000000E+00 0. -1.
         21    1    1    2  504  503  0.34244463455E+02  0.59337824353E+01 -0.47162719751E+03  0.47290602289E+03  0.00000000000E+00 0. -1.
<mgrwt>
<rscale>  1 0.12974918E+03</rscale>
<asrwt>0</asrwt>
<pdfrwt beam="1">  1       21 0.41979629E-02 0.12974918E+03</pdfrwt>
<pdfrwt beam="2">  1       21 0.96955029E-01 0.12974918E+03</pdfrwt>
<totfact> 0.32408087E+05</totfact>
</mgrwt>
</event>
<event>
 6    1  0.4259848E-002  0.1357486E+03  0.7546771E-02  0.1219167E+00
         21   -1    0    0  504  502  0.00000000000E+00  0.00000000000E+00  0.40550165406E+02  0.40550165406E+02  0.00000000000E+00 0. -1.
         21   -1    0    0  502  503 -0.00000000000E+00 -0.00000000000E+00 -0.33857884385E+03  0.33857884385E+03  0.00000000000E+00 0. -1.
         25    2    1    2    0    0 -0.45058524601E+02 -0.27779639642E+02 -0.86241227134E+02  0.16082668781E+03  0.12500278091E+03 0.  0.
          5    1    3    3  501    0 -0.17238577598E+02  0.47903088565E+02 -0.53346848736E+02  0.73741241661E+02  0.10000000000E+00 0. -1.
         -5    1    3    3    0  501 -0.27819947003E+02 -0.75682728207E+02 -0.32894378398E+02  0.87085446145E+02  0.10000000000E+00 0. -1.
         21    1    1    2  504  503  0.45058524601E+02  0.27779639642E+02 -0.21178745131E+03  0.21830232145E+03  0.00000000000E+00 0. -1.
<mgrwt>
<rscale>  1 0.13574857E+03</rscale>
<asrwt>0</asrwt>
<pdfrwt beam="1">  1       21 0.62384871E-02 0.13574857E+03</pdfrwt>
<pdfrwt beam="2">  1       21 0.52089052E-01 0.13574857E+03</pdfrwt>
<totfact> 0.64905199E+05</totfact>
</mgrwt>
</event>
<event>
 6    1  0.4259848E-002  0.1275370E+03  0.7546771E-02  0.1231157E+00
         21   -1    0    0  504  502  0.00000000000E+00  0.00000000000E+00  0.36888193617E+02  0.36888193617E+02  0.00000000000E+00 0. -1.
         21   -1    0    0  502  503 -0.00000000000E+00 -0.00000000000E+00 -0.18926997016E+03  0.18926997016E+03  0.00000000000E+00 0. -1.
         25    2    1    2    0    0 -0.23826190838E+02 -0.81829589822E+01 -0.82551139990E+02  0.15192228304E+03  0.12502416240E+03 0.  0.
          5    1    3    3  501    0  0.29390728489E+02  0.43926729159E+02 -0.38511121032E+02  0.65394869056E+02  0.10000000000E+00 0. -1.
         -5    1    3    3    0  501 -0.53216919327E+02 -0.52109688141E+02 -0.44040018958E+02  0.86527413984E+02  0.10000000000E+00 0. -1.
         21    1    1    2  504  503  0.23826190838E+02  0.81829589822E+01 -0.69830636553E+02  0.74235880738E+02  0.00000000000E+00 0. -1.
<mgrwt>
<rscale>  1 0.12753701E+03</rscale>
<asrwt>0</asrwt>
<pdfrwt beam="1">  1       21 0.56751067E-02 0.12753701E+03</pdfrwt>
<pdfrwt beam="2">  1       21 0.29118457E-01 0.12753701E+03</pdfrwt>
<totfact> 0.24300460E+06</totfact>
</mgrwt>
</event>
<event>
 6    1  0.4259848E-002  0.1273168E+03  0.7546771E-02  0.1231492E+00
         21   -1    0    0  504  502  0.00000000000E+00  0.00000000000E+00  0.27307639259E+03  0.27307639259E+03  0.00000000000E+00 0. -1.
         21   -1    0    0  502  503 -0.00000000000E+00 -0.00000000000E+00 -0.17841886655E+03  0.17841886655E+03  0.00000000000E+00 0. -1.
         25    2    1    2    0    0  0.19906254332E+02 -0.13739989376E+02  0.25729344938E+03  0.28707053524E+03  0.12499810733E+03 0.  0.
          5    1    3    3  501    0 -0.32612608759E+01 -0.62933167377E+02  0.19212622531E+03  0.20219722014E+03  0.10000000000E+00 0.  1.
         -5    1    3    3    0  501  0.23167515208E+02  0.49193178002E+02  0.65167224071E+02  0.84873315099E+02  0.10000000000E+00 0.  1.
         21    1    1    2  504  503 -0.19906254332E+02  0.13739989376E+02 -0.16263592334E+03  0.16442472391E+03  0.00000000000E+00 0. -1.
<mgrwt>
<rscale>  1 0.12731682E+03</rscale>
<asrwt>0</asrwt>
<pdfrwt beam="1">  1       21 0.42011753E-01 0.12731682E+03</pdfrwt>
<pdfrwt beam="2">  1       21 0.27449056E-01 0.12731682E+03</pdfrwt>
<totfact> 0.71065303E+04</totfact>
</mgrwt>
</event>
<event>
 6    1  0.4259848E-002  0.1621671E+03  0.7546771E-02  0.1186272E+00
         21   -1    0    0  504  502  0.00000000000E+00  0.00000000000E+00  0.14884596438E+03  0.14884596438E+03  0.00000000000E+00 0.  1.
         21   -1    0    0  502  503 -0.00000000000E+00 -0.00000000000E+00 -0.27861681740E+03  0.27861681740E+03  0.00000000000E+00 0.  1.
         25    2    1    2    0    0  0.68723406137E+02 -0.77135439308E+02  0.89390711739E+02  0.18517251367E+03  0.12500151170E+03 0.  0.
          5    1    3    3  501    0 -0.36856958817E+02 -0.17158907504E+02  0.25044183430E+02  0.47750231870E+02  0.10000000000E+00 0.  1.
         -5    1    3    3    0  501  0.10558036495E+03 -0.59976531804E+02  0.64346528309E+02  0.13742228181E+03  0.10000000000E+00 0.  1.
         21    1    1    2  504  503 -0.68723406137E+02  0.77135439308E+02 -0.21916156477E+03  0.24229026811E+03  0.00000000000E+00 0.  1.
<mgrwt>
<rscale>  1 0.16216708E+03</rscale>
<asrwt>0</asrwt>
<pdfrwt beam="1">  1       21 0.22899379E-01 0.16216708E+03</pdfrwt>
<pdfrwt beam="2">  1       21 0.42864126E-01 0.16216708E+03</pdfrwt>
<totfact> 0.94830946E+04</totfact>
</mgrwt>
</event>
<event>
 6    1  0.4259848E-002  0.1371234E+03  0.7546771E-02  0.1217253E+00
         21   -1    0    0  503  502  0.00000000000E+00  0.00000000000E+00  0.32646683090E+03  0.32646683090E+03  0.00000000000E+00 0. -1.
         21   -1    0    0  504  503 -0.00000000000E+00 -0.00000000000E+00 -0.28711189538E+02  0.28711189538E+02  0.00000000000E+00 0. -1.
         25    2    1    2    0    0  0.32311150972E+02 -0.46194161544E+02  0.21694293382E+03  0.25664576816E+03  0.12499961098E+03 0.  0.
          5    1    3    3  501    0 -0.19589151884E+02 -0.75094258083E+02  0.11772457257E+03  0.14100343065E+03  0.10000000000E+00 0. -1.
         -5    1    3    3    0  501  0.51900302856E+02  0.28900096539E+02  0.99218361251E+02  0.11564233751E+03  0.10000000000E+00 0. -1.
         21    1    1    2  504  502 -0.32311150972E+02  0.46194161544E+02  0.80812707543E+02  0.98532252275E+02  0.00000000000E+00 0. -1.
<mgrwt>
<rscale>  1 0.13712335E+03</rscale>
<asrwt>0</asrwt>
<pdfrwt beam="1">  1       21 0.50225664E-01 0.13712335E+03</pdfrwt>
<pdfrwt beam="2">  1       21 0.44171063E-02 0.13712335E+03</pdfrwt>
<totfact> 0.12528757E+06</totfact>
</mgrwt>
</event>
<event>
 6    1  0.4259848E-002  0.1315826E+03  0.7546771E-02  0.1225126E+00
         21   -1    0    0  504  502  0.00000000000E+00  0.00000000000E+00  0.25118411137E+02  0.25118411137E+02  0.00000000000E+00 0. -1.
         21   -1    0    0  502  503 -0.00000000000E+00 -0.00000000000E+00 -0.29758350037E+03  0.29758350037E+03  0.00000000000E+00 0. -1.
         25    2    1    2    0    0  0.19601491284E+02  0.36113898082E+02 -0.20017135871E+03  0.23954654146E+03  0.12500216230E+03 0.  0.
          5    1    3    3  501    0 -0.38435898870E+01 -0.35366527878E+02 -0.13628642010E+03  0.14085298287E+03  0.10000000000E+00 0. -1.
         -5    1    3    3    0  501  0.23445081171E+02  0.71480425960E+02 -0.63884938606E+02  0.98693558591E+02  0.10000000000E+00 0. -1.
         21    1    1    2  504  503 -0.19601491284E+02 -0.36113898082E+02 -0.72293730523E+02  0.83155370050E+02  0.00000000000E+00 0. -1.
<mgrwt>
<rscale>  1 0.13158257E+03</rscale>
<asrwt>0</asrwt>
<pdfrwt beam="1">  1       21 0.38643707E-02 0.13158257E+03</pdfrwt>
<pdfrwt beam="2">  1       21 0.45782079E-01 0.13158257E+03</pdfrwt>
<totfact> 0.18920238E+06</totfact>
</mgrwt>
</event>
<event>
 6    1  0.4259848E-002  0.1541992E+03  0.7546771E-02  0.1195406E+00
         21   -1    0    0  504  502  0.00000000000E+00  0.00000000000E+00  0.79421156380E+03  0.79421156380E+03  0.00000000000E+00 0.  1.
         21   -1    0    0  502  503 -0.00000000000E+00 -0.00000000000E+00 -0.19880051797E+02  0.19880051797E+02  0.00000000000E+00 0.  1.
         25    2    1    2    0    0  0.90129360720E+02  0.53591393869E+01  0.39186221924E+03  0.42110970514E+03  0.12500145143E+03 0.  0.
          5    1    3    3  501    0  0.51125853107E+02 -0.47856619222E+02  0.10129277538E+03  0.12314359587E+03  0.10000000000E+00 0. -1.
         -5    1    3    3    0  501  0.39003507613E+02  0.53215758609E+02  0.29056944386E+03  0.29796610927E+03  0.10000000000E+00 0. -1.
         21    1    1    2  504  503 -0.90129360720E+02 -0.53591393869E+01  0.38246929277E+03  0.39298191046E+03  0.00000000000E+00 0.  1.
<mgrwt>
<rscale>  1 0.15419917E+03</rscale>
<asrwt>0</asrwt>
<pdfrwt beam="1">  1       21 0.12218637E+00 0.15419917E+03</pdfrwt>
<pdfrwt beam="2">  1       21 0.30584701E-02 0.15419917E+03</pdfrwt>
<totfact> 0.31301831E+05</totfact>
</mgrwt>
</event>
<event>
 6    1  0.4259848E-002  0.1266874E+03  0.7546771E-02  0.1232455E+00
         21   -1    0    0  503  502  0.00000000000E+00  0.00000000000E+00  0.13637652621E+03  0.13637652621E+03  0.00000000000E+00 0.  1.
         21   -1    0    0  504  503 -0.00000000000E+00 -0.00000000000E+00 -0.40514838449E+02  0.40514838449E+02  0.00000000000E+00 0.  1.
         25    2    1    2    0    0  0.13501015718E+02  0.15499507894E+02  0.90366795168E+02  0.15561447543E+03  0.12500878019E+03 0.  0.
          5    1    3    3  501    0 -0.29030887360E+02  0.48900972122E+02  0.83605306205E+02  0.10111357338E+03  0.10000000000E+00 0. -1.
         -5    1    3    3    0  501  0.42531903078E+02 -0.33401464229E+02  0.67614889636E+01  0.54500902058E+02  0.10000000000E+00 0. -1.
         21    1    1    2  504  502 -0.13501015718E+02 -0.15499507894E+02  0.54948925888E+01  0.21276889221E+02  0.00000000000E+00 0.  1.
<mgrwt>
<rscale>  1 0.12668744E+03</rscale>
<asrwt>0</asrwt>
<pdfrwt beam="1">  1       21 0.20981004E-01 0.12668744E+03</pdfrwt>
<pdfrwt beam="2">  1       21 0.62330521E-02 0.12668744E+03</pdfrwt>
<totfact> 0.38476012E+06</totfact>
</mgrwt>
</event>
<event>
 6    1  0.4259848E-002  0.1405084E+03  0.7546771E-02  0.1212646E+00
         21   -1    0    0  503  502  0.00000000000E+00  0.00000000000E+00  0.10978616109E+03  0.10978616109E+03  0.00000000000E+00 0. -1.
         21   -1    0    0  504  503 -0.00000000000E+00 -0.00000000000E+00 -0.34277232091E+03  0.34277232091E+03  0.00000000000E+00 0. -1.
         25    2    1    2    0    0  0.19571334116E+02 -0.61117860300E+02  0.59885600775E+02  0.15273803887E+03  0.12499677345E+03 0.  0.
          5    1    3    3  501    0  0.10811633991E+02 -0.38110023984E+02 -0.36130377762E+02  0.53616038224E+02  0.10000000000E+00 0.  1.
         -5    1    3    3    0  501  0.87597001250E+01 -0.23007836316E+02  0.96015978538E+02  0.99122000649E+02  0.10000000000E+00 0.  1.
         21    1    1    2  504  502 -0.19571334116E+02  0.61117860300E+02 -0.29287176059E+03  0.29982044313E+03  0.00000000000E+00 0. -1.
<mgrwt>
<rscale>  1 0.14050845E+03</rscale>
<asrwt>0</asrwt>
<pdfrwt beam="1">  1       21 0.16890179E-01 0.14050845E+03</pdfrwt>
<pdfrwt beam="2">  1       21 0.52734202E-01 0.14050845E+03</pdfrwt>
<totfact> 0.10972524E+05</totfact>
</mgrwt>
</event>
<event>
 6    1  0.4259848E-002  0.1444023E+03  0.7546771E-02  0.1207525E+00
         21   -1    0    0  504  502  0.00000000000E+00  0.00000000000E+00  0.46228408567E+02  0.46228408567E+02  0.00000000000E+00 0.  1.
         21   -1    0    0  502  503 -0.00000000000E+00 -0.00000000000E+00 -0.48558320546E+03  0.48558320546E+03  0.00000000000E+00 0.  1.
         25    2    1    2    0    0  0.62360691682E+02  0.36499882502E+02 -0.79632691100E+02  0.16490414519E+03  0.12502365504E+03 0.  0.
          5    1    3    3  501    0  0.81491262355E+02  0.25328672774E+02 -0.32771799096E+01  0.85399750660E+02  0.10000000000E+00 0.  1.
         -5    1    3    3    0  501 -0.19130570673E+02  0.11171209728E+02 -0.76355511191E+02  0.79504394534E+02  0.10000000000E+00 0.  1.
         21    1    1    2  504  503 -0.62360691682E+02 -0.36499882502E+02 -0.35972210579E+03  0.36690746883E+03  0.00000000000E+00 0.  1.
<mgrwt>
<rscale>  1 0.14440226E+03</rscale>
<asrwt>0</asrwt>
<pdfrwt beam="1">  1       21 0.71120626E-02 0.14440226E+03</pdfrwt>
<pdfrwt beam="2">  1       21 0.74705111E-01 0.14440226E+03</pdfrwt>
<totfact> 0.23919095E+05</totfact>
</mgrwt>
</event>
<event>
 6    1  0.4259848E-002  0.1259474E+03  0.7546771E-02  0.1233596E+00
         21   -1    0    0  503  502  0.00000000000E+00  0.00000000000E+00  0.18407039948E+03  0.18407039948E+03  0.00000000000E+00 0.  1.
         21   -1    0    0  504  503 -0.00000000000E+00 -0.00000000000E+00 -0.39981173430E+02  0.39981173430E+02  0.00000000000E+00 0.  1.
         25    2    1    2    0    0  0.15801328536E+02 -0.26580677336E+01  0.15853697342E+03  0.20247647821E+03  0.12492399682E+03 0.  0.
          5    1    3    3  501    0  0.43642092731E+02  0.37414896782E+02  0.29689855057E+02  0.64699337341E+02  0.10000000000E+00 0.  1.
         -5    1    3    3    0  501 -0.27840764195E+02 -0.40072964515E+02  0.12884711836E+03  0.13777714087E+03  0.10000000000E+00 0.  1.
         21    1    1    2  504  502 -0.15801328536E+02  0.26580677336E+01 -0.14447747364E+02  0.21575094704E+02  0.00000000000E+00 0.  1.
<mgrwt>
<rscale>  1 0.12594742E+03</rscale>
<asrwt>0</asrwt>
<pdfrwt beam="1">  1       21 0.28318522E-01 0.12594742E+03</pdfrwt>
<pdfrwt beam="2">  1       21 0.61509499E-02 0.12594742E+03</pdfrwt>
<totfact> 0.22358442E+06</totfact>
</mgrwt>
</event>
<event>
 6    1  0.4259848E-002  0.1264417E+03  0.7546771E-02  0.1232833E+00
         21   -1    0    0  504  502  0.00000000000E+00  0.00000000000E+00  0.38438682488E+03  0.38438682488E+03  0.00000000000E+00 0.  1.
         21   -1    0    0  502  503 -0.00000000000E+00 -0.00000000000E+00 -0.14107441072E+02  0.14107441072E+02  0.00000000000E+00 0.  1.
         25    2    1    2    0    0  0.11450938229E+02 -0.15229004124E+02  0.33965155616E+03  0.36242335829E+03  0.12499785791E+03 0.  0.
          5    1    3    3  501    0 -0.19213567538E+02  0.36267419995E+02  0.41723561183E+02  0.58526510988E+02  0.10000000000E+00 0. -1.
         -5    1    3    3    0  501  0.30664505768E+02 -0.51496424118E+02  0.29792799497E+03  0.30389684730E+03  0.10000000000E+00 0. -1.
         21    1    1    2  504  503 -0.11450938229E+02  0.15229004124E+02  0.30627827654E+02  0.36070907665E+02  0.00000000000E+00 0.  1.
<mgrwt>
<rscale>  1 0.12644173E+03</rscale>
<asrwt>0</asrwt>
<pdfrwt beam="1">  1       21 0.59136427E-01 0.12644173E+03</pdfrwt>
<pdfrwt beam="2">  1       21 0.21703758E-02 0.12644173E+03</pdfrwt>
<totfact> 0.28578505E+06</totfact>
</mgrwt>
</event>
<event>
 6    1  0.4259848E-002  0.1285535E+03  0.7546771E-02  0.1229618E+00
         21   -1    0    0  504  502  0.00000000000E+00  0.00000000000E+00  0.55827744198E+01  0.55827744198E+01  0.00000000000E+00 0. -1.
         21   -1    0    0  502  503 -0.00000000000E+00 -0.00000000000E+00 -0.11387751204E+04  0.11387751204E+04  0.00000000000E+00 0. -1.
         25    2    1    2    0    0  0.17307872655E+02  0.24511204813E+02 -0.86678982519E+03  0.87627084794E+03  0.12500254515E+03 0.  0.
          5    1    3    3  501    0  0.37435235428E+02  0.61219564370E+01 -0.75329402173E+02  0.84340998535E+02  0.10000000000E+00 0. -1.
         -5    1    3    3    0  501 -0.20127362773E+02  0.18389248376E+02 -0.79146042301E+03  0.79192984941E+03  0.10000000000E+00 0. -1.
         21    1    1    2  504  503 -0.17307872655E+02 -0.24511204813E+02 -0.26640252079E+03  0.26808704687E+03  0.00000000000E+00 0. -1.
<mgrwt>
<rscale>  1 0.12855348E+03</rscale>
<asrwt>0</asrwt>
<pdfrwt beam="1">  1       21 0.85888699E-03 0.12855348E+03</pdfrwt>
<pdfrwt beam="2">  1       21 0.17519645E+00 0.12855348E+03</pdfrwt>
<totfact> 0.95208212E+05</totfact>
</mgrwt>
</event>
<event>
 6    1  0.4259848E-002  0.1676649E+03  0.7546771E-02  0.1180305E+00
         21   -1    0    0  504  502  0.00000000000E+00  0.00000000000E+00  0.25067540864E+03  0.25067540864E+03  0.00000000000E+00 0.  1.
         21   -1    0    0  502  503 -0.00000000000E+00 -0.00000000000E+00 -0.13924652161E+03  0.13924652161E+03  0.00000000000E+00 0.  1.
         25    2    1    2    0    0 -0.31580692107E+02  0.10719539649E+03 -0.66038028974E+02  0.18020140332E+03  0.12499332521E+03 0.  0.
          5    1    3    3  501    0  0.47413103881E+02  0.32884979049E+02 -0.11612932767E+02  0.58858257484E+02  0.10000000000E+00 0.  1.
         -5    1    3    3    0  501 -0.78993795988E+02  0.74310417438E+02 -0.54425096206E+02  0.12134314584E+03  0.10000000000E+00 0.  1.
         21    1    1    2  504  503  0.31580692107E+02 -0.10719539649E+03  0.17746691600E+03  0.20972052693E+03  0.00000000000E+00 0.  1.
<mgrwt>
<rscale>  1 0.16766492E+03</rscale>
<asrwt>0</asrwt>
<pdfrwt beam="1">  1       21 0.38565448E-01 0.16766492E+03</pdfrwt>
<pdfrwt beam="2">  1       21 0.21422542E-01 0.16766492E+03</pdfrwt>
<totfact> 0.13272512E+05</totfact>
</mgrwt>
</event>
<event>
 6    1  0.4259848E-002  0.1292421E+03  0.7546771E-02  0.1228585E+00
         21   -1    0    0  503  502  0.00000000000E+00  0.00000000000E+00  0.20204002951E+02  0.20204002951E+02  0.00000000000E+00 0.  1.
         21   -1    0    0  504  503 -0.00000000000E+00 -0.00000000000E+00 -0.42244462445E+03  0.42244462445E+03  0.00000000000E+00 0.  1.
         25    2    1    2    0    0  0.29204881530E+02  0.15019431981E+02 -0.20251646086E+03  0.24024247931E+03  0.12500009401E+03 0.  0.
          5    1    3    3  501    0  0.46153845948E+02  0.60929876291E+02 -0.15064965291E+03  0.16893180649E+03  0.10000000000E+00 0.  1.
         -5    1    3    3    0  501 -0.16948964418E+02 -0.45910444310E+02 -0.51866807945E+02  0.71310672820E+02  0.10000000000E+00 0.  1.
         21    1    1    2  504  502 -0.29204881530E+02 -0.15019431981E+02 -0.19972416064E+03  0.20240614810E+03  0.00000000000E+00 0.  1.
<mgrwt>
<rscale>  1 0.12924214E+03</rscale>
<asrwt>0</asrwt>
<pdfrwt beam="1">  1       21 0.31083084E-02 0.12924214E+03</pdfrwt>
<pdfrwt beam="2">  1       21 0.64991475E-01 0.12924214E+03</pdfrwt>
<totfact> 0.13015296E+06</totfact>
</mgrwt>
</event>
<event>
 6    1  0.4259848E-002  0.1269442E+03  0.7546771E-02  0.1232062E+00
         21   -1    0    0  503  502  0.00000000000E+00  0.00000000000E+00  0.58374340335E+03  0.58374340335E+03  0.00000000000E+00 0.  1.
         21   -1    0    0  504  503 -0.00000000000E+00 -0.00000000000E+00 -0.18401347225E+02  0.18401347225E+02  0.00000000000E+00 0.  1.
         25    2    1    2    0    0  0.21329869502E+02 -0.59248399636E+01  0.56593672431E+03  0.57999930654E+03  0.12499901037E+03 0.  0.
          5    1    3    3  501    0 -0.10971834934E+02 -0.61007173513E+02  0.31698080527E+03  0.32298467037E+03  0.10000000000E+00 0. -1.
         -5    1    3    3    0  501  0.32301704437E+02  0.55082333549E+02  0.24895591904E+03  0.25701463617E+03  0.10000000000E+00 0. -1.
         21    1    1    2  504  502 -0.21329869502E+02  0.59248399636E+01 -0.59466818498E+00  0.22145444042E+02  0.00000000000E+00 0.  1.
<mgrwt>
<rscale>  1 0.12694416E+03</rscale>
<asrwt>0</asrwt>
<pdfrwt beam="1">  1       21 0.89806663E-01 0.12694416E+03</pdfrwt>
<pdfrwt beam="2">  1       21 0.28309769E-02 0.12694416E+03</pdfrwt>
<totfact> 0.74086723E+05</totfact>
</mgrwt>
</event>
<event>
 6    1  0.4259848E-002  0.1304636E+03  0.7546771E-02  0.1226769E+00
         21   -1    0    0  504  502  0.00000000000E+00  0.00000000000E+00  0.36687272488E+03  0.36687272488E+03  0.00000000000E+00 0. -1.
         21   -1    0    0  502  503 -0.00000000000E+00 -0.00000000000E+00 -0.33865723202E+02  0.33865723202E+02  0.00000000000E+00 0. -1.
         25    2    1    2    0    0 -0.13742734811E+02  0.34667485917E+02  0.33875202660E+03  0.36300646362E+03  0.12502023742E+03 0.  0.
          5    1    3    3  501    0 -0.10744093316E+01 -0.46458056933E+02  0.94209200817E+02  0.10504707958E+03  0.10000000000E+00 0. -1.
         -5    1    3    3    0  501 -0.12668325479E+02  0.81125542851E+02  0.24454282579E+03  0.25795938404E+03  0.10000000000E+00 0. -1.
         21    1    1    2  504  503  0.13742734811E+02 -0.34667485917E+02 -0.57450249234E+01  0.37731984460E+02  0.00000000000E+00 0. -1.
<mgrwt>
<rscale>  1 0.13046362E+03</rscale>
<asrwt>0</asrwt>
<pdfrwt beam="1">  1       21 0.56441955E-01 0.13046362E+03</pdfrwt>
<pdfrwt beam="2">  1       21 0.52101115E-02 0.13046362E+03</pdfrwt>
<totfact> 0.74455239E+05</totfact>
</mgrwt>
</event>
<event>
 6    1  0.4259848E-002  0.1274470E+03  0.7546771E-02  0.1231294E+00
         21   -1    0    0  504  502  0.00000000000E+00  0.00000000000E+00  0.27499795609E+03  0.27499795609E+03  0.00000000000E+00 0. -1.
         21   -1    0    0  502  503 -0.00000000000E+00 -0.00000000000E+00 -0.22706945345E+02  0.22706945345E+02  0.00000000000E+00 0. -1.
         25    2    1    2    0    0  0.15835717680E+02 -0.19162967098E+02  0.23528563655E+03  0.26758560506E+03  0.12499894402E+03 0.  0.
          5    1    3    3  501    0  0.55944530514E+02 -0.27180900437E+02  0.56000418488E+02  0.83693779421E+02  0.10000000000E+00 0.  1.
         -5    1    3    3    0  501 -0.40108812834E+02  0.80179333387E+01  0.17928521806E+03  0.18389182564E+03  0.10000000000E+00 0.  1.
         21    1    1    2  504  503 -0.15835717680E+02  0.19162967098E+02  0.17005374191E+02  0.30119296370E+02  0.00000000000E+00 0. -1.
<mgrwt>
<rscale>  1 0.12744695E+03</rscale>
<asrwt>0</asrwt>
<pdfrwt beam="1">  1       21 0.42307376E-01 0.12744695E+03</pdfrwt>
<pdfrwt beam="2">  1       21 0.34933764E-02 0.12744695E+03</pdfrwt>
<totfact> 0.26213802E+06</totfact>
</mgrwt>
</event>
<event>
 6    1  0.4259848E-002  0.1270018E+03  0.7546771E-02  0.1231974E+00
         21   -1    0    0  504  502  0.00000000000E+00  0.00000000000E+00  0.81803265943E+02  0.81803265943E+02  0.00000000000E+00 0.  1.
         21   -1    0    0  502  503 -0.00000000000E+00 -0.00000000000E+00 -0.13592393112E+03  0.13592393112E+03  0.00000000000E+00 0.  1.
         25    2    1    2    0    0 -0.20795488183E+02  0.84952419942E+01  0.30135255869E+02  0.13052810477E+03  0.12499932409E+03 0.  0.
          5    1    3    3  501    0 -0.64080528760E+02  0.34065658628E+02  0.13259330182E+01  0.72584787402E+02  0.10000000000E+00 0.  1.
         -5    1    3    3    0  501  0.43285040577E+02 -0.25570416634E+02  0.28809322851E+02  0.57943317369E+02  0.10000000000E+00 0.  1.
         21    1    1    2  504  503  0.20795488183E+02 -0.84952419942E+01 -0.84255921044E+02  0.87199092290E+02  0.00000000000E+00 0.  1.
<mgrwt>
<rscale>  1 0.12700178E+03</rscale>
<asrwt>0</asrwt>
<pdfrwt beam="1">  1       21 0.12585118E-01 0.12700178E+03</pdfrwt>
<pdfrwt beam="2">  1       21 0.20911374E-01 0.12700178E+03</pdfrwt>
<totfact> 0.11435494E+06</totfact>
</mgrwt>
</event>
<event>
 6    1  0.4259848E-002  0.1265203E+03  0.7546771E-02  0.1232712E+00
         21   -1    0    0  504  502  0.00000000000E+00  0.00000000000E+00  0.47928895309E+03  0.47928895309E+03  0.00000000000E+00 0.  1.
         21   -1    0    0  502  503 -0.00000000000E+00 -0.00000000000E+00 -0.15687190194E+02  0.15687190194E+02  0.00000000000E+00 0.  1.
         25    2    1    2    0    0 -0.15912337653E+02  0.11406629470E+02  0.45719186348E+03  0.47437516039E+03  0.12499631626E+03 0.  0.
          5    1    3    3  501    0 -0.84956390378E+01 -0.55488327772E+02  0.15708883093E+03  0.16681738880E+03  0.10000000000E+00 0.  1.
         -5    1    3    3    0  501 -0.74166986152E+01  0.66894957242E+02  0.30010303255E+03  0.30755777160E+03  0.10000000000E+00 0.  1.
         21    1    1    2  504  503  0.15912337653E+02 -0.11406629470E+02  0.64098994082E+01  0.20600982886E+02  0.00000000000E+00 0.  1.
<mgrwt>
<rscale>  1 0.12652033E+03</rscale>
<asrwt>0</asrwt>
<pdfrwt beam="1">  1       21 0.73736751E-01 0.12652033E+03</pdfrwt>
<pdfrwt beam="2">  1       21 0.24134142E-02 0.12652033E+03</pdfrwt>
<totfact> 0.14946992E+06</totfact>
</mgrwt>
</event>
<event>
 6    1  0.4259848E-002  0.1541331E+03  0.7546771E-02  0.1195484E+00
         21   -1    0    0  504  502  0.00000000000E+00  0.00000000000E+00  0.53759759466E+03  0.53759759466E+03  0.00000000000E+00 0.  1.
         21   -1    0    0  502  503 -0.00000000000E+00 -0.00000000000E+00 -0.28209953623E+02  0.28209953623E+02  0.00000000000E+00 0.  1.
         25    2    1    2    0    0  0.50407998473E+02 -0.74784328899E+02  0.28573832993E+03  0.32465888767E+03  0.12499335178E+03 0.  0.
          5    1    3    3  501    0 -0.20867922558E+02 -0.47911337871E+02  0.35735325148E+02  0.63308687808E+02  0.10000000000E+00 0. -1.
         -5    1    3    3    0  501  0.71275921031E+02 -0.26872991027E+02  0.25000300478E+03  0.26135019986E+03  0.10000000000E+00 0. -1.
         21    1    1    2  504  503 -0.50407998473E+02  0.74784328899E+02  0.22364931111E+03  0.24114866062E+03  0.00000000000E+00 0.  1.
<mgrwt>
<rscale>  1 0.15413306E+03</rscale>
<asrwt>0</asrwt>
<pdfrwt beam="1">  1       21 0.82707315E-01 0.15413306E+03</pdfrwt>
<pdfrwt beam="2">  1       21 0.43399933E-02 0.15413306E+03</pdfrwt>
<totfact> 0.43925548E+05</totfact>
</mgrwt>
</event>
<event>
 6    1  0.4259848E-002  0.1327351E+03  0.7546771E-02  0.1223453E+00
         21   -1    0    0  504  502  0.00000000000E+00  0.00000000000E+00  0.66683232070E+03  0.66683232070E+03  0.00000000000E+00 0.  1.
         21   -1    0    0  502  503 -0.00000000000E+00 -0.00000000000E+00 -0.17890713294E+02  0.17890713294E+02  0.00000000000E+00 0.  1.
         25    2    1    2    0    0  0.27805549446E+02 -0.34988750184E+02  0.61346898566E+03  0.62766457176E+03  0.12498502731E+03 0.  0.
          5    1    3    3  501    0  0.52371780041E+01  0.47126486142E+02  0.23430697782E+03  0.23905669533E+03  0.10000000000E+00 0. -1.
         -5    1    3    3    0  501  0.22568371442E+02 -0.82115236326E+02  0.37916200784E+03  0.38860787642E+03  0.10000000000E+00 0. -1.
         21    1    1    2  504  503 -0.27805549446E+02  0.34988750184E+02  0.35472621742E+02  0.57058462236E+02  0.00000000000E+00 0.  1.
<mgrwt>
<rscale>  1 0.13273514E+03</rscale>
<asrwt>0</asrwt>
<pdfrwt beam="1">  1       21 0.10258957E+00 0.13273514E+03</pdfrwt>
<pdfrwt beam="2">  1       21 0.27524179E-02 0.13273514E+03</pdfrwt>
<totfact> 0.56938508E+05</totfact>
</mgrwt>
</event>
<event>
 6    1  0.4259848E-002  0.1262227E+03  0.7546771E-02  0.1233171E+00
         21   -1    0    0  503  502  0.00000000000E+00  0.00000000000E+00  0.15341090402E+03  0.15341090402E+03  0.00000000000E+00 0.  1.
         21   -1    0    0  504  503 -0.00000000000E+00 -0.00000000000E+00 -0.34792331744E+02  0.34792331744E+02  0.00000000000E+00 0.  1.
         25    2    1    2    0    0  0.14746806447E+02  0.93776954768E+01  0.11410638829E+03  0.17015415609E+03  0.12500703785E+03 0.  0.
          5    1    3    3  501    0  0.57764740144E+02 -0.23911749121E+02  0.28452750825E+02  0.68688470499E+02  0.10000000000E+00 0.  1.
         -5    1    3    3    0  501 -0.43017933697E+02  0.33289444598E+02  0.85653637464E+02  0.10146568559E+03  0.10000000000E+00 0.  1.
         21    1    1    2  504  502 -0.14746806447E+02 -0.93776954768E+01  0.45121839877E+01  0.18049079677E+02  0.00000000000E+00 0. -1.
<mgrwt>
<rscale>  1 0.12622270E+03</rscale>
<asrwt>0</asrwt>
<pdfrwt beam="1">  1       21 0.23601677E-01 0.12622270E+03</pdfrwt>
<pdfrwt beam="2">  1       21 0.53526665E-02 0.12622270E+03</pdfrwt>
<totfact> 0.39951533E+06</totfact>
</mgrwt>
</event>
<event>
 6    1  0.4259848E-002  0.1925705E+03  0.7546771E-02  0.1156163E+00
         21   -1    0    0  504  502  0.00000000000E+00  0.00000000000E+00  0.50174917466E+02  0.50174917466E+02  0.00000000000E+00 0.  1.
         21   -1    0    0  502  503 -0.00000000000E+00 -0.00000000000E+00 -0.58668548614E+03  0.58668548614E+03  0.00000000000E+00 0. -1.
         25    2    1    2    0    0 -0.55878500288E+02  0.13540913671E+03 -0.35241282795E+03  0.40159455560E+03  0.12500137871E+03 0.  0.
          5    1    3    3  501    0 -0.36905734963E+00  0.90772333098E+02 -0.29924427712E+03  0.31270897021E+03  0.10000000000E+00 0.  1.
         -5    1    3    3    0  501 -0.55509442939E+02  0.44636803617E+02 -0.53168550831E+02  0.88885585389E+02  0.10000000000E+00 0.  1.
         21    1    1    2  504  503  0.55878500288E+02 -0.13540913671E+03 -0.18409774072E+03  0.23526584801E+03  0.00000000000E+00 0.  1.
<mgrwt>
<rscale>  1 0.19257047E+03</rscale>
<asrwt>0</asrwt>
<pdfrwt beam="1">  1       21 0.77192179E-02 0.19257047E+03</pdfrwt>
<pdfrwt beam="2">  1       21 0.90259308E-01 0.19257047E+03</pdfrwt>
<totfact> 0.13327409E+05</totfact>
</mgrwt>
</event>
<event>
 6    1  0.4259848E-002  0.1279755E+03  0.7546771E-02  0.1230491E+00
         21   -1    0    0  503  502  0.00000000000E+00  0.00000000000E+00  0.53971219233E+02  0.53971219233E+02  0.00000000000E+00 0. -1.
         21   -1    0    0  504  503 -0.00000000000E+00 -0.00000000000E+00 -0.27245338501E+03  0.27245338501E+03  0.00000000000E+00 0. -1.
         25    2    1    2    0    0  0.99450361199E+01 -0.25565165048E+02 -0.24234852846E+02  0.13024993720E+03  0.12500094656E+03 0.  0.
          5    1    3    3  501    0 -0.44059112586E+02  0.25288940359E+02 -0.23726627876E+02  0.56068696941E+02  0.10000000000E+00 0.  1.
         -5    1    3    3    0  501  0.54004148706E+02 -0.50854105407E+02 -0.50822496961E+00  0.74181240262E+02  0.10000000000E+00 0.  1.
         21    1    1    2  504  502 -0.99450361199E+01  0.25565165048E+02 -0.19424731293E+03  0.19617466704E+03  0.00000000000E+00 0. -1.
<mgrwt>
<rscale>  1 0.12797546E+03</rscale>
<asrwt>0</asrwt>
<pdfrwt beam="1">  1       21 0.83032647E-02 0.12797546E+03</pdfrwt>
<pdfrwt beam="2">  1       21 0.41915905E-01 0.12797546E+03</pdfrwt>
<totfact> 0.62010387E+05</totfact>
</mgrwt>
</event>
<event>
 6    1  0.4259848E-002  0.1306860E+03  0.7546771E-02  0.1226441E+00
         21   -1    0    0  504  502  0.00000000000E+00  0.00000000000E+00  0.19159531509E+03  0.19159531509E+03  0.00000000000E+00 0.  1.
         21   -1    0    0  502  503 -0.00000000000E+00 -0.00000000000E+00 -0.18803196878E+03  0.18803196878E+03  0.00000000000E+00 0.  1.
         25    2    1    2    0    0 -0.28718239776E+02 -0.25080356656E+02  0.16685571900E+03  0.21194257806E+03  0.12500025539E+03 0.  0.
          5    1    3    3  501    0  0.39172321579E+02  0.23122918283E+02  0.77064084111E+02  0.89487558843E+02  0.10000000000E+00 0. -1.
         -5    1    3    3    0  501 -0.67890561355E+02 -0.48203274939E+02  0.89791634885E+02  0.12245501922E+03  0.10000000000E+00 0. -1.
         21    1    1    2  504  503  0.28718239776E+02  0.25080356656E+02 -0.16329237269E+03  0.16768470581E+03  0.00000000000E+00 0.  1.
<mgrwt>
<rscale>  1 0.13068598E+03</rscale>
<asrwt>0</asrwt>
<pdfrwt beam="1">  1       21 0.29476202E-01 0.13068598E+03</pdfrwt>
<pdfrwt beam="2">  1       21 0.28927995E-01 0.13068598E+03</pdfrwt>
<totfact> 0.12885072E+05</totfact>
</mgrwt>
</event>
<event>
 6    1  0.4259848E-002  0.1338565E+03  0.7546771E-02  0.1221843E+00
         21   -1    0    0  504  502  0.00000000000E+00  0.00000000000E+00  0.12477301391E+02  0.12477301391E+02  0.00000000000E+00 0.  1.
         21   -1    0    0  502  503 -0.00000000000E+00 -0.00000000000E+00 -0.82266886557E+03  0.82266886557E+03  0.00000000000E+00 0. -1.
         25    2    1    2    0    0 -0.17658912196E+02 -0.44505573038E+02 -0.72647767081E+03  0.73870655293E+03  0.12499992779E+03 0.  0.
          5    1    3    3  501    0  0.48724375980E+02 -0.38533402930E+02 -0.45218829059E+03  0.45643526168E+03  0.10000000000E+00 0. -1.
         -5    1    3    3    0  501 -0.66383288176E+02 -0.59721701079E+01 -0.27428938021E+03  0.28227129125E+03  0.10000000000E+00 0. -1.
         21    1    1    2  504  503  0.17658912196E+02  0.44505573038E+02 -0.83713893376E+02  0.96439614036E+02  0.00000000000E+00 0.  1.
<mgrwt>
<rscale>  1 0.13385651E+03</rscale>
<asrwt>0</asrwt>
<pdfrwt beam="1">  1       21 0.19195850E-02 0.13385651E+03</pdfrwt>
<pdfrwt beam="2">  1       21 0.12656443E+00 0.13385651E+03</pdfrwt>
<totfact> 0.61562860E+05</totfact>
</mgrwt>
</event>
<event>
 6    1  0.4259848E-002  0.1280120E+03  0.7546771E-02  0.1230436E+00
         21   -1    0    0  503  502  0.00000000000E+00  0.00000000000E+00  0.64054056238E+02  0.64054056238E+02  0.00000000000E+00 0. -1.
         21   -1    0    0  504  503 -0.00000000000E+00 -0.00000000000E+00 -0.10225714229E+03  0.10225714229E+03  0.00000000000E+00 0. -1.
         25    2    1    2    0    0  0.19301902834E+01  0.27450634227E+02 -0.12439968281E+02  0.12861502908E+03  0.12501923828E+03 0.  0.
          5    1    3    3  501    0 -0.28958762502E+02 -0.42122738623E+02 -0.11931997526E+02  0.52491119246E+02  0.10000000000E+00 0. -1.
         -5    1    3    3    0  501  0.30888952785E+02  0.69573372849E+02 -0.50797075571E+00  0.76123909832E+02  0.10000000000E+00 0. -1.
         21    1    1    2  504  502 -0.19301902834E+01 -0.27450634227E+02 -0.25763117768E+02  0.37696169448E+02  0.00000000000E+00 0. -1.
<mgrwt>
<rscale>  1 0.12801200E+03</rscale>
<asrwt>0</asrwt>
<pdfrwt beam="1">  1       21 0.98544703E-02 0.12801200E+03</pdfrwt>
<pdfrwt beam="2">  1       21 0.15731868E-01 0.12801200E+03</pdfrwt>
<totfact> 0.29642160E+06</totfact>
</mgrwt>
</event>
<event>
 6    1  0.4259848E-002  0.1277749E+03  0.7546771E-02  0.1230795E+00
         21   -1    0    0  504  502  0.00000000000E+00  0.00000000000E+00  0.18190734640E+03  0.18190734640E+03  0.00000000000E+00 0. -1.
         21   -1    0    0  502  503 -0.00000000000E+00 -0.00000000000E+00 -0.78150763830E+02  0.78150763830E+02  0.00000000000E+00 0. -1.
         25    2    1    2    0    0  0.13693956789E+02 -0.22657216449E+02  0.15590424635E+03  0.20157518325E+03  0.12500218623E+03 0.  0.
          5    1    3    3  501    0  0.18341829965E+02 -0.17945592166E+02  0.17731626487E+03  0.17916343040E+03  0.10000000000E+00 0. -1.
         -5    1    3    3    0  501 -0.46478731757E+01 -0.47116242826E+01 -0.21412018522E+02  0.22411752846E+02  0.10000000000E+00 0. -1.
         21    1    1    2  504  503 -0.13693956789E+02  0.22657216449E+02 -0.52147663786E+02  0.58482926979E+02  0.00000000000E+00 0. -1.
<mgrwt>
<rscale>  1 0.12777488E+03</rscale>
<asrwt>0</asrwt>
<pdfrwt beam="1">  1       21 0.27985745E-01 0.12777488E+03</pdfrwt>
<pdfrwt beam="2">  1       21 0.12023195E-01 0.12777488E+03</pdfrwt>
<totfact> 0.71635656E+05</totfact>
</mgrwt>
</event>
<event>
 6    1  0.4259848E-002  0.1316296E+03  0.7546771E-02  0.1225058E+00
         21   -1    0    0  503  502  0.00000000000E+00  0.00000000000E+00  0.26358474060E+03  0.26358474060E+03  0.00000000000E+00 0.  1.
         21   -1    0    0  504  503 -0.00000000000E+00 -0.00000000000E+00 -0.78044419653E+02  0.78044419653E+02  0.00000000000E+00 0.  1.
         25    2    1    2    0    0 -0.14078181174E+02 -0.38768946185E+02  0.23975275541E+03  0.27351004087E+03  0.12500052943E+03 0.  0.
          5    1    3    3  501    0 -0.40213813230E+02  0.17925210294E+02  0.26682171332E+02  0.51482154243E+02  0.10000000000E+00 0. -1.
         -5    1    3    3    0  501  0.26135632056E+02 -0.56694156478E+02  0.21307058408E+03  0.22202788663E+03  0.10000000000E+00 0. -1.
         21    1    1    2  504  502  0.14078181174E+02  0.38768946185E+02 -0.54212434469E+02  0.68119119375E+02  0.00000000000E+00 0.  1.
<mgrwt>
<rscale>  1 0.13162963E+03</rscale>
<asrwt>0</asrwt>
<pdfrwt beam="1">  1       21 0.40551498E-01 0.13162963E+03</pdfrwt>
<pdfrwt beam="2">  1       21 0.12006834E-01 0.13162963E+03</pdfrwt>
<totfact> 0.34748010E+05</totfact>
</mgrwt>
</event>
<event>
 6    1  0.4259848E-002  0.1269470E+03  0.7546771E-02  0.1232057E+00
         21   -1    0    0  503  502  0.00000000000E+00  0.00000000000E+00  0.64789056015E+01  0.64789056015E+01  0.00000000000E+00 0. -1.
         21   -1    0    0  504  503 -0.00000000000E+00 -0.00000000000E+00 -0.97094638165E+03  0.97094638165E+03  0.00000000000E+00 0. -1.
         25    2    1    2    0    0 -0.18527538597E+02  0.12119322861E+02 -0.65638114147E+03  0.66854450567E+03  0.12500162206E+03 0.  0.
          5    1    3    3  501    0  0.20655274308E+02 -0.18673949698E+02 -0.55379211078E+03  0.55449172106E+03  0.10000000000E+00 0. -1.
         -5    1    3    3    0  501 -0.39182812905E+02  0.30793272559E+02 -0.10258903068E+03  0.11405278462E+03  0.10000000000E+00 0. -1.
         21    1    1    2  504  502  0.18527538597E+02 -0.12119322861E+02 -0.30808633459E+03  0.30888078158E+03  0.00000000000E+00 0. -1.
<mgrwt>
<rscale>  1 0.12694705E+03</rscale>
<asrwt>0</asrwt>
<pdfrwt beam="1">  1       21 0.99675448E-03 0.12694705E+03</pdfrwt>
<pdfrwt beam="2">  1       21 0.14937640E+00 0.12694705E+03</pdfrwt>
<totfact> 0.11513165E+06</totfact>
</mgrwt>
</event>
<event>
 6    1  0.4259848E-002  0.1261024E+03  0.7546771E-02  0.1233356E+00
         21   -1    0    0  503  502  0.00000000000E+00  0.00000000000E+00  0.35913974432E+02  0.35913974432E+02  0.00000000000E+00 0.  1.
         21   -1    0    0  504  503 -0.00000000000E+00 -0.00000000000E+00 -0.20265232808E+03  0.20265232808E+03  0.00000000000E+00 0.  1.
         25    2    1    2    0    0 -0.55902156196E+00  0.16623808102E+02 -0.77986043254E+02  0.14826881583E+03  0.12500062121E+03 0.  0.
          5    1    3    3  501    0 -0.48077626403E+02 -0.30517381786E+02 -0.22146982439E+02  0.61100471215E+02  0.10000000000E+00 0. -1.
         -5    1    3    3    0  501  0.47518604841E+02  0.47141189887E+02 -0.55839060815E+02  0.87168344614E+02  0.10000000000E+00 0. -1.
         21    1    1    2  504  502  0.55902156196E+00 -0.16623808102E+02 -0.88752310391E+02  0.90297486680E+02  0.00000000000E+00 0. -1.
<mgrwt>
<rscale>  1 0.12610241E+03</rscale>
<asrwt>0</asrwt>
<pdfrwt beam="1">  1       21 0.55252267E-02 0.12610241E+03</pdfrwt>
<pdfrwt beam="2">  1       21 0.31177282E-01 0.12610241E+03</pdfrwt>
<totfact> 0.22276991E+06</totfact>
</mgrwt>
</event>
<event>
 6    1  0.4259848E-002  0.1625058E+03  0.7546771E-02  0.1185896E+00
         21   -1    0    0  503  502  0.00000000000E+00  0.00000000000E+00  0.49516448877E+03  0.49516448877E+03  0.00000000000E+00 0.  1.
         21   -1    0    0  504  503 -0.00000000000E+00 -0.00000000000E+00 -0.38292730442E+02  0.38292730442E+02  0.00000000000E+00 0.  1.
         25    2    1    2    0    0  0.10104330647E+03 -0.23965804741E+02  0.34174218709E+03  0.37841229749E+03  0.12499613944E+03 0.  0.
          5    1    3    3  501    0  0.60052091831E+02  0.42723274753E+02  0.23333138138E+03  0.24469384029E+03  0.10000000000E+00 0.  1.
         -5    1    3    3    0  501  0.40991214637E+02 -0.66689079494E+02  0.10841080571E+03  0.13371845720E+03  0.10000000000E+00 0.  1.
         21    1    1    2  504  502 -0.10104330647E+03  0.23965804741E+02  0.11512957124E+03  0.15504492173E+03  0.00000000000E+00 0.  1.
<mgrwt>
<rscale>  1 0.16250583E+03</rscale>
<asrwt>0</asrwt>
<pdfrwt beam="1">  1       21 0.76179148E-01 0.16250583E+03</pdfrwt>
<pdfrwt beam="2">  1       21 0.58911896E-02 0.16250583E+03</pdfrwt>
<totfact> 0.31479459E+05</totfact>
</mgrwt>
</event>
<event>
 6    1  0.4259848E-002  0.1366355E+03  0.7546771E-02  0.1217929E+00
         21   -1    0    0  504  502  0.00000000000E+00  0.00000000000E+00  0.36854744495E+03  0.36854744495E+03  0.00000000000E+00 0. -1.
         21   -1    0    0  502  503 -0.00000000000E+00 -0.00000000000E+00 -0.10237212936E+03  0.10237212936E+03  0.00000000000E+00 0. -1.
         25    2    1    2    0    0 -0.33756217758E+02  0.43645575679E+02  0.34707127368E+03  0.37299830722E+03  0.12499939863E+03 0.  0.
          5    1    3    3  501    0 -0.68781990484E+01 -0.43022484782E+02  0.14680637593E+03  0.15313512279E+03  0.10000000000E+00 0. -1.
         -5    1    3    3    0  501 -0.26878018710E+02  0.86668060462E+02  0.20026489775E+03  0.21986318442E+03  0.10000000000E+00 0. -1.
         21    1    1    2  504  503  0.33756217758E+02 -0.43645575679E+02 -0.80895958095E+02  0.97921267097E+02  0.00000000000E+00 0. -1.
<mgrwt>
<rscale>  1 0.13663553E+03</rscale>
<asrwt>0</asrwt>
<pdfrwt beam="1">  1       21 0.56699606E-01 0.13663553E+03</pdfrwt>
<pdfrwt beam="2">  1       21 0.15749558E-01 0.13663553E+03</pdfrwt>
<totfact> 0.10719859E+05</totfact>
</mgrwt>
</event>
<event>
 6    1  0.4259848E-002  0.1292017E+03  0.7546771E-02  0.1228645E+00
         21   -1    0    0  504  502  0.00000000000E+00  0.00000000000E+00  0.44010519574E+02  0.44010519574E+02  0.00000000000E+00 0.  1.
         21   -1    0    0  502  503 -0.00000000000E+00 -0.00000000000E+00 -0.16569369125E+03  0.16569369125E+03  0.00000000000E+00 0.  1.
         25    2    1    2    0    0  0.27954354719E+02 -0.16733192563E+02 -0.65738219782E+02  0.14496408939E+03  0.12502650915E+03 0.  0.
          5    1    3    3  501    0  0.25627107839E+02 -0.57340158898E+02  0.53798810242E+01  0.63036462452E+02  0.10000000000E+00 0.  1.
         -5    1    3    3    0  501  0.23272468800E+01  0.40606966335E+02 -0.71118100806E+02  0.81927626936E+02  0.10000000000E+00 0.  1.
         21    1    1    2  504  503 -0.27954354719E+02  0.16733192563E+02 -0.55944951892E+02  0.64740121435E+02  0.00000000000E+00 0. -1.
<mgrwt>
<rscale>  1 0.12920168E+03</rscale>
<asrwt>0</asrwt>
<pdfrwt beam="1">  1       21 0.67708492E-02 0.12920168E+03</pdfrwt>
<pdfrwt beam="2">  1       21 0.25491337E-01 0.12920168E+03</pdfrwt>
<totfact> 0.23214961E+06</totfact>
</mgrwt>
</event>
<event>
 6    1  0.4259848E-002  0.1286280E+03  0.7546771E-02  0.1229506E+00
         21   -1    0    0  503  502  0.00000000000E+00  0.00000000000E+00  0.15700050248E+02  0.15700050248E+02  0.00000000000E+00 0. -1.
         21   -1    0    0  504  503 -0.00000000000E+00 -0.00000000000E+00 -0.50381687620E+03  0.50381687620E+03  0.00000000000E+00 0. -1.
         25    2    1    2    0    0 -0.17620881039E+01  0.30254256768E+02 -0.26739359641E+03  0.29672292055E+03  0.12500692448E+03 0.  0.
          5    1    3    3  501    0  0.29702387308E+02 -0.40769835113E+02 -0.92671367845E+02  0.10551020654E+03  0.10000000000E+00 0.  1.
         -5    1    3    3    0  501 -0.31464475412E+02  0.71024091881E+02 -0.17472222857E+03  0.19121271400E+03  0.10000000000E+00 0.  1.
         21    1    1    2  504  502  0.17620881039E+01 -0.30254256768E+02 -0.22072322953E+03  0.22279400590E+03  0.00000000000E+00 0. -1.
<mgrwt>
<rscale>  1 0.12862798E+03</rscale>
<asrwt>0</asrwt>
<pdfrwt beam="1">  1       21 0.24153923E-02 0.12862798E+03</pdfrwt>
<pdfrwt beam="2">  1       21 0.77510290E-01 0.12862798E+03</pdfrwt>
<totfact> 0.13370644E+06</totfact>
</mgrwt>
</event>
<event>
 6    1  0.4259848E-002  0.1296730E+03  0.7546771E-02  0.1227942E+00
         21   -1    0    0  504  502  0.00000000000E+00  0.00000000000E+00  0.86905005911E+03  0.86905005911E+03  0.00000000000E+00 0.  1.
         21   -1    0    0  502  503 -0.00000000000E+00 -0.00000000000E+00 -0.20161640022E+02  0.20161640022E+02  0.00000000000E+00 0.  1.
         25    2    1    2    0    0 -0.15199913857E+02  0.30956174012E+02  0.84455724762E+03  0.85445423753E+03  0.12500310967E+03 0.  0.
          5    1    3    3  501    0  0.43764655162E+02  0.31308631020E+02  0.19697256409E+03  0.20419053950E+03  0.10000000000E+00 0.  1.
         -5    1    3    3    0  501 -0.58964569019E+02 -0.35245700850E+00  0.64758468353E+03  0.65026369803E+03  0.10000000000E+00 0.  1.
         21    1    1    2  504  503  0.15199913857E+02 -0.30956174012E+02  0.43311714626E+01  0.34757461601E+02  0.00000000000E+00 0.  1.
<mgrwt>
<rscale>  1 0.12967305E+03</rscale>
<asrwt>0</asrwt>
<pdfrwt beam="1">  1       21 0.13369998E+00 0.12967305E+03</pdfrwt>
<pdfrwt beam="2">  1       21 0.31017915E-02 0.12967305E+03</pdfrwt>
<totfact> 0.24626419E+05</totfact>
</mgrwt>
</event>
<event>
 6    1  0.4259848E-002  0.1534719E+03  0.7546771E-02  0.1196271E+00
         21   -1    0    0  503  502  0.00000000000E+00  0.00000000000E+00  0.17836179377E+03  0.17836179377E+03  0.00000000000E+00 0. -1.
         21   -1    0    0  504  503 -0.00000000000E+00 -0.00000000000E+00 -0.20011398719E+03  0.20011398719E+03  0.00000000000E+00 0. -1.
         25    2    1    2    0    0  0.88862572458E+02  0.65024043392E+01  0.13090614912E+03  0.20171773278E+03  0.12495913650E+03 0.  0.
          5    1    3    3  501    0  0.31181931404E+02 -0.36881654896E+02 -0.42645596092E+01  0.48484696375E+02  0.10000000000E+00 0. -1.
         -5    1    3    3    0  501  0.57680641054E+02  0.43384059235E+02  0.13517070873E+03  0.15323303641E+03  0.10000000000E+00 0. -1.
         21    1    1    2  504  502 -0.88862572458E+02 -0.65024043392E+01 -0.15265834255E+03  0.17675804817E+03  0.00000000000E+00 0. -1.
<mgrwt>
<rscale>  1 0.15347190E+03</rscale>
<asrwt>0</asrwt>
<pdfrwt beam="1">  1       21 0.27440276E-01 0.15347190E+03</pdfrwt>
<pdfrwt beam="2">  1       21 0.30786767E-01 0.15347190E+03</pdfrwt>
<totfact> 0.13010271E+05</totfact>
</mgrwt>
</event>
<event>
 6    1  0.4259848E-002  0.1311759E+03  0.7546771E-02  0.1225721E+00
         21   -1    0    0  504  502  0.00000000000E+00  0.00000000000E+00  0.11971863964E+02  0.11971863964E+02  0.00000000000E+00 0.  1.
         21   -1    0    0  502  503 -0.00000000000E+00 -0.00000000000E+00 -0.64541047817E+03  0.64541047817E+03  0.00000000000E+00 0.  1.
         25    2    1    2    0    0  0.39693863407E+02 -0.23504073072E+01 -0.41125490758E+03  0.43166852621E+03  0.12500396117E+03 0.  0.
          5    1    3    3  501    0  0.29102832666E+02  0.30110927867E+02 -0.37064507581E+02  0.55923434876E+02  0.10000000000E+00 0.  1.
         -5    1    3    3    0  501  0.10591030742E+02 -0.32461335174E+02 -0.37419040000E+03  0.37574509133E+03  0.10000000000E+00 0.  1.
         21    1    1    2  504  503 -0.39693863407E+02  0.23504073072E+01 -0.22218370663E+03  0.22571381592E+03  0.00000000000E+00 0.  1.
<mgrwt>
<rscale>  1 0.13117590E+03</rscale>
<asrwt>0</asrwt>
<pdfrwt beam="1">  1       21 0.18418249E-02 0.13117590E+03</pdfrwt>
<pdfrwt beam="2">  1       21 0.99293935E-01 0.13117590E+03</pdfrwt>
<totfact> 0.11796762E+06</totfact>
</mgrwt>
</event>
<event>
 6    1  0.4259848E-002  0.1266461E+03  0.7546771E-02  0.1232519E+00
         21   -1    0    0  504  502  0.00000000000E+00  0.00000000000E+00  0.54786736712E+03  0.54786736712E+03  0.00000000000E+00 0.  1.
         21   -1    0    0  502  503 -0.00000000000E+00 -0.00000000000E+00 -0.44996222581E+02  0.44996222581E+02  0.00000000000E+00 0.  1.
         25    2    1    2    0    0  0.19493191318E+02 -0.58680675782E+01  0.53775897840E+03  0.55247077256E+03  0.12499926784E+03 0.  0.
          5    1    3    3  501    0 -0.10913773504E+01  0.49027526866E+02  0.10654055592E+03  0.11728507813E+03  0.10000000000E+00 0. -1.
         -5    1    3    3    0  501  0.20584568668E+02 -0.54895594444E+02  0.43121842248E+03  0.43518569444E+03  0.10000000000E+00 0. -1.
         21    1    1    2  504  503 -0.19493191318E+02  0.58680675782E+01 -0.34887833861E+02  0.40392817139E+02  0.00000000000E+00 0.  1.
<mgrwt>
<rscale>  1 0.12664610E+03</rscale>
<asrwt>0</asrwt>
<pdfrwt beam="1">  1       21 0.84287283E-01 0.12664610E+03</pdfrwt>
<pdfrwt beam="2">  1       21 0.69224962E-02 0.12664610E+03</pdfrwt>
<totfact> 0.19225444E+05</totfact>
</mgrwt>
</event>
<event>
 6    1  0.4259848E-002  0.1269291E+03  0.7546771E-02  0.1232085E+00
         21   -1    0    0  503  502  0.00000000000E+00  0.00000000000E+00  0.30198554050E+03  0.30198554050E+03  0.00000000000E+00 0. -1.
         21   -1    0    0  504  503 -0.00000000000E+00 -0.00000000000E+00 -0.48713845689E+02  0.48713845689E+02  0.00000000000E+00 0. -1.
         25    2    1    2    0    0 -0.95668057644E+01  0.19846817342E+02  0.28504866810E+03  0.31203162232E+03  0.12500228082E+03 0.  0.
          5    1    3    3  501    0 -0.23654093658E+02 -0.49293543591E+02  0.99728459342E+02  0.11373277975E+03  0.10000000000E+00 0. -1.
         -5    1    3    3    0  501  0.14087287893E+02  0.69140360933E+02  0.18532020876E+03  0.19829884257E+03  0.10000000000E+00 0. -1.
         21    1    1    2  504  502  0.95668057644E+01 -0.19846817342E+02 -0.31776973291E+02  0.38667763870E+02  0.00000000000E+00 0. -1.
<mgrwt>
<rscale>  1 0.12692908E+03</rscale>
<asrwt>0</asrwt>
<pdfrwt beam="1">  1       21 0.46459313E-01 0.12692908E+03</pdfrwt>
<pdfrwt beam="2">  1       21 0.74944380E-02 0.12692908E+03</pdfrwt>
<totfact> 0.60060492E+05</totfact>
</mgrwt>
</event>
<event>
 6    1  0.4259848E-002  0.1297296E+03  0.7546771E-02  0.1227858E+00
         21   -1    0    0  504  502  0.00000000000E+00  0.00000000000E+00  0.15049801616E+03  0.15049801616E+03  0.00000000000E+00 0.  1.
         21   -1    0    0  502  503 -0.00000000000E+00 -0.00000000000E+00 -0.60101965573E+02  0.60101965573E+02  0.00000000000E+00 0.  1.
         25    2    1    2    0    0 -0.16212359701E+00  0.34728975275E+02  0.11055232334E+03  0.17044523931E+03  0.12499454148E+03 0.  0.
          5    1    3    3  501    0  0.44524796002E+02  0.55376252968E+01  0.10806656645E+03  0.11701074966E+03  0.10000000000E+00 0.  1.
         -5    1    3    3    0  501 -0.44686919599E+02  0.29191349978E+02  0.24857568965E+01  0.53434489650E+02  0.10000000000E+00 0.  1.
         21    1    1    2  504  503  0.16212359701E+00 -0.34728975275E+02 -0.20156272754E+02  0.40154742423E+02  0.00000000000E+00 0.  1.
<mgrwt>
<rscale>  1 0.12972958E+03</rscale>
<asrwt>0</asrwt>
<pdfrwt beam="1">  1       21 0.23153541E-01 0.12972958E+03</pdfrwt>
<pdfrwt beam="2">  1       21 0.92464563E-02 0.12972958E+03</pdfrwt>
<totfact> 0.16267060E+06</totfact>
</mgrwt>
</event>
<event>
 6    1  0.4259848E-002  0.1270976E+03  0.7546771E-02  0.1231827E+00
         21   -1    0    0  503  502  0.00000000000E+00  0.00000000000E+00  0.47630689474E+03  0.47630689474E+03  0.00000000000E+00 0. -1.
         21   -1    0    0  504  503 -0.00000000000E+00 -0.00000000000E+00 -0.11826180489E+02  0.11826180489E+02  0.00000000000E+00 0. -1.
         25    2    1    2    0    0  0.14070212257E+02  0.18202709215E+02  0.39271043014E+03  0.41276542185E+03  0.12499800811E+03 0.  0.
          5    1    3    3  501    0 -0.34667627542E+02 -0.33431884157E+02  0.23386897488E+03  0.23877655390E+03  0.10000000000E+00 0. -1.
         -5    1    3    3    0  501  0.48737839799E+02  0.51634593373E+02  0.15884145526E+03  0.17398886795E+03  0.10000000000E+00 0. -1.
         21    1    1    2  504  502 -0.14070212257E+02 -0.18202709215E+02  0.71770284106E+02  0.75367653383E+02  0.00000000000E+00 0.  1.
<mgrwt>
<rscale>  1 0.12709765E+03</rscale>
<asrwt>0</asrwt>
<pdfrwt beam="1">  1       21 0.73277969E-01 0.12709765E+03</pdfrwt>
<pdfrwt beam="2">  1       21 0.18194127E-02 0.12709765E+03</pdfrwt>
<totfact> 0.23922966E+06</totfact>
</mgrwt>
</event>
<event>
 6    1  0.4259848E-002  0.1290271E+03  0.7546771E-02  0.1228906E+00
         21   -1    0    0  503  502  0.00000000000E+00  0.00000000000E+00  0.75145360023E+02  0.75145360023E+02  0.00000000000E+00 0. -1.
         21   -1    0    0  504  503 -0.00000000000E+00 -0.00000000000E+00 -0.94911766064E+02  0.94911766064E+02  0.00000000000E+00 0. -1.
         25    2    1    2    0    0 -0.41551809594E+01 -0.31715873269E+02  0.57265834193E+01  0.12915413527E+03  0.12499933901E+03 0.  0.
          5    1    3    3  501    0  0.16153890605E+02 -0.77333663341E+02  0.11612578391E+01  0.79011405425E+02  0.10000000000E+00 0. -1.
         -5    1    3    3    0  501 -0.20309071564E+02  0.45617790072E+02  0.45653255802E+01  0.50142729847E+02  0.10000000000E+00 0. -1.
         21    1    1    2  504  502  0.41551809594E+01  0.31715873269E+02 -0.25492989460E+02  0.40902990816E+02  0.00000000000E+00 0. -1.
<mgrwt>
<rscale>  1 0.12902712E+03</rscale>
<asrwt>0</asrwt>
<pdfrwt beam="1">  1       21 0.11560825E-01 0.12902712E+03</pdfrwt>
<pdfrwt beam="2">  1       21 0.14601810E-01 0.12902712E+03</pdfrwt>
<totfact> 0.25620531E+06</totfact>
</mgrwt>
</event>
<event>
 6    1  0.4259848E-002  0.1428937E+03  0.7546771E-02  0.1209487E+00
         21   -1    0    0  504  502  0.00000000000E+00  0.00000000000E+00  0.17249589030E+03  0.17249589030E+03  0.00000000000E+00 0.  1.
         21   -1    0    0  502  503 -0.00000000000E+00 -0.00000000000E+00 -0.97787654005E+02  0.97787654005E+02  0.00000000000E+00 0.  1.
         25    2    1    2    0    0 -0.92245763734E+01 -0.68621610411E+02  0.12079439691E+03  0.18710931496E+03  0.12499836478E+03 0.  0.
          5    1    3    3  501    0 -0.63121413491E+02 -0.33742694316E+02  0.92485931476E+02  0.11694673908E+03  0.10000000000E+00 0.  1.
         -5    1    3    3    0  501  0.53896837118E+02 -0.34878916094E+02  0.28308465436E+02  0.70162575883E+02  0.10000000000E+00 0.  1.
         21    1    1    2  504  503  0.92245763734E+01  0.68621610411E+02 -0.46086160622E+02  0.83174229335E+02  0.00000000000E+00 0.  1.
<mgrwt>
<rscale>  1 0.14289370E+03</rscale>
<asrwt>0</asrwt>
<pdfrwt beam="1">  1       21 0.26537829E-01 0.14289370E+03</pdfrwt>
<pdfrwt beam="2">  1       21 0.15044254E-01 0.14289370E+03</pdfrwt>
<totfact> 0.53054721E+05</totfact>
</mgrwt>
</event>
<event>
 6    1  0.4259848E-002  0.1461925E+03  0.7546771E-02  0.1205231E+00
         21   -1    0    0  504  502  0.00000000000E+00  0.00000000000E+00  0.65122644484E+02  0.65122644484E+02  0.00000000000E+00 0. -1.
         21   -1    0    0  502  503 -0.00000000000E+00 -0.00000000000E+00 -0.19016916102E+03  0.19016916102E+03  0.00000000000E+00 0. -1.
         25    2    1    2    0    0 -0.17921519989E+02  0.73654746791E+02 -0.73558533940E+02  0.16365548653E+03  0.12500423093E+03 0.  0.
          5    1    3    3  501    0  0.45921253594E+02  0.61101418047E+02 -0.19042665014E+02  0.78770412655E+02  0.10000000000E+00 0. -1.
         -5    1    3    3    0  501 -0.63842773583E+02  0.12553328744E+02 -0.54515868926E+02  0.84885073871E+02  0.10000000000E+00 0. -1.
         21    1    1    2  504  503  0.17921519989E+02 -0.73654746791E+02 -0.51487982592E+02  0.91636318974E+02  0.00000000000E+00 0. -1.
<mgrwt>
<rscale>  1 0.14619255E+03</rscale>
<asrwt>0</asrwt>
<pdfrwt beam="1">  1       21 0.10018868E-01 0.14619255E+03</pdfrwt>
<pdfrwt beam="2">  1       21 0.29256794E-01 0.14619255E+03</pdfrwt>
<totfact> 0.90729239E+05</totfact>
</mgrwt>
</event>
<event>
 6    1  0.4259848E-002  0.1329449E+03  0.7546771E-02  0.1223150E+00
         21   -1    0    0  503  502  0.00000000000E+00  0.00000000000E+00  0.41442935125E+03  0.41442935125E+03  0.00000000000E+00 0. -1.
         21   -1    0    0  504  503 -0.00000000000E+00 -0.00000000000E+00 -0.20063253404E+02  0.20063253404E+02  0.00000000000E+00 0. -1.
         25    2    1    2    0    0 -0.38396057113E+02 -0.23983560353E+02  0.24938603464E+03  0.28260880994E+03  0.12499950726E+03 0.  0.
          5    1    3    3  501    0 -0.25259870105E+01 -0.65320621899E+02  0.19410982630E+03  0.20482138297E+03  0.10000000000E+00 0.  1.
         -5    1    3    3    0  501 -0.35870070103E+02  0.41337061545E+02  0.55276208337E+02  0.77787426969E+02  0.10000000000E+00 0.  1.
         21    1    1    2  504  502  0.38396057113E+02  0.23983560353E+02  0.14498006321E+03  0.15188379471E+03  0.00000000000E+00 0. -1.
<mgrwt>
<rscale>  1 0.13294490E+03</rscale>
<asrwt>0</asrwt>
<pdfrwt beam="1">  1       21 0.63758355E-01 0.13294490E+03</pdfrwt>
<pdfrwt beam="2">  1       21 0.30866547E-02 0.13294490E+03</pdfrwt>
<totfact> 0.13723514E+06</totfact>
</mgrwt>
</event>
<event>
 6    1  0.4259848E-002  0.1261434E+03  0.7546771E-02  0.1233293E+00
         21   -1    0    0  503  502  0.00000000000E+00  0.00000000000E+00  0.16223866280E+03  0.16223866280E+03  0.00000000000E+00 0. -1.
         21   -1    0    0  504  503 -0.00000000000E+00 -0.00000000000E+00 -0.31578438357E+02  0.31578438357E+02  0.00000000000E+00 0. -1.
         25    2    1    2    0    0  0.21137241638E+01  0.16831343623E+02  0.11353900763E+03  0.16971527502E+03  0.12499762543E+03 0.  0.
          5    1    3    3  501    0  0.20408961444E+02 -0.67236595393E+01 -0.22106647453E+02  0.30829323159E+02  0.10000000000E+00 0.  1.
         -5    1    3    3    0  501 -0.18295237280E+02  0.23555003163E+02  0.13564565508E+03  0.13888595186E+03  0.10000000000E+00 0.  1.
         21    1    1    2  504  502 -0.21137241638E+01 -0.16831343623E+02  0.17121216810E+02  0.24101826135E+02  0.00000000000E+00 0. -1.
<mgrwt>
<rscale>  1 0.12614344E+03</rscale>
<asrwt>0</asrwt>
<pdfrwt beam="1">  1       21 0.24959794E-01 0.12614344E+03</pdfrwt>
<pdfrwt beam="2">  1       21 0.48582214E-02 0.12614344E+03</pdfrwt>
<totfact> 0.42315447E+06</totfact>
</mgrwt>
</event>
<event>
 6    1  0.4259848E-002  0.1279399E+03  0.7546771E-02  0.1230545E+00
         21   -1    0    0  503  502  0.00000000000E+00  0.00000000000E+00  0.80484943066E+02  0.80484943066E+02  0.00000000000E+00 0. -1.
         21   -1    0    0  504  503 -0.00000000000E+00 -0.00000000000E+00 -0.10458230875E+03  0.10458230875E+03  0.00000000000E+00 0. -1.
         25    2    1    2    0    0 -0.80676992403E+01  0.26062513972E+02  0.23619046499E+02  0.13010182271E+03  0.12499713000E+03 0.  0.
          5    1    3    3  501    0  0.30696530747E+02  0.21740521666E+02  0.63825142382E+02  0.74084992288E+02  0.10000000000E+00 0. -1.
         -5    1    3    3    0  501 -0.38764229987E+02  0.43219923067E+01 -0.40206095884E+02  0.56016830419E+02  0.10000000000E+00 0. -1.
         21    1    1    2  504  502  0.80676992403E+01 -0.26062513972E+02 -0.47716412179E+02  0.54965429107E+02  0.00000000000E+00 0. -1.
<mgrwt>
<rscale>  1 0.12793993E+03</rscale>
<asrwt>0</asrwt>
<pdfrwt beam="1">  1       21 0.12382299E-01 0.12793993E+03</pdfrwt>
<pdfrwt beam="2">  1       21 0.16089586E-01 0.12793993E+03</pdfrwt>
<totfact> 0.19036506E+06</totfact>
</mgrwt>
</event>
<event>
 6    1  0.4259848E-002  0.1295713E+03  0.7546771E-02  0.1228093E+00
         21   -1    0    0  504  502  0.00000000000E+00  0.00000000000E+00  0.39141280581E+02  0.39141280581E+02  0.00000000000E+00 0.  1.
         21   -1    0    0  502  503 -0.00000000000E+00 -0.00000000000E+00 -0.19014845731E+03  0.19014845731E+03  0.00000000000E+00 0. -1.
         25    2    1    2    0    0 -0.22934723622E+02 -0.25300426981E+02 -0.84973982237E+02  0.15494933214E+03  0.12499041851E+03 0.  0.
          5    1    3    3  501    0  0.15519371993E+02  0.33669888386E+02 -0.75240986576E+02  0.83879248637E+02  0.10000000000E+00 0.  1.
         -5    1    3    3    0  501 -0.38454095615E+02 -0.58970315367E+02 -0.97329956607E+01  0.71070083499E+02  0.10000000000E+00 0.  1.
         21    1    1    2  504  503  0.22934723622E+02  0.25300426981E+02 -0.66033194494E+02  0.74340405757E+02  0.00000000000E+00 0. -1.
<mgrwt>
<rscale>  1 0.12957128E+03</rscale>
<asrwt>0</asrwt>
<pdfrwt beam="1">  1       21 0.60217355E-02 0.12957128E+03</pdfrwt>
<pdfrwt beam="2">  1       21 0.29253609E-01 0.12957128E+03</pdfrwt>
<totfact> 0.21795673E+06</totfact>
</mgrwt>
</event>
<event>
 6    1  0.4259848E-002  0.1286240E+03  0.7546771E-02  0.1229512E+00
         21   -1    0    0  504  502  0.00000000000E+00  0.00000000000E+00  0.36584856451E+02  0.36584856451E+02  0.00000000000E+00 0.  1.
         21   -1    0    0  502  503 -0.00000000000E+00 -0.00000000000E+00 -0.18551933676E+03  0.18551933676E+03  0.00000000000E+00 0.  1.
         25    2    1    2    0    0 -0.25378636550E+02  0.16665695629E+02 -0.93907638687E+02  0.15925696652E+03  0.12498926425E+03 0.  0.
          5    1    3    3  501    0 -0.10183307956E+02 -0.46809348434E+02 -0.78870113034E+02  0.92278489323E+02  0.10000000000E+00 0.  1.
         -5    1    3    3    0  501 -0.15195328594E+02  0.63475044063E+02 -0.15037525653E+02  0.66978477197E+02  0.10000000000E+00 0.  1.
         21    1    1    2  504  503  0.25378636550E+02 -0.16665695629E+02 -0.55026841617E+02  0.62847226688E+02  0.00000000000E+00 0.  1.
<mgrwt>
<rscale>  1 0.12862401E+03</rscale>
<asrwt>0</asrwt>
<pdfrwt beam="1">  1       21 0.56284393E-02 0.12862401E+03</pdfrwt>
<pdfrwt beam="2">  1       21 0.28541437E-01 0.12862401E+03</pdfrwt>
<totfact> 0.25614385E+06</totfact>
</mgrwt>
</event>
<event>
 6    1  0.4259848E-002  0.1263399E+03  0.7546771E-02  0.1232990E+00
         21   -1    0    0  503  502  0.00000000000E+00  0.00000000000E+00  0.15848199645E+03  0.15848199645E+03  0.00000000000E+00 0. -1.
         21   -1    0    0  504  503 -0.00000000000E+00 -0.00000000000E+00 -0.23791202983E+03  0.23791202983E+03  0.00000000000E+00 0. -1.
         25    2    1    2    0    0 -0.16954580043E+02 -0.70268593912E+01  0.13284381980E+03  0.18332825408E+03  0.12499973499E+03 0.  0.
          5    1    3    3  501    0 -0.47890760756E+02 -0.25029167432E+01  0.14270278733E+03  0.15054529242E+03  0.10000000000E+00 0. -1.
         -5    1    3    3    0  501  0.30936180713E+02 -0.45239426480E+01 -0.98589675327E+01  0.32782961657E+02  0.10000000000E+00 0. -1.
         21    1    1    2  504  502  0.16954580043E+02  0.70268593912E+01 -0.21227385318E+03  0.21306577220E+03  0.00000000000E+00 0. -1.
<mgrwt>
<rscale>  1 0.12633989E+03</rscale>
<asrwt>0</asrwt>
<pdfrwt beam="1">  1       21 0.24381846E-01 0.12633989E+03</pdfrwt>
<pdfrwt beam="2">  1       21 0.36601851E-01 0.12633989E+03</pdfrwt>
<totfact> 0.11713767E+05</totfact>
</mgrwt>
</event>
<event>
 6    1  0.4259848E-002  0.1260879E+03  0.7546771E-02  0.1233379E+00
         21   -1    0    0  503  502  0.00000000000E+00  0.00000000000E+00  0.13914241839E+03  0.13914241839E+03  0.00000000000E+00 0.  1.
         21   -1    0    0  504  503 -0.00000000000E+00 -0.00000000000E+00 -0.52513398881E+02  0.52513398881E+02  0.00000000000E+00 0.  1.
         25    2    1    2    0    0  0.14871502608E+02  0.71554763668E+01  0.10704837073E+03  0.16540105892E+03  0.12500317670E+03 0.  0.
          5    1    3    3  501    0  0.80213008915E+01 -0.68502151312E+01  0.13391941441E+03  0.13433423343E+03  0.10000000000E+00 0.  1.
         -5    1    3    3    0  501  0.68502017167E+01  0.14005691498E+02 -0.26871043679E+02  0.31066825494E+02  0.10000000000E+00 0.  1.
         21    1    1    2  504  502 -0.14871502608E+02 -0.71554763668E+01 -0.20419351218E+02  0.26254758350E+02  0.00000000000E+00 0.  1.
<mgrwt>
<rscale>  1 0.12608789E+03</rscale>
<asrwt>0</asrwt>
<pdfrwt beam="1">  1       21 0.21406526E-01 0.12608789E+03</pdfrwt>
<pdfrwt beam="2">  1       21 0.80789845E-02 0.12608789E+03</pdfrwt>
<totfact> 0.23775356E+06</totfact>
</mgrwt>
</event>
<event>
 6    1  0.4259848E-002  0.1270094E+03  0.7546771E-02  0.1231962E+00
         21   -1    0    0  504  502  0.00000000000E+00  0.00000000000E+00  0.40359485886E+02  0.40359485886E+02  0.00000000000E+00 0.  1.
         21   -1    0    0  502  503 -0.00000000000E+00 -0.00000000000E+00 -0.14439781911E+03  0.14439781911E+03  0.00000000000E+00 0.  1.
         25    2    1    2    0    0  0.20942637133E+02 -0.82426085473E+01 -0.73244835637E+02  0.14661580346E+03  0.12499941292E+03 0.  0.
          5    1    3    3  501    0 -0.36504958485E+01  0.45587431193E+02  0.76652221183E+01  0.46371388084E+02  0.10000000000E+00 0.  1.
         -5    1    3    3    0  501  0.24593132982E+02 -0.53830039740E+02 -0.80910057755E+02  0.10024441538E+03  0.10000000000E+00 0.  1.
         21    1    1    2  504  503 -0.20942637133E+02  0.82426085473E+01 -0.30793497590E+02  0.38141501538E+02  0.00000000000E+00 0.  1.
<mgrwt>
<rscale>  1 0.12700940E+03</rscale>
<asrwt>0</asrwt>
<pdfrwt beam="1">  1       21 0.62091517E-02 0.12700940E+03</pdfrwt>
<pdfrwt beam="2">  1       21 0.22215049E-01 0.12700940E+03</pdfrwt>
<totfact> 0.34823033E+06</totfact>
</mgrwt>
</event>
<event>
 6    1  0.4259848E-002  0.1262299E+03  0.7546771E-02  0.1233160E+00
         21   -1    0    0  504  502  0.00000000000E+00  0.00000000000E+00  0.44823068652E+02  0.44823068652E+02  0.00000000000E+00 0. -1.
         21   -1    0    0  502  503 -0.00000000000E+00 -0.00000000000E+00 -0.15684738897E+03  0.15684738897E+03  0.00000000000E+00 0. -1.
         25    2    1    2    0    0 -0.44481320195E+01  0.16986743173E+02 -0.47617010748E+02  0.13491241056E+03  0.12500257392E+03 0.  0.
          5    1    3    3  501    0  0.65165779170E+01  0.44909629506E+02  0.28164254771E+02  0.53409510922E+02  0.10000000000E+00 0. -1.
         -5    1    3    3    0  501 -0.10964709936E+02 -0.27922886333E+02 -0.75781265519E+02  0.81502899635E+02  0.10000000000E+00 0. -1.
         21    1    1    2  504  503  0.44481320195E+01 -0.16986743173E+02 -0.64407309569E+02  0.66758047066E+02  0.00000000000E+00 0. -1.
<mgrwt>
<rscale>  1 0.12622986E+03</rscale>
<asrwt>0</asrwt>
<pdfrwt beam="1">  1       21 0.68958569E-02 0.12622986E+03</pdfrwt>
<pdfrwt beam="2">  1       21 0.24130367E-01 0.12622986E+03</pdfrwt>
<totfact> 0.24937310E+06</totfact>
</mgrwt>
</event>
<event>
 6    1  0.4259848E-002  0.1260143E+03  0.7546771E-02  0.1233493E+00
         21   -1    0    0  503  502  0.00000000000E+00  0.00000000000E+00  0.14999176978E+02  0.14999176978E+02  0.00000000000E+00 0.  1.
         21   -1    0    0  504  503 -0.00000000000E+00 -0.00000000000E+00 -0.74473105131E+03  0.74473105131E+03  0.00000000000E+00 0. -1.
         25    2    1    2    0    0 -0.15871390685E+02  0.17027850242E+01 -0.25218316773E+03  0.28191481654E+03  0.12499925273E+03 0.  0.
          5    1    3    3  501    0 -0.46514241503E+02  0.15399104339E+01 -0.24636704351E+03  0.25072430300E+03  0.10000000000E+00 0. -1.
         -5    1    3    3    0  501  0.30642850818E+02  0.16287459024E+00 -0.58161242184E+01  0.31190513547E+02  0.10000000000E+00 0. -1.
         21    1    1    2  504  502  0.15871390685E+02 -0.17027850242E+01 -0.47754870660E+03  0.47781541174E+03  0.00000000000E+00 0. -1.
<mgrwt>
<rscale>  1 0.12601434E+03</rscale>
<asrwt>0</asrwt>
<pdfrwt beam="1">  1       21 0.23075657E-02 0.12601434E+03</pdfrwt>
<pdfrwt beam="2">  1       21 0.11457401E+00 0.12601434E+03</pdfrwt>
<totfact> 0.58361353E+05</totfact>
</mgrwt>
</event>
<event>
 6    1  0.4259848E-002  0.1269390E+03  0.7546771E-02  0.1232070E+00
         21   -1    0    0  504  502  0.00000000000E+00  0.00000000000E+00  0.75784427619E+02  0.75784427619E+02  0.00000000000E+00 0.  1.
         21   -1    0    0  502  503 -0.00000000000E+00 -0.00000000000E+00 -0.90925624000E+03  0.90925624000E+03  0.00000000000E+00 0.  1.
         25    2    1    2    0    0  0.11050537092E+02  0.19110943606E+02  0.22386319342E+02  0.12889787335E+03  0.12500468762E+03 0.  0.
          5    1    3    3  501    0 -0.48395604055E+01 -0.42690638902E+02  0.44026777130E+02  0.61516494530E+02  0.10000000000E+00 0.  1.
         -5    1    3    3    0  501  0.15890097498E+02  0.61801582508E+02 -0.21640457788E+02  0.67381378824E+02  0.10000000000E+00 0.  1.
         21    1    1    2  504  503 -0.11050537092E+02 -0.19110943606E+02 -0.85585813173E+03  0.85614279427E+03  0.00000000000E+00 0.  1.
<mgrwt>
<rscale>  1 0.12693902E+03</rscale>
<asrwt>0</asrwt>
<pdfrwt beam="1">  1       21 0.11659142E-01 0.12693902E+03</pdfrwt>
<pdfrwt beam="2">  1       21 0.13988558E+00 0.12693902E+03</pdfrwt>
<totfact> 0.23210061E+04</totfact>
</mgrwt>
</event>
<event>
 6    1  0.4259848E-002  0.1364603E+03  0.7546771E-02  0.1218173E+00
         21   -1    0    0  504  502  0.00000000000E+00  0.00000000000E+00  0.46599627170E+03  0.46599627170E+03  0.00000000000E+00 0. -1.
         21   -1    0    0  502  503 -0.00000000000E+00 -0.00000000000E+00 -0.10709953244E+04  0.10709953244E+04  0.00000000000E+00 0.  1.
         25    2    1    2    0    0  0.33667473581E+02  0.43178453422E+02  0.45528460848E+03  0.47529516125E+03  0.12499415174E+03 0.  0.
          5    1    3    3  501    0 -0.47516041487E+02  0.18030573925E+02  0.19332592687E+03  0.19989447164E+03  0.10000000000E+00 0. -1.
         -5    1    3    3    0  501  0.81183515068E+02  0.25147879498E+02  0.26195868162E+03  0.27540068961E+03  0.10000000000E+00 0. -1.
         21    1    1    2  504  503 -0.33667473581E+02 -0.43178453422E+02 -0.10602836612E+04  0.10616964349E+04  0.00000000000E+00 0.  1.
<mgrwt>
<rscale>  1 0.13646031E+03</rscale>
<asrwt>0</asrwt>
<pdfrwt beam="1">  1       21 0.71691734E-01 0.13646031E+03</pdfrwt>
<pdfrwt beam="2">  1       21 0.16476851E+00 0.13646031E+03</pdfrwt>
<totfact> 0.44106593E+02</totfact>
</mgrwt>
</event>
<event>
 6    1  0.4259848E-002  0.1260857E+03  0.7546771E-02  0.1233382E+00
         21   -1    0    0  504  502  0.00000000000E+00  0.00000000000E+00  0.30322781813E+03  0.30322781813E+03  0.00000000000E+00 0.  1.
         21   -1    0    0  502  503 -0.00000000000E+00 -0.00000000000E+00 -0.16817189135E+02  0.16817189135E+02  0.00000000000E+00 0.  1.
         25    2    1    2    0    0 -0.86842715404E+01 -0.14067890390E+02  0.25836416138E+03  0.28748849551E+03  0.12499709217E+03 0.  0.
          5    1    3    3  501    0 -0.69442444000E+01  0.38161771372E+02  0.20345775422E+02  0.43800729470E+02  0.10000000000E+00 0.  1.
         -5    1    3    3    0  501 -0.17400271404E+01 -0.52229661762E+02  0.23801838596E+03  0.24368776604E+03  0.10000000000E+00 0.  1.
         21    1    1    2  504  503  0.86842715404E+01  0.14067890390E+02  0.28046467611E+02  0.32556511755E+02  0.00000000000E+00 0.  1.
<mgrwt>
<rscale>  1 0.12608567E+03</rscale>
<asrwt>0</asrwt>
<pdfrwt beam="1">  1       21 0.46650429E-01 0.12608567E+03</pdfrwt>
<pdfrwt beam="2">  1       21 0.25872601E-02 0.12608567E+03</pdfrwt>
<totfact> 0.35166526E+06</totfact>
</mgrwt>
</event>
<event>
 6    1  0.4259848E-002  0.1271549E+03  0.7546771E-02  0.1231740E+00
         21   -1    0    0  504  502  0.00000000000E+00  0.00000000000E+00  0.12221336788E+03  0.12221336788E+03  0.00000000000E+00 0. -1.
         21   -1    0    0  502  503 -0.00000000000E+00 -0.00000000000E+00 -0.65988663263E+02  0.65988663263E+02  0.00000000000E+00 0. -1.
         25    2    1    2    0    0  0.47389003548E+01  0.22869277462E+02  0.83632414282E+02  0.15219309369E+03  0.12499158379E+03 0.  0.
          5    1    3    3  501    0  0.35250516884E+02  0.48843968459E+02  0.87164378289E+00  0.60242028172E+02  0.10000000000E+00 0. -1.
         -5    1    3    3    0  501 -0.30511616529E+02 -0.25974690997E+02  0.82760770499E+02  0.91951065514E+02  0.10000000000E+00 0. -1.
         21    1    1    2  504  503 -0.47389003548E+01 -0.22869277462E+02 -0.27407709661E+02  0.36008937461E+02  0.00000000000E+00 0.  1.
<mgrwt>
<rscale>  1 0.12715485E+03</rscale>
<asrwt>0</asrwt>
<pdfrwt beam="1">  1       21 0.18802057E-01 0.12715485E+03</pdfrwt>
<pdfrwt beam="2">  1       21 0.10152102E-01 0.12715485E+03</pdfrwt>
<totfact> 0.20327274E+06</totfact>
</mgrwt>
</event>
<event>
 6    1  0.4259848E-002  0.1315732E+03  0.7546771E-02  0.1225140E+00
         21   -1    0    0  504  502  0.00000000000E+00  0.00000000000E+00  0.14781037605E+02  0.14781037605E+02  0.00000000000E+00 0.  1.
         21   -1    0    0  502  503 -0.00000000000E+00 -0.00000000000E+00 -0.77742918765E+03  0.77742918765E+03  0.00000000000E+00 0.  1.
         25    2    1    2    0    0  0.29629654502E+02 -0.28438905830E+02 -0.29803884035E+03  0.32578927971E+03  0.12499926649E+03 0.  0.
          5    1    3    3  501    0 -0.11393217255E+02 -0.48542893886E+02 -0.40521947446E+02  0.64251507150E+02  0.10000000000E+00 0.  1.
         -5    1    3    3    0  501  0.41022871756E+02  0.20103988056E+02 -0.25751689290E+03  0.26153777256E+03  0.10000000000E+00 0.  1.
         21    1    1    2  504  503 -0.29629654502E+02  0.28438905830E+02 -0.46460930969E+03  0.46642094555E+03  0.00000000000E+00 0.  1.
<mgrwt>
<rscale>  1 0.13157319E+03</rscale>
<asrwt>0</asrwt>
<pdfrwt beam="1">  1       21 0.22740057E-02 0.13157319E+03</pdfrwt>
<pdfrwt beam="2">  1       21 0.11960450E+00 0.13157319E+03</pdfrwt>
<totfact> 0.53819033E+05</totfact>
</mgrwt>
</event>
<event>
 6    1  0.4259848E-002  0.1294766E+03  0.7546771E-02  0.1228234E+00
         21   -1    0    0  503  502  0.00000000000E+00  0.00000000000E+00  0.23547964656E+02  0.23547964656E+02  0.00000000000E+00 0. -1.
         21   -1    0    0  504  503 -0.00000000000E+00 -0.00000000000E+00 -0.48449875185E+03  0.48449875185E+03  0.00000000000E+00 0. -1.
         25    2    1    2    0    0 -0.81350058953E+01 -0.32765014813E+02 -0.16288994686E+03  0.20808006993E+03  0.12499782477E+03 0.  0.
          5    1    3    3  501    0 -0.21180183820E+02 -0.63561978698E+02 -0.16122609643E+03  0.17459263871E+03  0.10000000000E+00 0.  1.
         -5    1    3    3    0  501  0.13045177925E+02  0.30796963884E+02 -0.16638504349E+01  0.33487431222E+02  0.10000000000E+00 0.  1.
         21    1    1    2  504  502  0.81350058953E+01  0.32765014813E+02 -0.29806084034E+03  0.29996664658E+03  0.00000000000E+00 0. -1.
<mgrwt>
<rscale>  1 0.12947656E+03</rscale>
<asrwt>0</asrwt>
<pdfrwt beam="1">  1       21 0.36227639E-02 0.12947656E+03</pdfrwt>
<pdfrwt beam="2">  1       21 0.74538267E-01 0.12947656E+03</pdfrwt>
<totfact> 0.75016205E+05</totfact>
</mgrwt>
</event>
<event>
 6    1  0.4259848E-002  0.1352852E+03  0.7546771E-02  0.1219818E+00
         21   -1    0    0  504  502  0.00000000000E+00  0.00000000000E+00  0.14824701144E+03  0.14824701144E+03  0.00000000000E+00 0.  1.
         21   -1    0    0  502  503 -0.00000000000E+00 -0.00000000000E+00 -0.61326109745E+02  0.61326109745E+02  0.00000000000E+00 0.  1.
         25    2    1    2    0    0 -0.51600836542E+02  0.37987494093E+01  0.80530129344E+02  0.15743945836E+03  0.12500001795E+03 0.  0.
          5    1    3    3  501    0  0.30723937201E+02 -0.13562264527E+02 -0.88078064159E+01  0.34720063222E+02  0.10000000000E+00 0.  1.
         -5    1    3    3    0  501 -0.82324773743E+02  0.17361013937E+02  0.89337935760E+02  0.12271939514E+03  0.10000000000E+00 0.  1.
         21    1    1    2  504  503  0.51600836542E+02 -0.37987494093E+01  0.63907723545E+01  0.52133662831E+02  0.00000000000E+00 0.  1.
<mgrwt>
<rscale>  1 0.13528519E+03</rscale>
<asrwt>0</asrwt>
<pdfrwt beam="1">  1       21 0.22807232E-01 0.13528519E+03</pdfrwt>
<pdfrwt beam="2">  1       21 0.94347862E-02 0.13528519E+03</pdfrwt>
<totfact> 0.16169190E+06</totfact>
</mgrwt>
</event>
<event>
 6    1  0.4259848E-002  0.1407232E+03  0.7546771E-02  0.1212359E+00
         21   -1    0    0  504  502  0.00000000000E+00  0.00000000000E+00  0.13935440075E+03  0.13935440075E+03  0.00000000000E+00 0. -1.
         21   -1    0    0  502  503 -0.00000000000E+00 -0.00000000000E+00 -0.14018657421E+03  0.14018657421E+03  0.00000000000E+00 0. -1.
         25    2    1    2    0    0  0.48019452609E+02 -0.43106435732E+02  0.90794855735E+02  0.16747159864E+03  0.12505597904E+03 0.  0.
          5    1    3    3  501    0 -0.15872568702E+02  0.35273313188E+02  0.33959064712E+02  0.51472061709E+02  0.10000000000E+00 0. -1.
         -5    1    3    3    0  501  0.63892021311E+02 -0.78379748920E+02  0.56835791023E+02  0.11599953694E+03  0.10000000000E+00 0. -1.
         21    1    1    2  504  503 -0.48019452609E+02  0.43106435732E+02 -0.91627029190E+02  0.11206937632E+03  0.00000000000E+00 0. -1.
<mgrwt>
<rscale>  1 0.14072324E+03</rscale>
<asrwt>0</asrwt>
<pdfrwt beam="1">  1       21 0.21439139E-01 0.14072324E+03</pdfrwt>
<pdfrwt beam="2">  1       21 0.21567165E-01 0.14072324E+03</pdfrwt>
<totfact> 0.40958387E+05</totfact>
</mgrwt>
</event>
<event>
 6    1  0.4259848E-002  0.1292727E+03  0.7546771E-02  0.1228539E+00
         21   -1    0    0  504  502  0.00000000000E+00  0.00000000000E+00  0.42640134408E+02  0.42640134408E+02  0.00000000000E+00 0. -1.
         21   -1    0    0  502  503 -0.00000000000E+00 -0.00000000000E+00 -0.55334513847E+03  0.55334513847E+03  0.00000000000E+00 0. -1.
         25    2    1    2    0    0 -0.32127894677E+02  0.73382841970E+01 -0.57331192191E+02  0.14141529441E+03  0.12500147145E+03 0.  0.
          5    1    3    3  501    0 -0.59250711464E+02 -0.30780025499E+02  0.82956480645E+00  0.66773909250E+02  0.10000000000E+00 0. -1.
         -5    1    3    3    0  501  0.27122816787E+02  0.38118309696E+02 -0.58160756997E+02  0.74641385163E+02  0.10000000000E+00 0. -1.
         21    1    1    2  504  503  0.32127894677E+02 -0.73382841970E+01 -0.45337381187E+03  0.45456997847E+03  0.00000000000E+00 0. -1.
<mgrwt>
<rscale>  1 0.12927266E+03</rscale>
<asrwt>0</asrwt>
<pdfrwt beam="1">  1       21 0.65600205E-02 0.12927266E+03</pdfrwt>
<pdfrwt beam="2">  1       21 0.85130023E-01 0.12927266E+03</pdfrwt>
<totfact> 0.20589214E+05</totfact>
</mgrwt>
</event>
<event>
 6    1  0.4259848E-002  0.1307419E+03  0.7546771E-02  0.1226359E+00
         21   -1    0    0  504  502  0.00000000000E+00  0.00000000000E+00  0.64898738098E+02  0.64898738098E+02  0.00000000000E+00 0. -1.
         21   -1    0    0  502  503 -0.00000000000E+00 -0.00000000000E+00 -0.50228653814E+03  0.50228653814E+03  0.00000000000E+00 0. -1.
         25    2    1    2    0    0  0.32556659293E+02 -0.20327358586E+02 -0.26625456250E+01  0.13076897911E+03  0.12498119529E+03 0.  0.
          5    1    3    3  501    0  0.14477631425E+01 -0.59611659392E+02 -0.36859735191E+02  0.70102040141E+02  0.10000000000E+00 0.  1.
         -5    1    3    3    0  501  0.31108896151E+02  0.39284300805E+02  0.34197189566E+02  0.60666938968E+02  0.10000000000E+00 0.  1.
         21    1    1    2  504  503 -0.32556659293E+02  0.20327358586E+02 -0.43472525442E+03  0.43641629713E+03  0.00000000000E+00 0. -1.
<mgrwt>
<rscale>  1 0.13074187E+03</rscale>
<asrwt>0</asrwt>
<pdfrwt beam="1">  1       21 0.99844210E-02 0.13074187E+03</pdfrwt>
<pdfrwt beam="2">  1       21 0.77274854E-01 0.13074187E+03</pdfrwt>
<totfact> 0.12380704E+05</totfact>
</mgrwt>
</event>
<event>
 6    1  0.4259848E-002  0.1354468E+03  0.7546771E-02  0.1219590E+00
         21   -1    0    0  503  502  0.00000000000E+00  0.00000000000E+00  0.12158074024E+03  0.12158074024E+03  0.00000000000E+00 0.  1.
         21   -1    0    0  504  503 -0.00000000000E+00 -0.00000000000E+00 -0.72660294160E+02  0.72660294160E+02  0.00000000000E+00 0. -1.
         25    2    1    2    0    0  0.25362093160E+02 -0.45582326260E+02  0.40735352026E+02  0.14143970865E+03  0.12499935216E+03 0.  0.
          5    1    3    3  501    0  0.53661044673E+02 -0.72318496187E+02  0.47675796548E+02  0.10189437758E+03  0.10000000000E+00 0.  1.
         -5    1    3    3    0  501 -0.28298951513E+02  0.26736169927E+02 -0.69404445223E+01  0.39545331068E+02  0.10000000000E+00 0.  1.
         21    1    1    2  504  502 -0.25362093160E+02  0.45582326260E+02  0.81850940574E+01  0.52801325755E+02  0.00000000000E+00 0.  1.
<mgrwt>
<rscale>  1 0.13544675E+03</rscale>
<asrwt>0</asrwt>
<pdfrwt beam="1">  1       21 0.18704729E-01 0.13544675E+03</pdfrwt>
<pdfrwt beam="2">  1       21 0.11178507E-01 0.13544675E+03</pdfrwt>
<totfact> 0.17353811E+06</totfact>
</mgrwt>
</event>
<event>
 6    1  0.4259848E-002  0.1278245E+03  0.7546771E-02  0.1230720E+00
         21   -1    0    0  503  502  0.00000000000E+00  0.00000000000E+00  0.43255279513E+03  0.43255279513E+03  0.00000000000E+00 0. -1.
         21   -1    0    0  504  503 -0.00000000000E+00 -0.00000000000E+00 -0.16474683017E+02  0.16474683017E+02  0.00000000000E+00 0. -1.
         25    2    1    2    0    0 -0.23441230080E+02  0.12889406633E+02  0.24973552761E+03  0.28054755801E+03  0.12499388178E+03 0.  0.
          5    1    3    3  501    0 -0.18289354876E+02 -0.29357564974E+02  0.23179380429E+03  0.23436028851E+03  0.10000000000E+00 0. -1.
         -5    1    3    3    0  501 -0.51518752033E+01  0.42246971606E+02  0.17941723320E+02  0.46187269498E+02  0.10000000000E+00 0. -1.
         21    1    1    2  504  502  0.23441230080E+02 -0.12889406633E+02  0.16634258449E+03  0.16847992013E+03  0.00000000000E+00 0. -1.
<mgrwt>
<rscale>  1 0.12782448E+03</rscale>
<asrwt>0</asrwt>
<pdfrwt beam="1">  1       21 0.66546575E-01 0.12782448E+03</pdfrwt>
<pdfrwt beam="2">  1       21 0.25345670E-02 0.12782448E+03</pdfrwt>
<totfact> 0.17264440E+06</totfact>
</mgrwt>
</event>
<event>
 6    1  0.4259848E-002  0.1342082E+03  0.7546771E-02  0.1221342E+00
         21   -1    0    0  504  502  0.00000000000E+00  0.00000000000E+00  0.13353634019E+04  0.13353634019E+04  0.00000000000E+00 0. -1.
         21   -1    0    0  502  503 -0.00000000000E+00 -0.00000000000E+00 -0.16622030705E+02  0.16622030705E+02  0.00000000000E+00 0.  1.
         25    2    1    2    0    0 -0.38730874999E+02 -0.29753829861E+02  0.12864585058E+04  0.12934401129E+04  0.12500586892E+03 0.  0.
          5    1    3    3  501    0 -0.12016836720E+02 -0.60811450770E+02  0.31076338057E+03  0.31688535089E+03  0.10000000000E+00 0. -1.
         -5    1    3    3    0  501 -0.26714038280E+02  0.31057620909E+02  0.97569512528E+03  0.97655476198E+03  0.10000000000E+00 0. -1.
         21    1    1    2  504  503  0.38730874999E+02  0.29753829861E+02  0.32282865397E+02  0.58545319778E+02  0.00000000000E+00 0.  1.
<mgrwt>
<rscale>  1 0.13420819E+03</rscale>
<asrwt>0</asrwt>
<pdfrwt beam="1">  1       21 0.20544044E+00 0.13420819E+03</pdfrwt>
<pdfrwt beam="2">  1       21 0.25572365E-02 0.13420819E+03</pdfrwt>
<totfact> 0.10582689E+05</totfact>
</mgrwt>
</event>
<event>
 6    1  0.4259848E-002  0.1303493E+03  0.7546771E-02  0.1226938E+00
         21   -1    0    0  503  502  0.00000000000E+00  0.00000000000E+00  0.89417149721E+02  0.89417149721E+02  0.00000000000E+00 0. -1.
         21   -1    0    0  504  503 -0.00000000000E+00 -0.00000000000E+00 -0.15736297005E+03  0.15736297005E+03  0.00000000000E+00 0. -1.
         25    2    1    2    0    0  0.64130385434E+01  0.36368903573E+02  0.37022406449E+02  0.13550499747E+03  0.12500848591E+03 0.  0.
          5    1    3    3  501    0 -0.30589011992E+01 -0.37083610740E+01 -0.44188528154E+02  0.44449351388E+02  0.10000000000E+00 0.  1.
         -5    1    3    3    0  501  0.94719397426E+01  0.40077264647E+02  0.81210934603E+02  0.91055646081E+02  0.10000000000E+00 0.  1.
         21    1    1    2  504  502 -0.64130385434E+01 -0.36368903573E+02 -0.10496822678E+03  0.11127512231E+03  0.00000000000E+00 0. -1.
<mgrwt>
<rscale>  1 0.13034932E+03</rscale>
<asrwt>0</asrwt>
<pdfrwt beam="1">  1       21 0.13756485E-01 0.13034932E+03</pdfrwt>
<pdfrwt beam="2">  1       21 0.24209687E-01 0.13034932E+03</pdfrwt>
<totfact> 0.74209385E+05</totfact>
</mgrwt>
</event>
<event>
 6    1  0.4259848E-002  0.1259760E+03  0.7546771E-02  0.1233552E+00
         21   -1    0    0  504  502  0.00000000000E+00  0.00000000000E+00  0.48062531385E+02  0.48062531385E+02  0.00000000000E+00 0.  1.
         21   -1    0    0  502  503 -0.00000000000E+00 -0.00000000000E+00 -0.27185798594E+03  0.27185798594E+03  0.00000000000E+00 0.  1.
         25    2    1    2    0    0  0.14903072507E+02  0.45299918338E+01 -0.35362867602E+02  0.13084523544E+03  0.12500928299E+03 0.  0.
          5    1    3    3  501    0  0.17919539988E+02  0.46616764237E+02 -0.63008045012E+02  0.80400599236E+02  0.10000000000E+00 0.  1.
         -5    1    3    3    0  501 -0.30164674805E+01 -0.42086772403E+02  0.27645177409E+02  0.50444636200E+02  0.10000000000E+00 0.  1.
         21    1    1    2  504  503 -0.14903072507E+02 -0.45299918338E+01 -0.18843258696E+03  0.18907528189E+03  0.00000000000E+00 0.  1.
<mgrwt>
<rscale>  1 0.12597596E+03</rscale>
<asrwt>0</asrwt>
<pdfrwt beam="1">  1       21 0.73942356E-02 0.12597596E+03</pdfrwt>
<pdfrwt beam="2">  1       21 0.41824305E-01 0.12597596E+03</pdfrwt>
<totfact> 0.76042892E+05</totfact>
</mgrwt>
</event>
<event>
 6    1  0.4259848E-002  0.1271753E+03  0.7546771E-02  0.1231708E+00
         21   -1    0    0  504  502  0.00000000000E+00  0.00000000000E+00  0.10869634928E+03  0.10869634928E+03  0.00000000000E+00 0. -1.
         21   -1    0    0  502  503 -0.00000000000E+00 -0.00000000000E+00 -0.52586728045E+02  0.52586728045E+02  0.00000000000E+00 0. -1.
         25    2    1    2    0    0 -0.41939186733E+01 -0.23007336935E+02  0.52646466592E+02  0.13764158949E+03  0.12500652066E+03 0.  0.
          5    1    3    3  501    0  0.32573181903E+01  0.80921424758E+00 -0.40791030181E+02  0.40929000632E+02  0.10000000000E+00 0. -1.
         -5    1    3    3    0  501 -0.74512368635E+01 -0.23816551183E+02  0.93437496773E+02  0.96712588861E+02  0.10000000000E+00 0. -1.
         21    1    1    2  504  503  0.41939186733E+01  0.23007336935E+02  0.34631546405E+01  0.23641487829E+02  0.00000000000E+00 0. -1.
<mgrwt>
<rscale>  1 0.12717530E+03</rscale>
<asrwt>0</asrwt>
<pdfrwt beam="1">  1       21 0.16722515E-01 0.12717530E+03</pdfrwt>
<pdfrwt beam="2">  1       21 0.80902659E-02 0.12717530E+03</pdfrwt>
<totfact> 0.37358818E+06</totfact>
</mgrwt>
</event>
<event>
 6    1  0.4259848E-002  0.1396466E+03  0.7546771E-02  0.1213805E+00
         21   -1    0    0  504  502  0.00000000000E+00  0.00000000000E+00  0.73011838602E+02  0.73011838602E+02  0.00000000000E+00 0.  1.
         21   -1    0    0  502  503 -0.00000000000E+00 -0.00000000000E+00 -0.18501710422E+03  0.18501710422E+03  0.00000000000E+00 0.  1.
         25    2    1    2    0    0  0.61835407362E+02 -0.74392195348E+01 -0.11928988914E+02  0.14015519362E+03  0.12498887123E+03 0.  0.
          5    1    3    3  501    0  0.51513925788E+02  0.12587738955E+02  0.50841126067E+02  0.73464044415E+02  0.10000000000E+00 0.  1.
         -5    1    3    3    0  501  0.10321481574E+02 -0.20026958490E+02 -0.62770114980E+02  0.66691149209E+02  0.10000000000E+00 0.  1.
         21    1    1    2  504  503 -0.61835407362E+02  0.74392195348E+01 -0.10007627671E+03  0.11787374920E+03  0.00000000000E+00 0. -1.
<mgrwt>
<rscale>  1 0.13964662E+03</rscale>
<asrwt>0</asrwt>
<pdfrwt beam="1">  1       21 0.11232591E-01 0.13964662E+03</pdfrwt>
<pdfrwt beam="2">  1       21 0.28464170E-01 0.13964662E+03</pdfrwt>
<totfact> 0.78208993E+05</totfact>
</mgrwt>
</event>
<event>
 6    1  0.4259848E-002  0.1289011E+03  0.7546771E-02  0.1229095E+00
         21   -1    0    0  504  502  0.00000000000E+00  0.00000000000E+00  0.52502804377E+03  0.52502804377E+03  0.00000000000E+00 0. -1.
         21   -1    0    0  502  503 -0.00000000000E+00 -0.00000000000E+00 -0.12280956682E+02  0.12280956682E+02  0.00000000000E+00 0. -1.
         25    2    1    2    0    0  0.25694233047E+02  0.18098685352E+02  0.39940468966E+03  0.41968989028E+03  0.12501096694E+03 0.  0.
          5    1    3    3  501    0 -0.16348543771E+02  0.64137883547E+02  0.18986664552E+03  0.20107286259E+03  0.10000000000E+00 0.  1.
         -5    1    3    3    0  501  0.42042776818E+02 -0.46039198195E+02  0.20953804414E+03  0.21861702769E+03  0.10000000000E+00 0.  1.
         21    1    1    2  504  503 -0.25694233047E+02 -0.18098685352E+02  0.11334239742E+03  0.11761911017E+03  0.00000000000E+00 0. -1.
<mgrwt>
<rscale>  1 0.12890112E+03</rscale>
<asrwt>0</asrwt>
<pdfrwt beam="1">  1       21 0.80773528E-01 0.12890112E+03</pdfrwt>
<pdfrwt beam="2">  1       21 0.18893784E-02 0.12890112E+03</pdfrwt>
<totfact> 0.18146220E+06</totfact>
</mgrwt>
</event>
<event>
 6    1  0.4259848E-002  0.1274119E+03  0.7546771E-02  0.1231347E+00
         21   -1    0    0  503  502  0.00000000000E+00  0.00000000000E+00  0.17225559331E+03  0.17225559331E+03  0.00000000000E+00 0.  1.
         21   -1    0    0  504  503 -0.00000000000E+00 -0.00000000000E+00 -0.42821461667E+03  0.42821461667E+03  0.00000000000E+00 0. -1.
         25    2    1    2    0    0 -0.11676979386E+02 -0.21737921554E+02  0.14826719251E+03  0.19549154057E+03  0.12499957191E+03 0.  0.
          5    1    3    3  501    0 -0.25643432552E+02 -0.43202498600E+02  0.15972254200E+03  0.16743757625E+03  0.10000000000E+00 0.  1.
         -5    1    3    3    0  501  0.13966453166E+02  0.21464577046E+02 -0.11455349488E+02  0.28053964314E+02  0.10000000000E+00 0.  1.
         21    1    1    2  504  502  0.11676979386E+02  0.21737921554E+02 -0.40422621587E+03  0.40497866941E+03  0.00000000000E+00 0. -1.
<mgrwt>
<rscale>  1 0.12741186E+03</rscale>
<asrwt>0</asrwt>
<pdfrwt beam="1">  1       21 0.26500861E-01 0.12741186E+03</pdfrwt>
<pdfrwt beam="2">  1       21 0.65879171E-01 0.12741186E+03</pdfrwt>
<totfact> 0.29802467E+04</totfact>
</mgrwt>
</event>
<event>
 6    1  0.4259848E-002  0.1260072E+03  0.7546771E-02  0.1233504E+00
         21   -1    0    0  504  502  0.00000000000E+00  0.00000000000E+00  0.12147934578E+03  0.12147934578E+03  0.00000000000E+00 0. -1.
         21   -1    0    0  502  503 -0.00000000000E+00 -0.00000000000E+00 -0.11490554988E+03  0.11490554988E+03  0.00000000000E+00 0. -1.
         25    2    1    2    0    0  0.13571831533E+02 -0.81701019084E+01  0.87831493836E+02  0.15359746515E+03  0.12500745904E+03 0.  0.
          5    1    3    3  501    0 -0.50987443355E+02 -0.28365097433E+02  0.41913578842E+02  0.71840491532E+02  0.10000000000E+00 0. -1.
         -5    1    3    3    0  501  0.64559274889E+02  0.20194995524E+02  0.45917914994E+02  0.81756973622E+02  0.10000000000E+00 0. -1.
         21    1    1    2  504  503 -0.13571831533E+02  0.81701019084E+01 -0.81257697930E+02  0.82787430503E+02  0.00000000000E+00 0. -1.
<mgrwt>
<rscale>  1 0.12600718E+03</rscale>
<asrwt>0</asrwt>
<pdfrwt beam="1">  1       21 0.18689130E-01 0.12600718E+03</pdfrwt>
<pdfrwt beam="2">  1       21 0.17677777E-01 0.12600718E+03</pdfrwt>
<totfact> 0.76293011E+05</totfact>
</mgrwt>
</event>
<event>
 6    1  0.4259848E-002  0.1265439E+03  0.7546771E-02  0.1232676E+00
         21   -1    0    0  504  502  0.00000000000E+00  0.00000000000E+00  0.10094423654E+02  0.10094423654E+02  0.00000000000E+00 0. -1.
         21   -1    0    0  502  503 -0.00000000000E+00 -0.00000000000E+00 -0.11386298141E+04  0.11386298141E+04  0.00000000000E+00 0.  1.
         25    2    1    2    0    0  0.17734729862E+02 -0.86374841071E+01 -0.39188274123E+03  0.41180751764E+03  0.12499688773E+03 0.  0.
          5    1    3    3  501    0  0.65028705364E+02 -0.29284115761E+02 -0.27390088082E+03  0.28303355715E+03  0.10000000000E+00 0.  1.
         -5    1    3    3    0  501 -0.47293975502E+02  0.20646631654E+02 -0.11798186041E+03  0.12877396050E+03  0.10000000000E+00 0.  1.
         21    1    1    2  504  503 -0.17734729862E+02  0.86374841071E+01 -0.73665264926E+03  0.73691672015E+03  0.00000000000E+00 0.  1.
<mgrwt>
<rscale>  1 0.12654386E+03</rscale>
<asrwt>0</asrwt>
<pdfrwt beam="1">  1       21 0.15529881E-02 0.12654386E+03</pdfrwt>
<pdfrwt beam="2">  1       21 0.17517384E+00 0.12654386E+03</pdfrwt>
<totfact> 0.37320211E+05</totfact>
</mgrwt>
</event>
<event>
 6    1  0.4259848E-002  0.1290715E+03  0.7546771E-02  0.1228840E+00
         21   -1    0    0  503  502  0.00000000000E+00  0.00000000000E+00  0.19451788562E+03  0.19451788562E+03  0.00000000000E+00 0. -1.
         21   -1    0    0  504  503 -0.00000000000E+00 -0.00000000000E+00 -0.35546703497E+02  0.35546703497E+02  0.00000000000E+00 0. -1.
         25    2    1    2    0    0  0.31849593011E+02  0.46410697251E+01  0.14724909767E+03  0.19581048911E+03  0.12499405897E+03 0.  0.
          5    1    3    3  501    0  0.20331580491E+02 -0.54266017196E+02  0.11225830979E+03  0.12633333648E+03  0.10000000000E+00 0.  1.
         -5    1    3    3    0  501  0.11518012519E+02  0.58907086921E+02  0.34990787882E+02  0.69477152636E+02  0.10000000000E+00 0.  1.
         21    1    1    2  504  502 -0.31849593011E+02 -0.46410697251E+01  0.11722084443E+02  0.34254100000E+02  0.00000000000E+00 0. -1.
<mgrwt>
<rscale>  1 0.12907150E+03</rscale>
<asrwt>0</asrwt>
<pdfrwt beam="1">  1       21 0.29925828E-01 0.12907150E+03</pdfrwt>
<pdfrwt beam="2">  1       21 0.54687237E-02 0.12907150E+03</pdfrwt>
<totfact> 0.24551712E+06</totfact>
</mgrwt>
</event>
<event>
 6    1  0.4259848E-002  0.1261920E+03  0.7546771E-02  0.1233218E+00
         21   -1    0    0  503  502  0.00000000000E+00  0.00000000000E+00  0.80166892804E+02  0.80166892804E+02  0.00000000000E+00 0.  1.
         21   -1    0    0  504  503 -0.00000000000E+00 -0.00000000000E+00 -0.66043686520E+02  0.66043686520E+02  0.00000000000E+00 0.  1.
         25    2    1    2    0    0 -0.11237516853E+02 -0.13184407545E+02  0.20308719858E+02  0.12781571685E+03  0.12499721190E+03 0.  0.
          5    1    3    3  501    0  0.36740164327E+02 -0.41644039130E+02 -0.19963870265E+02  0.59013827073E+02  0.10000000000E+00 0.  1.
         -5    1    3    3    0  501 -0.47977681180E+02  0.28459631585E+02  0.40272590123E+02  0.68801889775E+02  0.10000000000E+00 0.  1.
         21    1    1    2  504  502  0.11237516853E+02  0.13184407545E+02 -0.61855135743E+01  0.18394862476E+02  0.00000000000E+00 0.  1.
<mgrwt>
<rscale>  1 0.12619197E+03</rscale>
<asrwt>0</asrwt>
<pdfrwt beam="1">  1       21 0.12333368E-01 0.12619197E+03</pdfrwt>
<pdfrwt beam="2">  1       21 0.10160567E-01 0.12619197E+03</pdfrwt>
<totfact> 0.43428037E+06</totfact>
</mgrwt>
</event>
<event>
 6    1  0.4259848E-002  0.1260990E+03  0.7546771E-02  0.1233362E+00
         21   -1    0    0  503  502  0.00000000000E+00  0.00000000000E+00  0.63613139913E+02  0.63613139913E+02  0.00000000000E+00 0.  1.
         21   -1    0    0  504  503 -0.00000000000E+00 -0.00000000000E+00 -0.80274155501E+02  0.80274155501E+02  0.00000000000E+00 0.  1.
         25    2    1    2    0    0  0.16613424657E+02 -0.13903680584E+00 -0.17187632580E+02  0.12726494493E+03  0.12499970514E+03 0.  0.
          5    1    3    3  501    0  0.12821034264E+02 -0.61073115349E+02 -0.21641844608E+02  0.66050615259E+02  0.10000000000E+00 0.  1.
         -5    1    3    3    0  501  0.37923903928E+01  0.60934078543E+02  0.44542120277E+01  0.61214329675E+02  0.10000000000E+00 0.  1.
         21    1    1    2  504  502 -0.16613424657E+02  0.13903680584E+00  0.52661699216E+00  0.16622350481E+02  0.00000000000E+00 0.  1.
<mgrwt>
<rscale>  1 0.12609897E+03</rscale>
<asrwt>0</asrwt>
<pdfrwt beam="1">  1       21 0.97866369E-02 0.12609897E+03</pdfrwt>
<pdfrwt beam="2">  1       21 0.12349870E-01 0.12609897E+03</pdfrwt>
<totfact> 0.46258342E+06</totfact>
</mgrwt>
</event>
<event>
 6    1  0.4259848E-002  0.1269897E+03  0.7546771E-02  0.1231992E+00
         21   -1    0    0  504  502  0.00000000000E+00  0.00000000000E+00  0.60452386349E+01  0.60452386349E+01  0.00000000000E+00 0.  1.
         21   -1    0    0  502  503 -0.00000000000E+00 -0.00000000000E+00 -0.13643558533E+04  0.13643558533E+04  0.00000000000E+00 0.  1.
         25    2    1    2    0    0  0.21893364569E+02  0.47216518854E+01 -0.68214632430E+03  0.69386597757E+03  0.12499909464E+03 0.  0.
          5    1    3    3  501    0  0.11006617598E+02  0.14845948480E+02 -0.67824326504E+03  0.67849501427E+03  0.10000000000E+00 0.  1.
         -5    1    3    3    0  501  0.10886746971E+02 -0.10124296595E+02 -0.39030592628E+01  0.15370963299E+02  0.10000000000E+00 0.  1.
         21    1    1    2  504  503 -0.21893364569E+02 -0.47216518854E+01 -0.67616429038E+03  0.67653511438E+03  0.00000000000E+00 0.  1.
<mgrwt>
<rscale>  1 0.12698971E+03</rscale>
<asrwt>0</asrwt>
<pdfrwt beam="1">  1       21 0.93003600E-03 0.12698971E+03</pdfrwt>
<pdfrwt beam="2">  1       21 0.20990106E+00 0.12698971E+03</pdfrwt>
<totfact> 0.50302122E+05</totfact>
</mgrwt>
</event>
<event>
 6    1  0.4259848E-002  0.1263100E+03  0.7546771E-02  0.1233036E+00
         21   -1    0    0  504  502  0.00000000000E+00  0.00000000000E+00  0.25345003320E+02  0.25345003320E+02  0.00000000000E+00 0. -1.
         21   -1    0    0  502  503 -0.00000000000E+00 -0.00000000000E+00 -0.20731041837E+03  0.20731041837E+03  0.00000000000E+00 0. -1.
         25    2    1    2    0    0  0.17853315115E+02  0.32052512647E+01 -0.16520375337E+03  0.20795789553E+03  0.12500076675E+03 0.  0.
          5    1    3    3  501    0 -0.24509763915E+02  0.19398184551E+02 -0.15916489064E+03  0.16220508778E+03  0.10000000000E+00 0.  1.
         -5    1    3    3    0  501  0.42363079030E+02 -0.16192933286E+02 -0.60388627329E+01  0.45752807744E+02  0.10000000000E+00 0.  1.
         21    1    1    2  504  503 -0.17853315115E+02 -0.32052512647E+01 -0.16761661674E+02  0.24697526158E+02  0.00000000000E+00 0. -1.
<mgrwt>
<rscale>  1 0.12630996E+03</rscale>
<asrwt>0</asrwt>
<pdfrwt beam="1">  1       21 0.38992315E-02 0.12630996E+03</pdfrwt>
<pdfrwt beam="2">  1       21 0.31893909E-01 0.12630996E+03</pdfrwt>
<totfact> 0.38187163E+06</totfact>
</mgrwt>
</event>
<event>
 6    1  0.4259848E-002  0.1262897E+03  0.7546771E-02  0.1233067E+00
         21   -1    0    0  503  502  0.00000000000E+00  0.00000000000E+00  0.53113777505E+03  0.53113777505E+03  0.00000000000E+00 0.  1.
         21   -1    0    0  504  503 -0.00000000000E+00 -0.00000000000E+00 -0.38505785744E+03  0.38505785744E+03  0.00000000000E+00 0.  1.
         25    2    1    2    0    0  0.42816537448E+01  0.17450726415E+02  0.52341392917E+03  0.53843404538E+03  0.12500487817E+03 0.  0.
          5    1    3    3  501    0 -0.30868586588E+01 -0.23973650701E+02  0.15356383144E+02  0.28637268158E+02  0.10000000000E+00 0.  1.
         -5    1    3    3    0  501  0.73685124036E+01  0.41424377115E+02  0.50805754602E+03  0.50979677722E+03  0.10000000000E+00 0.  1.
         21    1    1    2  504  502 -0.42816537448E+01 -0.17450726415E+02 -0.37733401156E+03  0.37776158711E+03  0.00000000000E+00 0.  1.
<mgrwt>
<rscale>  1 0.12628967E+03</rscale>
<asrwt>0</asrwt>
<pdfrwt beam="1">  1       21 0.81713504E-01 0.12628967E+03</pdfrwt>
<pdfrwt beam="2">  1       21 0.59239670E-01 0.12628967E+03</pdfrwt>
<totfact> 0.37182233E+03</totfact>
</mgrwt>
</event>
<event>
 6    1  0.4259848E-002  0.1310071E+03  0.7546771E-02  0.1225969E+00
         21   -1    0    0  503  502  0.00000000000E+00  0.00000000000E+00  0.18529843557E+03  0.18529843557E+03  0.00000000000E+00 0. -1.
         21   -1    0    0  504  503 -0.00000000000E+00 -0.00000000000E+00 -0.15619314779E+03  0.15619314779E+03  0.00000000000E+00 0. -1.
         25    2    1    2    0    0  0.25054467340E+02 -0.30436796619E+02  0.15884221798E+03  0.20589735053E+03  0.12493495836E+03 0.  0.
          5    1    3    3  501    0 -0.43484606221E+02 -0.43186102956E+02  0.75326721176E+02  0.97108575264E+02  0.10000000000E+00 0.  1.
         -5    1    3    3    0  501  0.68539073562E+02  0.12749306338E+02  0.83515496803E+02  0.10878877526E+03  0.10000000000E+00 0.  1.
         21    1    1    2  504  502 -0.25054467340E+02  0.30436796619E+02 -0.12973693020E+03  0.13559423284E+03  0.00000000000E+00 0. -1.
<mgrwt>
<rscale>  1 0.13100713E+03</rscale>
<asrwt>0</asrwt>
<pdfrwt beam="1">  1       21 0.28507451E-01 0.13100713E+03</pdfrwt>
<pdfrwt beam="2">  1       21 0.24029715E-01 0.13100713E+03</pdfrwt>
<totfact> 0.19550488E+05</totfact>
</mgrwt>
</event>
<event>
 6    1  0.4259848E-002  0.1335211E+03  0.7546771E-02  0.1222323E+00
         21   -1    0    0  503  502  0.00000000000E+00  0.00000000000E+00  0.76453808219E+03  0.76453808219E+03  0.00000000000E+00 0.  1.
         21   -1    0    0  504  503 -0.00000000000E+00 -0.00000000000E+00 -0.34373336828E+02  0.34373336828E+02  0.00000000000E+00 0.  1.
         25    2    1    2    0    0 -0.46858239969E+02 -0.24385925912E+01  0.73917071967E+03  0.75113329682E+03  0.12500494149E+03 0.  0.
          5    1    3    3  501    0 -0.70098421972E+02 -0.24294534466E+02  0.67888331828E+03  0.68292502005E+03  0.10000000000E+00 0.  1.
         -5    1    3    3    0  501  0.23240182003E+02  0.21855941875E+02  0.60287401386E+02  0.68208276775E+02  0.10000000000E+00 0.  1.
         21    1    1    2  504  502  0.46858239969E+02  0.24385925912E+01 -0.90059743082E+01  0.47778122191E+02  0.00000000000E+00 0.  1.
<mgrwt>
<rscale>  1 0.13352107E+03</rscale>
<asrwt>0</asrwt>
<pdfrwt beam="1">  1       21 0.11762123E+00 0.13352107E+03</pdfrwt>
<pdfrwt beam="2">  1       21 0.52882063E-02 0.13352107E+03</pdfrwt>
<totfact> 0.13892114E+05</totfact>
</mgrwt>
</event>
<event>
 6    1  0.4259848E-002  0.1653770E+03  0.7546771E-02  0.1182757E+00
         21   -1    0    0  503  502  0.00000000000E+00  0.00000000000E+00  0.71490021922E+02  0.71490021922E+02  0.00000000000E+00 0.  1.
         21   -1    0    0  504  503 -0.00000000000E+00 -0.00000000000E+00 -0.26375744980E+03  0.26375744980E+03  0.00000000000E+00 0.  1.
         25    2    1    2    0    0 -0.10633339217E+03  0.20391615823E+02 -0.10216659215E+03  0.19439020750E+03  0.12500772750E+03 0.  0.
          5    1    3    3  501    0  0.21074254225E+02  0.19173494680E+00  0.10108576825E+02  0.23374222529E+02  0.10000000000E+00 0.  1.
         -5    1    3    3    0  501 -0.12740764639E+03  0.20199880876E+02 -0.11227516897E+03  0.17101598497E+03  0.10000000000E+00 0.  1.
         21    1    1    2  504  502  0.10633339217E+03 -0.20391615823E+02 -0.90100835728E+02  0.14085726422E+03  0.00000000000E+00 0.  1.
<mgrwt>
<rscale>  1 0.16537696E+03</rscale>
<asrwt>0</asrwt>
<pdfrwt beam="1">  1       21 0.10998465E-01 0.16537696E+03</pdfrwt>
<pdfrwt beam="2">  1       21 0.40578069E-01 0.16537696E+03</pdfrwt>
<totfact> 0.40328313E+05</totfact>
</mgrwt>
</event>
<event>
 6    1  0.4259848E-002  0.1267354E+03  0.7546771E-02  0.1232382E+00
         21   -1    0    0  503  502  0.00000000000E+00  0.00000000000E+00  0.13237767863E+04  0.13237767863E+04  0.00000000000E+00 0.  1.
         21   -1    0    0  504  503 -0.00000000000E+00 -0.00000000000E+00 -0.45994074059E+01  0.45994074059E+01  0.00000000000E+00 0.  1.
         25    2    1    2    0    0  0.30638980924E+01  0.20707706490E+02  0.92479054281E+03  0.93343420675E+03  0.12499469465E+03 0.  0.
          5    1    3    3  501    0  0.41345202907E+02  0.29796882416E+02  0.16653512254E+03  0.17415865481E+03  0.10000000000E+00 0. -1.
         -5    1    3    3    0  501 -0.38281304814E+02 -0.90891759262E+01  0.75825542027E+03  0.75927555194E+03  0.10000000000E+00 0. -1.
         21    1    1    2  504  502 -0.30638980924E+01 -0.20707706490E+02  0.39438683611E+03  0.39494198698E+03  0.00000000000E+00 0.  1.
<mgrwt>
<rscale>  1 0.12673543E+03</rscale>
<asrwt>0</asrwt>
<pdfrwt beam="1">  1       21 0.20365766E+00 0.12673543E+03</pdfrwt>
<pdfrwt beam="2">  1       21 0.70760219E-03 0.12673543E+03</pdfrwt>
<totfact> 0.84324108E+05</totfact>
</mgrwt>
</event>
<event>
 6    1  0.4259848E-002  0.1278452E+03  0.7546771E-02  0.1230689E+00
         21   -1    0    0  504  502  0.00000000000E+00  0.00000000000E+00  0.48200366437E+03  0.48200366437E+03  0.00000000000E+00 0.  1.
         21   -1    0    0  502  503 -0.00000000000E+00 -0.00000000000E+00 -0.14630601756E+02  0.14630601756E+02  0.00000000000E+00 0.  1.
         25    2    1    2    0    0 -0.26782666895E+02  0.17229687844E+01  0.44041165583E+03  0.45859221934E+03  0.12499646870E+03 0.  0.
          5    1    3    3  501    0 -0.42691285850E+02 -0.51882426532E+02  0.17728490497E+03  0.18958976661E+03  0.10000000000E+00 0.  1.
         -5    1    3    3    0  501  0.15908618955E+02  0.53605395316E+02  0.26312675085E+03  0.26900245274E+03  0.10000000000E+00 0.  1.
         21    1    1    2  504  503  0.26782666895E+02 -0.17229687844E+01  0.26961406789E+02  0.38042046784E+02  0.00000000000E+00 0. -1.
<mgrwt>
<rscale>  1 0.12784521E+03</rscale>
<asrwt>0</asrwt>
<pdfrwt beam="1">  1       21 0.74154398E-01 0.12784521E+03</pdfrwt>
<pdfrwt beam="2">  1       21 0.22508622E-02 0.12784521E+03</pdfrwt>
<totfact> 0.16533152E+06</totfact>
</mgrwt>
</event>
<event>
 6    1  0.4259848E-002  0.1262580E+03  0.7546771E-02  0.1233116E+00
         21   -1    0    0  503  502  0.00000000000E+00  0.00000000000E+00  0.19733597390E+03  0.19733597390E+03  0.00000000000E+00 0.  1.
         21   -1    0    0  504  503 -0.00000000000E+00 -0.00000000000E+00 -0.71654820644E+02  0.71654820644E+02  0.00000000000E+00 0.  1.
         25    2    1    2    0    0 -0.17266837241E+02 -0.41822956133E+01  0.17544379720E+03  0.21615183167E+03  0.12500181237E+03 0.  0.
          5    1    3    3  501    0  0.34294344597E+02 -0.45059559195E+02  0.10790069720E+03  0.12185662231E+03  0.10000000000E+00 0. -1.
         -5    1    3    3    0  501 -0.51561181838E+02  0.40877263582E+02  0.67543100000E+02  0.94295209359E+02  0.10000000000E+00 0. -1.
         21    1    1    2  504  502  0.17266837241E+02  0.41822956133E+01 -0.49762643943E+02  0.52838962870E+02  0.00000000000E+00 0.  1.
<mgrwt>
<rscale>  1 0.12625802E+03</rscale>
<asrwt>0</asrwt>
<pdfrwt beam="1">  1       21 0.30359380E-01 0.12625802E+03</pdfrwt>
<pdfrwt beam="2">  1       21 0.11023819E-01 0.12625802E+03</pdfrwt>
<totfact> 0.71402807E+05</totfact>
</mgrwt>
</event>
<event>
 6    1  0.4259848E-002  0.1259342E+03  0.7546771E-02  0.1233616E+00
         21   -1    0    0  503  502  0.00000000000E+00  0.00000000000E+00  0.24734433669E+01  0.24734433669E+01  0.00000000000E+00 0. -1.
         21   -1    0    0  504  503 -0.00000000000E+00 -0.00000000000E+00 -0.20172340671E+04  0.20172340671E+04  0.00000000000E+00 0. -1.
         25    2    1    2    0    0 -0.11575444590E+02  0.99320799901E+01 -0.17742085392E+04  0.17786723626E+04  0.12500718301E+03 0.  0.
          5    1    3    3  501    0  0.20369898209E+02 -0.50002051545E+02 -0.57045332833E+03  0.57300274669E+03  0.10000000000E+00 0.  1.
         -5    1    3    3    0  501 -0.31945342798E+02  0.59934131535E+02 -0.12037552109E+04  0.12056696159E+04  0.10000000000E+00 0.  1.
         21    1    1    2  504  502  0.11575444590E+02 -0.99320799901E+01 -0.24055208449E+03  0.24103514782E+03  0.00000000000E+00 0. -1.
<mgrwt>
<rscale>  1 0.12593424E+03</rscale>
<asrwt>0</asrwt>
<pdfrwt beam="1">  1       21 0.38052853E-03 0.12593424E+03</pdfrwt>
<pdfrwt beam="2">  1       21 0.31034470E+00 0.12593424E+03</pdfrwt>
<totfact> 0.53360216E+05</totfact>
</mgrwt>
</event>
<event>
 6    1  0.4259848E-002  0.1265375E+03  0.7546771E-02  0.1232686E+00
         21   -1    0    0  503  502  0.00000000000E+00  0.00000000000E+00  0.51998471018E+03  0.51998471018E+03  0.00000000000E+00 0. -1.
         21   -1    0    0  504  503 -0.00000000000E+00 -0.00000000000E+00 -0.11722239977E+02  0.11722239977E+02  0.00000000000E+00 0. -1.
         25    2    1    2    0    0  0.19657266791E+02  0.59630551411E+00  0.48504988193E+03  0.50128347284E+03  0.12499987383E+03 0.  0.
          5    1    3    3  501    0 -0.13832404288E+01  0.23817591549E+02  0.46142070106E+03  0.46203708118E+03  0.10000000000E+00 0. -1.
         -5    1    3    3    0  501  0.21040507220E+02 -0.23221286035E+02  0.23629180875E+02  0.39246391656E+02  0.10000000000E+00 0. -1.
         21    1    1    2  504  502 -0.19657266791E+02 -0.59630551411E+00  0.23212588266E+02  0.30423477316E+02  0.00000000000E+00 0.  1.
<mgrwt>
<rscale>  1 0.12653747E+03</rscale>
<asrwt>0</asrwt>
<pdfrwt beam="1">  1       21 0.79997630E-01 0.12653747E+03</pdfrwt>
<pdfrwt beam="2">  1       21 0.18034219E-02 0.12653747E+03</pdfrwt>
<totfact> 0.19977549E+06</totfact>
</mgrwt>
</event>
<event>
 6    1  0.4259848E-002  0.1261982E+03  0.7546771E-02  0.1233208E+00
         21   -1    0    0  504  502  0.00000000000E+00  0.00000000000E+00  0.15130711797E+03  0.15130711797E+03  0.00000000000E+00 0.  1.
         21   -1    0    0  502  503 -0.00000000000E+00 -0.00000000000E+00 -0.42428554498E+03  0.42428554498E+03  0.00000000000E+00 0.  1.
         25    2    1    2    0    0 -0.16325604629E+02 -0.56851127917E+01  0.12477267168E+03  0.17746607204E+03  0.12500856471E+03 0.  0.
          5    1    3    3  501    0  0.31150837855E+02  0.15831569285E+02 -0.71074156684E+01  0.35658640504E+02  0.10000000000E+00 0. -1.
         -5    1    3    3    0  501 -0.47476442484E+02 -0.21516682077E+02  0.13188008735E+03  0.14180743153E+03  0.10000000000E+00 0. -1.
         21    1    1    2  504  503  0.16325604629E+02  0.56851127917E+01 -0.39775109870E+03  0.39812659091E+03  0.00000000000E+00 0.  1.
<mgrwt>
<rscale>  1 0.12619821E+03</rscale>
<asrwt>0</asrwt>
<pdfrwt beam="1">  1       21 0.23278018E-01 0.12619821E+03</pdfrwt>
<pdfrwt beam="2">  1       21 0.65274699E-01 0.12619821E+03</pdfrwt>
<totfact> 0.38861646E+04</totfact>
</mgrwt>
</event>
<event>
 6    1  0.4259848E-002  0.1365417E+03  0.7546771E-02  0.1218060E+00
         21   -1    0    0  503  502  0.00000000000E+00  0.00000000000E+00  0.12720522640E+02  0.12720522640E+02  0.00000000000E+00 0.  1.
         21   -1    0    0  504  503 -0.00000000000E+00 -0.00000000000E+00 -0.88253762901E+03  0.88253762901E+03  0.00000000000E+00 0.  1.
         25    2    1    2    0    0 -0.53631412362E+02  0.11810420449E+02 -0.40921324058E+03  0.43139207658E+03  0.12501133166E+03 0.  0.
          5    1    3    3  501    0 -0.67322328114E+02  0.57172879369E+02 -0.24286259334E+03  0.25842461810E+03  0.10000000000E+00 0. -1.
         -5    1    3    3    0  501  0.13690915751E+02 -0.45362458921E+02 -0.16635064724E+03  0.17296745848E+03  0.10000000000E+00 0. -1.
         21    1    1    2  504  502  0.53631412362E+02 -0.11810420449E+02 -0.46060386579E+03  0.46386607507E+03  0.00000000000E+00 0.  1.
<mgrwt>
<rscale>  1 0.13654174E+03</rscale>
<asrwt>0</asrwt>
<pdfrwt beam="1">  1       21 0.19570032E-02 0.13654174E+03</pdfrwt>
<pdfrwt beam="2">  1       21 0.13577504E+00 0.13654174E+03</pdfrwt>
<totfact> 0.50054510E+05</totfact>
</mgrwt>
</event>
<event>
 6    1  0.4259848E-002  0.1655105E+03  0.7546771E-02  0.1182612E+00
         21   -1    0    0  503  502  0.00000000000E+00  0.00000000000E+00  0.10023851984E+03  0.10023851984E+03  0.00000000000E+00 0.  1.
         21   -1    0    0  504  503 -0.00000000000E+00 -0.00000000000E+00 -0.19639296746E+03  0.19639296746E+03  0.00000000000E+00 0.  1.
         25    2    1    2    0    0  0.69238216377E+02 -0.83513443601E+02 -0.26255656451E+02  0.16758007555E+03  0.12500118542E+03 0.  0.
          5    1    3    3  501    0  0.10057126975E+03 -0.79634200256E+02 -0.38161233670E+02  0.13383749812E+03  0.10000000000E+00 0.  1.
         -5    1    3    3    0  501 -0.31333053368E+02 -0.38792433456E+01  0.11905577220E+02  0.33742577424E+02  0.10000000000E+00 0.  1.
         21    1    1    2  504  502 -0.69238216377E+02  0.83513443601E+02 -0.69898791166E+02  0.12905141175E+03  0.00000000000E+00 0.  1.
<mgrwt>
<rscale>  1 0.16551049E+03</rscale>
<asrwt>0</asrwt>
<pdfrwt beam="1">  1       21 0.15421311E-01 0.16551049E+03</pdfrwt>
<pdfrwt beam="2">  1       21 0.30214302E-01 0.16551049E+03</pdfrwt>
<totfact> 0.39407395E+05</totfact>
</mgrwt>
</event>
<event>
 6    1  0.4259848E-002  0.1280409E+03  0.7546771E-02  0.1230392E+00
         21   -1    0    0  503  502  0.00000000000E+00  0.00000000000E+00  0.61284984504E+03  0.61284984504E+03  0.00000000000E+00 0.  1.
         21   -1    0    0  504  503 -0.00000000000E+00 -0.00000000000E+00 -0.14353359521E+02  0.14353359521E+02  0.00000000000E+00 0.  1.
         25    2    1    2    0    0  0.27608491775E+02  0.26883682627E+01  0.57975632493E+03  0.59372709725E+03  0.12500005427E+03 0.  0.
          5    1    3    3  501    0 -0.27333836705E+02  0.38822682627E+02  0.39041106525E+03  0.39328761636E+03  0.10000000000E+00 0. -1.
         -5    1    3    3    0  501  0.54942328481E+02 -0.36134314365E+02  0.18934525968E+03  0.20043948089E+03  0.10000000000E+00 0. -1.
         21    1    1    2  504  502 -0.27608491775E+02 -0.26883682627E+01  0.18740160592E+02  0.33476107316E+02  0.00000000000E+00 0.  1.
<mgrwt>
<rscale>  1 0.12804089E+03</rscale>
<asrwt>0</asrwt>
<pdfrwt beam="1">  1       21 0.94284571E-01 0.12804089E+03</pdfrwt>
<pdfrwt beam="2">  1       21 0.22082096E-02 0.12804089E+03</pdfrwt>
<totfact> 0.99258998E+05</totfact>
</mgrwt>
</event>
<event>
 6    1  0.4259848E-002  0.1287840E+03  0.7546771E-02  0.1229271E+00
         21   -1    0    0  503  502  0.00000000000E+00  0.00000000000E+00  0.96707078311E+01  0.96707078311E+01  0.00000000000E+00 0. -1.
         21   -1    0    0  504  503 -0.00000000000E+00 -0.00000000000E+00 -0.11381281060E+04  0.11381281060E+04  0.00000000000E+00 0. -1.
         25    2    1    2    0    0  0.24038320067E+02  0.19605386629E+02 -0.43538023116E+03  0.45402783472E+03  0.12499246780E+03 0.  0.
          5    1    3    3  501    0  0.62736648761E+02 -0.19167534758E+02 -0.31516266751E+03  0.32191737834E+03  0.10000000000E+00 0. -1.
         -5    1    3    3    0  501 -0.38698328694E+02  0.38772921386E+02 -0.12021756365E+03  0.13211045638E+03  0.10000000000E+00 0. -1.
         21    1    1    2  504  502 -0.24038320067E+02 -0.19605386629E+02 -0.69307716700E+03  0.69377097909E+03  0.00000000000E+00 0. -1.
<mgrwt>
<rscale>  1 0.12878404E+03</rscale>
<asrwt>0</asrwt>
<pdfrwt beam="1">  1       21 0.14878010E-02 0.12878404E+03</pdfrwt>
<pdfrwt beam="2">  1       21 0.17509666E+00 0.12878404E+03</pdfrwt>
<totfact> 0.39980192E+05</totfact>
</mgrwt>
</event>
<event>
 6    1  0.4259848E-002  0.1269800E+03  0.7546771E-02  0.1232007E+00
         21   -1    0    0  504  502  0.00000000000E+00  0.00000000000E+00  0.12215998294E+03  0.12215998294E+03  0.00000000000E+00 0. -1.
         21   -1    0    0  502  503 -0.00000000000E+00 -0.00000000000E+00 -0.63125585888E+02  0.63125585888E+02  0.00000000000E+00 0. -1.
         25    2    1    2    0    0 -0.95230306673E+01  0.20171673513E+02  0.83657483278E+02  0.15206086567E+03  0.12500539122E+03 0.  0.
          5    1    3    3  501    0 -0.82515022418E+01 -0.39831733273E+02 -0.90026536516E+01  0.41661877509E+02  0.10000000000E+00 0. -1.
         -5    1    3    3    0  501 -0.12715284255E+01  0.60003406786E+02  0.92660136929E+02  0.11039898816E+03  0.10000000000E+00 0. -1.
         21    1    1    2  504  503  0.95230306673E+01 -0.20171673513E+02 -0.24623086221E+02  0.33224703166E+02  0.00000000000E+00 0. -1.
<mgrwt>
<rscale>  1 0.12698005E+03</rscale>
<asrwt>0</asrwt>
<pdfrwt beam="1">  1       21 0.18793843E-01 0.12698005E+03</pdfrwt>
<pdfrwt beam="2">  1       21 0.97116287E-02 0.12698005E+03</pdfrwt>
<totfact> 0.21982697E+06</totfact>
</mgrwt>
</event>
<event>
 6    1  0.4259848E-002  0.1561955E+03  0.7546771E-02  0.1193060E+00
         21   -1    0    0  503  502  0.00000000000E+00  0.00000000000E+00  0.21494291654E+03  0.21494291654E+03  0.00000000000E+00 0.  1.
         21   -1    0    0  504  503 -0.00000000000E+00 -0.00000000000E+00 -0.10740766151E+04  0.10740766151E+04  0.00000000000E+00 0. -1.
         25    2    1    2    0    0  0.55835257108E+02  0.75192538952E+02  0.18418950850E+03  0.24150112691E+03  0.12500210161E+03 0.  0.
          5    1    3    3  501    0 -0.20037653996E+02  0.77327602595E+02  0.10318348691E+03  0.13049102525E+03  0.10000000000E+00 0.  1.
         -5    1    3    3    0  501  0.75872911104E+02 -0.21350636428E+01  0.81006021596E+02  0.11101010166E+03  0.10000000000E+00 0.  1.
         21    1    1    2  504  502 -0.55835257108E+02 -0.75192538952E+02 -0.10433232071E+04  0.10475184047E+04  0.00000000000E+00 0. -1.
<mgrwt>
<rscale>  1 0.15619545E+03</rscale>
<asrwt>0</asrwt>
<pdfrwt beam="1">  1       21 0.33068141E-01 0.15619545E+03</pdfrwt>
<pdfrwt beam="2">  1       21 0.16524256E+00 0.15619545E+03</pdfrwt>
<totfact> 0.21104988E+03</totfact>
</mgrwt>
</event>
<event>
 6    1  0.4259848E-002  0.1273466E+03  0.7546771E-02  0.1231447E+00
         21   -1    0    0  503  502  0.00000000000E+00  0.00000000000E+00  0.23779825124E+04  0.23779825124E+04  0.00000000000E+00 0.  1.
         21   -1    0    0  504  503 -0.00000000000E+00 -0.00000000000E+00 -0.74932566795E+01  0.74932566795E+01  0.00000000000E+00 0.  1.
         25    2    1    2    0    0 -0.23681747828E+02  0.56312803021E+01  0.23505845648E+04  0.23540316406E+04  0.12499852753E+03 0.  0.
          5    1    3    3  501    0 -0.43601659104E+02 -0.16617905017E+02  0.33586909954E+03  0.33909485616E+03  0.10000000000E+00 0.  1.
         -5    1    3    3    0  501  0.19919911275E+02  0.22249185319E+02  0.20147154653E+04  0.20149367844E+04  0.10000000000E+00 0.  1.
         21    1    1    2  504  502  0.23681747828E+02 -0.56312803021E+01  0.19904690877E+02  0.31444128498E+02  0.00000000000E+00 0.  1.
<mgrwt>
<rscale>  1 0.12734665E+03</rscale>
<asrwt>0</asrwt>
<pdfrwt beam="1">  1       21 0.36584286E+00 0.12734665E+03</pdfrwt>
<pdfrwt beam="2">  1       21 0.11528106E-02 0.12734665E+03</pdfrwt>
<totfact> 0.45695642E+04</totfact>
</mgrwt>
</event>
<event>
 6    1  0.4259848E-002  0.1270916E+03  0.7546771E-02  0.1231836E+00
         21   -1    0    0  503  502  0.00000000000E+00  0.00000000000E+00  0.24123608079E+02  0.24123608079E+02  0.00000000000E+00 0. -1.
         21   -1    0    0  504  503 -0.00000000000E+00 -0.00000000000E+00 -0.36209746067E+03  0.36209746067E+03  0.00000000000E+00 0. -1.
         25    2    1    2    0    0 -0.20412747242E+02 -0.10528928417E+02 -0.14892838333E+03  0.19578544175E+03  0.12499894902E+03 0.  0.
          5    1    3    3  501    0 -0.66857335533E+02 -0.19484443682E+02 -0.48764524136E+02  0.85014914423E+02  0.10000000000E+00 0.  1.
         -5    1    3    3    0  501  0.46444588290E+02  0.89555152652E+01 -0.10016385920E+03  0.11077052733E+03  0.10000000000E+00 0.  1.
         21    1    1    2  504  502  0.20412747242E+02  0.10528928417E+02 -0.18904546925E+03  0.19043562699E+03  0.00000000000E+00 0. -1.
<mgrwt>
<rscale>  1 0.12709160E+03</rscale>
<asrwt>0</asrwt>
<pdfrwt beam="1">  1       21 0.37113243E-02 0.12709160E+03</pdfrwt>
<pdfrwt beam="2">  1       21 0.55707303E-01 0.12709160E+03</pdfrwt>
<totfact> 0.13478068E+06</totfact>
</mgrwt>
</event>
<event>
 6    1  0.4259848E-002  0.1269018E+03  0.7546771E-02  0.1232127E+00
         21   -1    0    0  503  502  0.00000000000E+00  0.00000000000E+00  0.40518121034E+03  0.40518121034E+03  0.00000000000E+00 0. -1.
         21   -1    0    0  504  503 -0.00000000000E+00 -0.00000000000E+00 -0.27916132082E+03  0.27916132082E+03  0.00000000000E+00 0.  1.
         25    2    1    2    0    0 -0.14523910445E+02 -0.16367621107E+02  0.39478928849E+03  0.41468379716E+03  0.12500090528E+03 0.  0.
          5    1    3    3  501    0 -0.82245162845E+01 -0.55593075876E+02  0.35135376357E+03  0.35581977169E+03  0.10000000000E+00 0.  1.
         -5    1    3    3    0  501 -0.62993941608E+01  0.39225454769E+02  0.43435524924E+02  0.58864025466E+02  0.10000000000E+00 0.  1.
         21    1    1    2  504  502  0.14523910445E+02  0.16367621107E+02 -0.26876939898E+03  0.26965873400E+03  0.00000000000E+00 0.  1.
<mgrwt>
<rscale>  1 0.12690181E+03</rscale>
<asrwt>0</asrwt>
<pdfrwt beam="1">  1       21 0.62335571E-01 0.12690181E+03</pdfrwt>
<pdfrwt beam="2">  1       21 0.42947896E-01 0.12690181E+03</pdfrwt>
<totfact> 0.13053510E+04</totfact>
</mgrwt>
</event>
<event>
 6    1  0.4259848E-002  0.1271398E+03  0.7546771E-02  0.1231763E+00
         21   -1    0    0  504  502  0.00000000000E+00  0.00000000000E+00  0.67205545061E+03  0.67205545061E+03  0.00000000000E+00 0.  1.
         21   -1    0    0  502  503 -0.00000000000E+00 -0.00000000000E+00 -0.48066535066E+02  0.48066535066E+02  0.00000000000E+00 0.  1.
         25    2    1    2    0    0 -0.22634284298E+02 -0.50155838912E+01  0.66281628507E+03  0.67489996082E+03  0.12500824955E+03 0.  0.
          5    1    3    3  501    0 -0.40315301682E+01  0.53675959502E+02  0.17170591132E+03  0.17994524680E+03  0.10000000000E+00 0.  1.
         -5    1    3    3    0  501 -0.18602754130E+02 -0.58691543394E+02  0.49111037375E+03  0.49495471402E+03  0.10000000000E+00 0.  1.
         21    1    1    2  504  503  0.22634284298E+02  0.50155838912E+01 -0.38827369527E+02  0.45222024854E+02  0.00000000000E+00 0.  1.
<mgrwt>
<rscale>  1 0.12713980E+03</rscale>
<asrwt>0</asrwt>
<pdfrwt beam="1">  1       21 0.10339314E+00 0.12713980E+03</pdfrwt>
<pdfrwt beam="2">  1       21 0.73948520E-02 0.12713980E+03</pdfrwt>
<totfact> 0.10720209E+05</totfact>
</mgrwt>
</event>
<event>
 6    1  0.4259848E-002  0.1328519E+03  0.7546771E-02  0.1223284E+00
         21   -1    0    0  503  502  0.00000000000E+00  0.00000000000E+00  0.32301337780E+01  0.32301337780E+01  0.00000000000E+00 0. -1.
         21   -1    0    0  504  503 -0.00000000000E+00 -0.00000000000E+00 -0.26100350022E+04  0.26100350022E+04  0.00000000000E+00 0. -1.
         25    2    1    2    0    0  0.42562618304E+02  0.14601146553E+02 -0.21931319871E+04  0.21971521433E+04  0.12499943154E+03 0.  0.
          5    1    3    3  501    0  0.56477837525E+02  0.24607715078E+02 -0.48035503275E+03  0.48428943129E+03  0.10000000000E+00 0.  1.
         -5    1    3    3    0  501 -0.13915219221E+02 -0.10006568524E+02 -0.17127769543E+04  0.17128627120E+04  0.10000000000E+00 0.  1.
         21    1    1    2  504  502 -0.42562618304E+02 -0.14601146553E+02 -0.41367288133E+03  0.41611299272E+03  0.00000000000E+00 0. -1.
<mgrwt>
<rscale>  1 0.13285190E+03</rscale>
<asrwt>0</asrwt>
<pdfrwt beam="1">  1       21 0.49694484E-03 0.13285190E+03</pdfrwt>
<pdfrwt beam="2">  1       21 0.40154289E+00 0.13285190E+03</pdfrwt>
<totfact> 0.10317215E+05</totfact>
</mgrwt>
</event>
<event>
 6    1  0.4259848E-002  0.1339075E+03  0.7546771E-02  0.1221770E+00
         21   -1    0    0  503  502  0.00000000000E+00  0.00000000000E+00  0.68791902018E+03  0.68791902018E+03  0.00000000000E+00 0. -1.
         21   -1    0    0  504  503 -0.00000000000E+00 -0.00000000000E+00 -0.12522827924E+02  0.12522827924E+02  0.00000000000E+00 0. -1.
         25    2    1    2    0    0 -0.47965119207E+02  0.20704087348E+01  0.55262638027E+03  0.56861861044E+03  0.12500507477E+03 0.  0.
          5    1    3    3  501    0 -0.60931202433E+02 -0.37548027009E+02  0.18061347316E+03  0.19427738533E+03  0.10000000000E+00 0.  1.
         -5    1    3    3    0  501  0.12966083226E+02  0.39618435744E+02  0.37201290711E+03  0.37434122511E+03  0.10000000000E+00 0.  1.
         21    1    1    2  504  502  0.47965119207E+02 -0.20704087348E+01  0.12276981198E+03  0.13182323766E+03  0.00000000000E+00 0. -1.
<mgrwt>
<rscale>  1 0.13390746E+03</rscale>
<asrwt>0</asrwt>
<pdfrwt beam="1">  1       21 0.10583367E+00 0.13390746E+03</pdfrwt>
<pdfrwt beam="2">  1       21 0.19265894E-02 0.13390746E+03</pdfrwt>
<totfact> 0.94378000E+05</totfact>
</mgrwt>
</event>
<event>
 6    1  0.4259848E-002  0.1260794E+03  0.7546771E-02  0.1233392E+00
         21   -1    0    0  503  502  0.00000000000E+00  0.00000000000E+00  0.99949272104E+01  0.99949272104E+01  0.00000000000E+00 0. -1.
         21   -1    0    0  504  503 -0.00000000000E+00 -0.00000000000E+00 -0.15470510007E+04  0.15470510007E+04  0.00000000000E+00 0. -1.
         25    2    1    2    0    0 -0.66423260155E+01  0.15361489039E+02 -0.39011138780E+03  0.40997914352E+03  0.12496362424E+03 0.  0.
          5    1    3    3  501    0 -0.33473528672E+02 -0.35690150549E+02 -0.74435655701E+02  0.89078284714E+02  0.10000000000E+00 0. -1.
         -5    1    3    3    0  501  0.26831202657E+02  0.51051639587E+02 -0.31567573210E+03  0.32090085880E+03  0.10000000000E+00 0. -1.
         21    1    1    2  504  502  0.66423260155E+01 -0.15361489039E+02 -0.11469446857E+04  0.11470667844E+04  0.00000000000E+00 0. -1.
<mgrwt>
<rscale>  1 0.12607935E+03</rscale>
<asrwt>0</asrwt>
<pdfrwt beam="1">  1       21 0.15376802E-02 0.12607935E+03</pdfrwt>
<pdfrwt beam="2">  1       21 0.23800799E+00 0.12607935E+03</pdfrwt>
<totfact> 0.15432965E+05</totfact>
</mgrwt>
</event>
<event>
 6    1  0.4259848E-002  0.1329546E+03  0.7546771E-02  0.1223136E+00
         21   -1    0    0  504  502  0.00000000000E+00  0.00000000000E+00  0.96349514711E+03  0.96349514711E+03  0.00000000000E+00 0. -1.
         21   -1    0    0  502  503 -0.00000000000E+00 -0.00000000000E+00 -0.16897314472E+02  0.16897314472E+02  0.00000000000E+00 0. -1.
         25    2    1    2    0    0 -0.19919131766E+02  0.40697050388E+02  0.91627736401E+03  0.92587317565E+03  0.12499563143E+03 0.  0.
          5    1    3    3  501    0 -0.13373511571E+01  0.12073181687E+02  0.85980114759E+03  0.85988695397E+03  0.10000000000E+00 0. -1.
         -5    1    3    3    0  501 -0.18581780609E+02  0.28623868701E+02  0.56476216423E+02  0.65986221679E+02  0.10000000000E+00 0. -1.
         21    1    1    2  504  503  0.19919131766E+02 -0.40697050388E+02  0.30320468634E+02  0.54519285935E+02  0.00000000000E+00 0. -1.
<mgrwt>
<rscale>  1 0.13295461E+03</rscale>
<asrwt>0</asrwt>
<pdfrwt beam="1">  1       21 0.14822998E+00 0.13295461E+03</pdfrwt>
<pdfrwt beam="2">  1       21 0.25995876E-02 0.13295461E+03</pdfrwt>
<totfact> 0.25255291E+05</totfact>
</mgrwt>
</event>
<event>
 6    1  0.4259848E-002  0.1261828E+03  0.7546771E-02  0.1233232E+00
         21   -1    0    0  503  502  0.00000000000E+00  0.00000000000E+00  0.51737631737E+02  0.51737631737E+02  0.00000000000E+00 0. -1.
         21   -1    0    0  504  503 -0.00000000000E+00 -0.00000000000E+00 -0.10120237346E+03  0.10120237346E+03  0.00000000000E+00 0. -1.
         25    2    1    2    0    0 -0.16968296151E+02 -0.25596983989E+01 -0.36266198375E+02  0.13129106350E+03  0.12501052388E+03 0.  0.
          5    1    3    3  501    0  0.35444753236E+02  0.47143000147E+01  0.29869770571E+02  0.46591505133E+02  0.10000000000E+00 0. -1.
         -5    1    3    3    0  501 -0.52413049387E+02 -0.72739984135E+01 -0.66135968946E+02  0.84699558367E+02  0.10000000000E+00 0. -1.
         21    1    1    2  504  502  0.16968296151E+02  0.25596983989E+01 -0.13198543349E+02  0.21648941700E+02  0.00000000000E+00 0. -1.
<mgrwt>
<rscale>  1 0.12618283E+03</rscale>
<asrwt>0</asrwt>
<pdfrwt beam="1">  1       21 0.79596358E-02 0.12618283E+03</pdfrwt>
<pdfrwt beam="2">  1       21 0.15569596E-01 0.12618283E+03</pdfrwt>
<totfact> 0.43717288E+06</totfact>
</mgrwt>
</event>
<event>
 6    1  0.4259848E-002  0.1264019E+03  0.7546771E-02  0.1232895E+00
         21   -1    0    0  504  502  0.00000000000E+00  0.00000000000E+00  0.11504610823E+02  0.11504610823E+02  0.00000000000E+00 0.  1.
         21   -1    0    0  502  503 -0.00000000000E+00 -0.00000000000E+00 -0.46294162568E+03  0.46294162568E+03  0.00000000000E+00 0.  1.
         25    2    1    2    0    0  0.18363127779E+02 -0.39800175282E+01 -0.37485318288E+03  0.39559112683E+03  0.12499754361E+03 0.  0.
          5    1    3    3  501    0 -0.48337511527E+02 -0.21776127876E+02 -0.11345527083E+03  0.12523107939E+03  0.10000000000E+00 0.  1.
         -5    1    3    3    0  501  0.66700639306E+02  0.17796110348E+02 -0.26139791205E+03  0.27036004744E+03  0.10000000000E+00 0.  1.
         21    1    1    2  504  503 -0.18363127779E+02  0.39800175282E+01 -0.76583831979E+02  0.78855109676E+02  0.00000000000E+00 0. -1.
<mgrwt>
<rscale>  1 0.12640186E+03</rscale>
<asrwt>0</asrwt>
<pdfrwt beam="1">  1       21 0.17699401E-02 0.12640186E+03</pdfrwt>
<pdfrwt beam="2">  1       21 0.71221790E-01 0.12640186E+03</pdfrwt>
<totfact> 0.26611798E+06</totfact>
</mgrwt>
</event>
<event>
 6    1  0.4259848E-002  0.1283847E+03  0.7546771E-02  0.1229872E+00
         21   -1    0    0  504  502  0.00000000000E+00  0.00000000000E+00  0.17728377610E+03  0.17728377610E+03  0.00000000000E+00 0.  1.
         21   -1    0    0  502  503 -0.00000000000E+00 -0.00000000000E+00 -0.63091823071E+02  0.63091823071E+02  0.00000000000E+00 0.  1.
         25    2    1    2    0    0 -0.11174417923E+02 -0.27160052945E+02  0.14777963965E+03  0.19575868775E+03  0.12498042184E+03 0.  0.
          5    1    3    3  501    0  0.91898441028E+00 -0.73190836483E+02  0.12025379404E+03  0.14077900432E+03  0.10000000000E+00 0.  1.
         -5    1    3    3    0  501 -0.12093402333E+02  0.46030783538E+02  0.27525845608E+02  0.54979683425E+02  0.10000000000E+00 0.  1.
         21    1    1    2  504  503  0.11174417923E+02  0.27160052945E+02 -0.33587686622E+02  0.44616911419E+02  0.00000000000E+00 0.  1.
<mgrwt>
<rscale>  1 0.12838474E+03</rscale>
<asrwt>0</asrwt>
<pdfrwt beam="1">  1       21 0.27274427E-01 0.12838474E+03</pdfrwt>
<pdfrwt beam="2">  1       21 0.97064344E-02 0.12838474E+03</pdfrwt>
<totfact> 0.10963747E+06</totfact>
</mgrwt>
</event>
<event>
 6    1  0.4259848E-002  0.1268528E+03  0.7546771E-02  0.1232202E+00
         21   -1    0    0  504  502  0.00000000000E+00  0.00000000000E+00  0.14837113746E+02  0.14837113746E+02  0.00000000000E+00 0.  1.
         21   -1    0    0  502  503 -0.00000000000E+00 -0.00000000000E+00 -0.41597003428E+03  0.41597003428E+03  0.00000000000E+00 0.  1.
         25    2    1    2    0    0  0.10642661635E+02  0.18798414108E+02 -0.27512567192E+03  0.30296164235E+03  0.12499989905E+03 0.  0.
          5    1    3    3  501    0 -0.20919822058E+02  0.35571936967E+02 -0.26145800549E+03  0.26469473038E+03  0.10000000000E+00 0. -1.
         -5    1    3    3    0  501  0.31562483693E+02 -0.16773522859E+02 -0.13667666431E+02  0.38266911969E+02  0.10000000000E+00 0. -1.
         21    1    1    2  504  503 -0.10642661635E+02 -0.18798414108E+02 -0.12600724861E+03  0.12784550568E+03  0.00000000000E+00 0.  1.
<mgrwt>
<rscale>  1 0.12685275E+03</rscale>
<asrwt>0</asrwt>
<pdfrwt beam="1">  1       21 0.22826330E-02 0.12685275E+03</pdfrwt>
<pdfrwt beam="2">  1       21 0.63995387E-01 0.12685275E+03</pdfrwt>
<totfact> 0.22259053E+06</totfact>
</mgrwt>
</event>
<event>
 6    1  0.4259848E-002  0.1259457E+03  0.7546771E-02  0.1233599E+00
         21   -1    0    0  504  502  0.00000000000E+00  0.00000000000E+00  0.51144695133E+02  0.51144695133E+02  0.00000000000E+00 0. -1.
         21   -1    0    0  502  503 -0.00000000000E+00 -0.00000000000E+00 -0.12592454025E+03  0.12592454025E+03  0.00000000000E+00 0. -1.
         25    2    1    2    0    0 -0.19726352124E+01 -0.15249059794E+02 -0.29645535381E+02  0.12938767679E+03  0.12500355204E+03 0.  0.
          5    1    3    3  501    0  0.19253157648E+02 -0.67067813959E+02 -0.13088286699E+02  0.70993584199E+02  0.10000000000E+00 0.  1.
         -5    1    3    3    0  501 -0.21225792861E+02  0.51818754165E+02 -0.16557248681E+02  0.58394092592E+02  0.10000000000E+00 0.  1.
         21    1    1    2  504  503  0.19726352124E+01  0.15249059794E+02 -0.45134309734E+02  0.47681558589E+02  0.00000000000E+00 0. -1.
<mgrwt>
<rscale>  1 0.12594568E+03</rscale>
<asrwt>0</asrwt>
<pdfrwt beam="1">  1       21 0.78684147E-02 0.12594568E+03</pdfrwt>
<pdfrwt beam="2">  1       21 0.19373006E-01 0.12594568E+03</pdfrwt>
<totfact> 0.29930017E+06</totfact>
</mgrwt>
</event>
<event>
 6    1  0.4259848E-002  0.1291167E+03  0.7546771E-02  0.1228772E+00
         21   -1    0    0  503  502  0.00000000000E+00  0.00000000000E+00  0.25200521938E+03  0.25200521938E+03  0.00000000000E+00 0. -1.
         21   -1    0    0  504  503 -0.00000000000E+00 -0.00000000000E+00 -0.35021728627E+02  0.35021728627E+02  0.00000000000E+00 0. -1.
         25    2    1    2    0    0 -0.29821306059E+02  0.12534343016E+02  0.21941628429E+03  0.25458718021E+03  0.12499882587E+03 0.  0.
          5    1    3    3  501    0 -0.15355764726E+02  0.16811305734E+02 -0.98620853790E+01  0.24813106190E+02  0.10000000000E+00 0. -1.
         -5    1    3    3    0  501 -0.14465541333E+02 -0.42769627175E+01  0.22927836967E+03  0.22977407402E+03  0.10000000000E+00 0. -1.
         21    1    1    2  504  502  0.29821306059E+02 -0.12534343016E+02 -0.24327935377E+01  0.32439767790E+02  0.00000000000E+00 0. -1.
<mgrwt>
<rscale>  1 0.12911672E+03</rscale>
<asrwt>0</asrwt>
<pdfrwt beam="1">  1       21 0.38770033E-01 0.12911672E+03</pdfrwt>
<pdfrwt beam="2">  1       21 0.53879584E-02 0.12911672E+03</pdfrwt>
<totfact> 0.15162469E+06</totfact>
</mgrwt>
</event>
<event>
 6    1  0.4259848E-002  0.1261490E+03  0.7546771E-02  0.1233284E+00
         21   -1    0    0  504  502  0.00000000000E+00  0.00000000000E+00  0.40388434841E+03  0.40388434841E+03  0.00000000000E+00 0. -1.
         21   -1    0    0  502  503 -0.00000000000E+00 -0.00000000000E+00 -0.14012493325E+02  0.14012493325E+02  0.00000000000E+00 0. -1.
         25    2    1    2    0    0  0.13914014925E+02 -0.97403766576E+01  0.28516634320E+03  0.31182272158E+03  0.12500036659E+03 0.  0.
          5    1    3    3  501    0 -0.60735579354E+01  0.34130198128E+01 -0.11902456868E+02  0.13791855921E+02  0.10000000000E+00 0.  1.
         -5    1    3    3    0  501  0.19987572861E+02 -0.13153396470E+02  0.29706880007E+03  0.29803086566E+03  0.10000000000E+00 0.  1.
         21    1    1    2  504  503 -0.13914014925E+02  0.97403766576E+01  0.10470551188E+03  0.10607412016E+03  0.00000000000E+00 0. -1.
<mgrwt>
<rscale>  1 0.12614898E+03</rscale>
<asrwt>0</asrwt>
<pdfrwt beam="1">  1       21 0.62136045E-01 0.12614898E+03</pdfrwt>
<pdfrwt beam="2">  1       21 0.21557685E-02 0.12614898E+03</pdfrwt>
<totfact> 0.26005501E+06</totfact>
</mgrwt>
</event>
<event>
 6    1  0.4259848E-002  0.1271701E+03  0.7546771E-02  0.1231716E+00
         21   -1    0    0  503  502  0.00000000000E+00  0.00000000000E+00  0.74753305426E+02  0.74753305426E+02  0.00000000000E+00 0.  1.
         21   -1    0    0  504  503 -0.00000000000E+00 -0.00000000000E+00 -0.79774510836E+02  0.79774510836E+02  0.00000000000E+00 0.  1.
         25    2    1    2    0    0  0.34737215708E+01 -0.23153499012E+02  0.85659460913E+01  0.12745824028E+03  0.12499630524E+03 0.  0.
          5    1    3    3  501    0 -0.12156954500E+02  0.25601579523E+02  0.52716188664E+02  0.59851808360E+02  0.10000000000E+00 0. -1.
         -5    1    3    3    0  501  0.15630676071E+02 -0.48755078535E+02 -0.44150242572E+02  0.67606431917E+02  0.10000000000E+00 0. -1.
         21    1    1    2  504  502 -0.34737215708E+01  0.23153499012E+02 -0.13587151502E+02  0.27069575985E+02  0.00000000000E+00 0.  1.
<mgrwt>
<rscale>  1 0.12717007E+03</rscale>
<asrwt>0</asrwt>
<pdfrwt beam="1">  1       21 0.11500509E-01 0.12717007E+03</pdfrwt>
<pdfrwt beam="2">  1       21 0.12273002E-01 0.12717007E+03</pdfrwt>
<totfact> 0.35248322E+06</totfact>
</mgrwt>
</event>
<event>
 6    1  0.4259848E-002  0.1276476E+03  0.7546771E-02  0.1230989E+00
         21   -1    0    0  504  502  0.00000000000E+00  0.00000000000E+00  0.12252935371E+04  0.12252935371E+04  0.00000000000E+00 0. -1.
         21   -1    0    0  502  503 -0.00000000000E+00 -0.00000000000E+00 -0.58605927298E+01  0.58605927298E+01  0.00000000000E+00 0. -1.
         25    2    1    2    0    0  0.14093760809E+02 -0.21695571106E+02  0.11499150527E+04  0.11569781959E+04  0.12499834264E+03 0.  0.
          5    1    3    3  501    0  0.16752833896E+02  0.31603599239E+02  0.10947487840E+03  0.11517032573E+03  0.10000000000E+00 0. -1.
         -5    1    3    3    0  501 -0.26590730862E+01 -0.53299170345E+02  0.10404401743E+04  0.10418078702E+04  0.10000000000E+00 0. -1.
         21    1    1    2  504  503 -0.14093760809E+02  0.21695571106E+02  0.69517891696E+02  0.74175933868E+02  0.00000000000E+00 0. -1.
<mgrwt>
<rscale>  1 0.12764763E+03</rscale>
<asrwt>0</asrwt>
<pdfrwt beam="1">  1       21 0.18850649E+00 0.12764763E+03</pdfrwt>
<pdfrwt beam="2">  1       21 0.90163062E-03 0.12764763E+03</pdfrwt>
<totfact> 0.72009230E+05</totfact>
</mgrwt>
</event>
<event>
 6    1  0.4259848E-002  0.1827338E+03  0.7546771E-02  0.1165183E+00
         21   -1    0    0  503  502  0.00000000000E+00  0.00000000000E+00  0.23758545832E+03  0.23758545832E+03  0.00000000000E+00 0. -1.
         21   -1    0    0  504  503 -0.00000000000E+00 -0.00000000000E+00 -0.59213342689E+03  0.59213342689E+03  0.00000000000E+00 0. -1.
         25    2    1    2    0    0 -0.12651540216E+03  0.41954416701E+02  0.19323427005E+03  0.26595324152E+03  0.12500129394E+03 0.  0.
          5    1    3    3  501    0 -0.60572956264E+02  0.47209671677E+02  0.18371442637E+03  0.19912015616E+03  0.10000000000E+00 0. -1.
         -5    1    3    3    0  501 -0.65942445892E+02 -0.52552549762E+01  0.95198436821E+01  0.66833085361E+02  0.10000000000E+00 0. -1.
         21    1    1    2  504  502  0.12651540216E+03 -0.41954416701E+02 -0.54778223862E+03  0.56376564369E+03  0.00000000000E+00 0. -1.
<mgrwt>
<rscale>  1 0.18273381E+03</rscale>
<asrwt>0</asrwt>
<pdfrwt beam="1">  1       21 0.36551609E-01 0.18273381E+03</pdfrwt>
<pdfrwt beam="2">  1       21 0.91097449E-01 0.18273381E+03</pdfrwt>
<totfact> 0.74281029E+03</totfact>
</mgrwt>
</event>
<event>
 6    1  0.4259848E-002  0.1340931E+03  0.7546771E-02  0.1221506E+00
         21   -1    0    0  504  502  0.00000000000E+00  0.00000000000E+00  0.27862557222E+02  0.27862557222E+02  0.00000000000E+00 0.  1.
         21   -1    0    0  502  503 -0.00000000000E+00 -0.00000000000E+00 -0.44392546014E+03  0.44392546014E+03  0.00000000000E+00 0. -1.
         25    2    1    2    0    0 -0.47660768252E+02  0.91646131032E+01 -0.14943132277E+03  0.20077521601E+03  0.12500171269E+03 0.  0.
          5    1    3    3  501    0 -0.83375277650E+02  0.32335968720E+02 -0.11697213541E+03  0.14723974416E+03  0.10000000000E+00 0. -1.
         -5    1    3    3    0  501  0.35714509398E+02 -0.23171355617E+02 -0.32459187353E+02  0.53535471851E+02  0.10000000000E+00 0. -1.
         21    1    1    2  504  503  0.47660768252E+02 -0.91646131032E+01 -0.26663158015E+03  0.27101280135E+03  0.00000000000E+00 0. -1.
<mgrwt>
<rscale>  1 0.13409313E+03</rscale>
<asrwt>0</asrwt>
<pdfrwt beam="1">  1       21 0.42865477E-02 0.13409313E+03</pdfrwt>
<pdfrwt beam="2">  1       21 0.68296218E-01 0.13409313E+03</pdfrwt>
<totfact> 0.68685859E+05</totfact>
</mgrwt>
</event>
<event>
 6    1  0.4259848E-002  0.1398404E+03  0.7546771E-02  0.1213544E+00
         21   -1    0    0  503  502  0.00000000000E+00  0.00000000000E+00  0.61413607226E+02  0.61413607226E+02  0.00000000000E+00 0.  1.
         21   -1    0    0  504  503 -0.00000000000E+00 -0.00000000000E+00 -0.29046881594E+03  0.29046881594E+03  0.00000000000E+00 0.  1.
         25    2    1    2    0    0  0.17453143527E+01 -0.62662184892E+02 -0.29774830746E+02  0.14297511219E+03  0.12500298645E+03 0.  0.
          5    1    3    3  501    0 -0.61460955390E+02 -0.26305030562E+02 -0.11986463055E+02  0.67919724432E+02  0.10000000000E+00 0. -1.
         -5    1    3    3    0  501  0.63206269743E+02 -0.36357154330E+02 -0.17788367691E+02  0.75055387754E+02  0.10000000000E+00 0. -1.
         21    1    1    2  504  502 -0.17453143527E+01  0.62662184892E+02 -0.19928037796E+03  0.20890731098E+03  0.00000000000E+00 0.  1.
<mgrwt>
<rscale>  1 0.13984042E+03</rscale>
<asrwt>0</asrwt>
<pdfrwt beam="1">  1       21 0.94482471E-02 0.13984042E+03</pdfrwt>
<pdfrwt beam="2">  1       21 0.44687511E-01 0.13984042E+03</pdfrwt>
<totfact> 0.43485703E+05</totfact>
</mgrwt>
</event>
<event>
 6    1  0.4259848E-002  0.1265633E+03  0.7546771E-02  0.1232646E+00
         21   -1    0    0  504  502  0.00000000000E+00  0.00000000000E+00  0.76765092936E+02  0.76765092936E+02  0.00000000000E+00 0.  1.
         21   -1    0    0  502  503 -0.00000000000E+00 -0.00000000000E+00 -0.22614425447E+03  0.22614425447E+03  0.00000000000E+00 0. -1.
         25    2    1    2    0    0 -0.18980325197E+02 -0.57772023143E+01  0.23643581306E+02  0.12875281336E+03  0.12499855679E+03 0.  0.
          5    1    3    3  501    0 -0.61000618553E+02  0.29886066027E+02 -0.20156075966E+01  0.67958259840E+02  0.10000000000E+00 0.  1.
         -5    1    3    3    0  501  0.42020293356E+02 -0.35663268341E+02  0.25659188903E+02  0.60794553520E+02  0.10000000000E+00 0.  1.
         21    1    1    2  504  503  0.18980325197E+02  0.57772023143E+01 -0.17302274284E+03  0.17415653405E+03  0.00000000000E+00 0. -1.
<mgrwt>
<rscale>  1 0.12656330E+03</rscale>
<asrwt>0</asrwt>
<pdfrwt beam="1">  1       21 0.11810014E-01 0.12656330E+03</pdfrwt>
<pdfrwt beam="2">  1       21 0.34791424E-01 0.12656330E+03</pdfrwt>
<totfact> 0.48502926E+05</totfact>
</mgrwt>
</event>
<event>
 6    1  0.4259848E-002  0.1265245E+03  0.7546771E-02  0.1232706E+00
         21   -1    0    0  504  502  0.00000000000E+00  0.00000000000E+00  0.13786455013E+03  0.13786455013E+03  0.00000000000E+00 0.  1.
         21   -1    0    0  502  503 -0.00000000000E+00 -0.00000000000E+00 -0.48600429874E+02  0.48600429874E+02  0.00000000000E+00 0.  1.
         25    2    1    2    0    0  0.37710579334E+01 -0.19197988063E+02  0.10250857556E+03  0.16283873993E+03  0.12500265411E+03 0.  0.
          5    1    3    3  501    0 -0.57349256504E+02 -0.29548501807E+02  0.53717941917E+02  0.83950452437E+02  0.10000000000E+00 0.  1.
         -5    1    3    3    0  501  0.61120314437E+02  0.10350513744E+02  0.48790633642E+02  0.78888287488E+02  0.10000000000E+00 0.  1.
         21    1    1    2  504  503 -0.37710579334E+01  0.19197988063E+02 -0.13244455309E+02  0.23626240074E+02  0.00000000000E+00 0.  1.
<mgrwt>
<rscale>  1 0.12652449E+03</rscale>
<asrwt>0</asrwt>
<pdfrwt beam="1">  1       21 0.21209931E-01 0.12652449E+03</pdfrwt>
<pdfrwt beam="2">  1       21 0.74769893E-02 0.12652449E+03</pdfrwt>
<totfact> 0.27636161E+06</totfact>
</mgrwt>
</event>
<event>
 6    1  0.4259848E-002  0.1307162E+03  0.7546771E-02  0.1226397E+00
         21   -1    0    0  504  502  0.00000000000E+00  0.00000000000E+00  0.35127162203E+03  0.35127162203E+03  0.00000000000E+00 0.  1.
         21   -1    0    0  502  503 -0.00000000000E+00 -0.00000000000E+00 -0.93020892301E+02  0.93020892301E+02  0.00000000000E+00 0.  1.
         25    2    1    2    0    0  0.10147063754E+02  0.36861520861E+02  0.33442397142E+03  0.35906284009E+03  0.12499998340E+03 0.  0.
          5    1    3    3  501    0 -0.24501035487E+01 -0.22929209925E+02  0.26729858473E+03  0.26829143682E+03  0.10000000000E+00 0.  1.
         -5    1    3    3    0  501  0.12597167303E+02  0.59790730786E+02  0.67125386688E+02  0.90771403262E+02  0.10000000000E+00 0.  1.
         21    1    1    2  504  503 -0.10147063754E+02 -0.36861520861E+02 -0.76173241687E+02  0.85229674246E+02  0.00000000000E+00 0.  1.
<mgrwt>
<rscale>  1 0.13071622E+03</rscale>
<asrwt>0</asrwt>
<pdfrwt beam="1">  1       21 0.54041787E-01 0.13071622E+03</pdfrwt>
<pdfrwt beam="2">  1       21 0.14310907E-01 0.13071622E+03</pdfrwt>
<totfact> 0.14122968E+05</totfact>
</mgrwt>
</event>
<event>
 6    1  0.4259848E-002  0.1382116E+03  0.7546771E-02  0.1215756E+00
         21   -1    0    0  504  502  0.00000000000E+00  0.00000000000E+00  0.88197775480E+02  0.88197775480E+02  0.00000000000E+00 0.  1.
         21   -1    0    0  502  503 -0.00000000000E+00 -0.00000000000E+00 -0.32433786995E+03  0.32433786995E+03  0.00000000000E+00 0. -1.
         25    2    1    2    0    0 -0.54972686999E+02  0.21424127114E+02  0.28736664726E+02  0.14116746914E+03  0.12498587483E+03 0.  0.
          5    1    3    3  501    0 -0.34296153439E+02 -0.12917526773E+02 -0.44517907353E+02  0.57662316236E+02  0.10000000000E+00 0.  1.
         -5    1    3    3    0  501 -0.20676533560E+02  0.34341653888E+02  0.73254572079E+02  0.83505152909E+02  0.10000000000E+00 0.  1.
         21    1    1    2  504  503  0.54972686999E+02 -0.21424127114E+02 -0.26487675919E+03  0.27136817628E+03  0.00000000000E+00 0. -1.
<mgrwt>
<rscale>  1 0.13821164E+03</rscale>
<asrwt>0</asrwt>
<pdfrwt beam="1">  1       21 0.13568888E-01 0.13821164E+03</pdfrwt>
<pdfrwt beam="2">  1       21 0.49898135E-01 0.13821164E+03</pdfrwt>
<totfact> 0.18296291E+05</totfact>
</mgrwt>
</event>
<event>
 6    1  0.4259848E-002  0.1350611E+03  0.7546771E-02  0.1220134E+00
         21   -1    0    0  504  502  0.00000000000E+00  0.00000000000E+00  0.88380818503E+03  0.88380818503E+03  0.00000000000E+00 0.  1.
         21   -1    0    0  502  503 -0.00000000000E+00 -0.00000000000E+00 -0.45091566281E+02  0.45091566281E+02  0.00000000000E+00 0.  1.
         25    2    1    2    0    0 -0.50227015959E+02  0.96602067806E+01  0.86213200403E+03  0.87264716919E+03  0.12500166715E+03 0.  0.
          5    1    3    3  501    0 -0.23777782367E+02 -0.44740952210E+02  0.65244748266E+03  0.65441184537E+03  0.10000000000E+00 0.  1.
         -5    1    3    3    0  501 -0.26449233592E+02  0.54401158990E+02  0.20968452137E+03  0.21823532382E+03  0.10000000000E+00 0.  1.
         21    1    1    2  504  503  0.50227015959E+02 -0.96602067806E+01 -0.23415385284E+02  0.56252582120E+02  0.00000000000E+00 0.  1.
<mgrwt>
<rscale>  1 0.13506106E+03</rscale>
<asrwt>0</asrwt>
<pdfrwt beam="1">  1       21 0.13597048E+00 0.13506106E+03</pdfrwt>
<pdfrwt beam="2">  1       21 0.69371647E-02 0.13506106E+03</pdfrwt>
<totfact> 0.61147238E+04</totfact>
</mgrwt>
</event>
<event>
 6    1  0.4259848E-002  0.1266897E+03  0.7546771E-02  0.1232452E+00
         21   -1    0    0  503  502  0.00000000000E+00  0.00000000000E+00  0.53012464145E+02  0.53012464145E+02  0.00000000000E+00 0. -1.
         21   -1    0    0  504  503 -0.00000000000E+00 -0.00000000000E+00 -0.10238146226E+03  0.10238146226E+03  0.00000000000E+00 0. -1.
         25    2    1    2    0    0 -0.20153109921E+02  0.42340247828E+01 -0.40909867373E+02  0.13313113911E+03  0.12500483249E+03 0.  0.
          5    1    3    3  501    0 -0.43391638437E+02  0.26861112479E+02  0.27100522395E+02  0.57782367241E+02  0.10000000000E+00 0.  1.
         -5    1    3    3    0  501  0.23238528516E+02 -0.22627087696E+02 -0.68010389768E+02  0.75348771865E+02  0.10000000000E+00 0.  1.
         21    1    1    2  504  502  0.20153109921E+02 -0.42340247828E+01 -0.84591307413E+01  0.22262787297E+02  0.00000000000E+00 0. -1.
<mgrwt>
<rscale>  1 0.12668971E+03</rscale>
<asrwt>0</asrwt>
<pdfrwt beam="1">  1       21 0.81557638E-02 0.12668971E+03</pdfrwt>
<pdfrwt beam="2">  1       21 0.15750994E-01 0.12668971E+03</pdfrwt>
<totfact> 0.41059837E+06</totfact>
</mgrwt>
</event>
<event>
 6    1  0.4259848E-002  0.1272887E+03  0.7546771E-02  0.1231535E+00
         21   -1    0    0  504  502  0.00000000000E+00  0.00000000000E+00  0.43071660758E+02  0.43071660758E+02  0.00000000000E+00 0.  1.
         21   -1    0    0  502  503 -0.00000000000E+00 -0.00000000000E+00 -0.13751308413E+03  0.13751308413E+03  0.00000000000E+00 0.  1.
         25    2    1    2    0    0  0.11351510534E+02 -0.21168652793E+02 -0.66081859997E+02  0.14341979517E+03  0.12500182709E+03 0.  0.
          5    1    3    3  501    0 -0.37350683402E+01  0.44153622577E+02  0.63034192663E+01  0.44757526927E+02  0.10000000000E+00 0. -1.
         -5    1    3    3    0  501  0.15086578874E+02 -0.65322275370E+02 -0.72385279263E+02  0.98662268247E+02  0.10000000000E+00 0. -1.
         21    1    1    2  504  503 -0.11351510534E+02  0.21168652793E+02 -0.28359563375E+02  0.37164949715E+02  0.00000000000E+00 0.  1.
<mgrwt>
<rscale>  1 0.12728875E+03</rscale>
<asrwt>0</asrwt>
<pdfrwt beam="1">  1       21 0.66264093E-02 0.12728875E+03</pdfrwt>
<pdfrwt beam="2">  1       21 0.21155859E-01 0.12728875E+03</pdfrwt>
<totfact> 0.34147204E+06</totfact>
</mgrwt>
</event>
<event>
 6    1  0.4259848E-002  0.1292802E+03  0.7546771E-02  0.1228528E+00
         21   -1    0    0  503  502  0.00000000000E+00  0.00000000000E+00  0.15624709429E+02  0.15624709429E+02  0.00000000000E+00 0.  1.
         21   -1    0    0  504  503 -0.00000000000E+00 -0.00000000000E+00 -0.11573278950E+04  0.11573278950E+04  0.00000000000E+00 0.  1.
         25    2    1    2    0    0  0.76913311083E+01 -0.32068543190E+02 -0.25746793146E+03  0.28810259869E+03  0.12500329438E+03 0.  0.
          5    1    3    3  501    0  0.32547394205E+01 -0.74416965902E+02 -0.98281304864E+02  0.12331951601E+03  0.10000000000E+00 0. -1.
         -5    1    3    3    0  501  0.44365916879E+01  0.42348422713E+02 -0.15918662660E+03  0.16478308269E+03  0.10000000000E+00 0. -1.
         21    1    1    2  504  502 -0.76913311083E+01  0.32068543190E+02 -0.88423525415E+03  0.88485000577E+03  0.00000000000E+00 0.  1.
<mgrwt>
<rscale>  1 0.12928021E+03</rscale>
<asrwt>0</asrwt>
<pdfrwt beam="1">  1       21 0.24038013E-02 0.12928021E+03</pdfrwt>
<pdfrwt beam="2">  1       21 0.17805046E+00 0.12928021E+03</pdfrwt>
<totfact> 0.17629833E+05</totfact>
</mgrwt>
</event>
<event>
 6    1  0.4259848E-002  0.1262438E+03  0.7546771E-02  0.1233138E+00
         21   -1    0    0  503  502  0.00000000000E+00  0.00000000000E+00  0.22995064154E+02  0.22995064154E+02  0.00000000000E+00 0.  1.
         21   -1    0    0  504  503 -0.00000000000E+00 -0.00000000000E+00 -0.32484033432E+03  0.32484033432E+03  0.00000000000E+00 0.  1.
         25    2    1    2    0    0 -0.97937305123E+01 -0.14691898995E+02 -0.15487973062E+03  0.19981297157E+03  0.12500289435E+03 0.  0.
          5    1    3    3  501    0 -0.16325590143E+02 -0.68084202056E+02 -0.67817736790E+02  0.97474298595E+02  0.10000000000E+00 0.  1.
         -5    1    3    3    0  501  0.65318596304E+01  0.53392303061E+02 -0.87061993834E+02  0.10233867298E+03  0.10000000000E+00 0.  1.
         21    1    1    2  504  502  0.97937305123E+01  0.14691898995E+02 -0.14696553954E+03  0.14802242690E+03  0.00000000000E+00 0.  1.
<mgrwt>
<rscale>  1 0.12624378E+03</rscale>
<asrwt>0</asrwt>
<pdfrwt beam="1">  1       21 0.35377023E-02 0.12624378E+03</pdfrwt>
<pdfrwt beam="2">  1       21 0.49975434E-01 0.12624378E+03</pdfrwt>
<totfact> 0.18280698E+06</totfact>
</mgrwt>
</event>
<event>
 6    1  0.4259848E-002  0.1304094E+03  0.7546771E-02  0.1226850E+00
         21   -1    0    0  504  502  0.00000000000E+00  0.00000000000E+00  0.44569095606E+03  0.44569095606E+03  0.00000000000E+00 0.  1.
         21   -1    0    0  502  503 -0.00000000000E+00 -0.00000000000E+00 -0.25184565645E+03  0.25184565645E+03  0.00000000000E+00 0.  1.
         25    2    1    2    0    0 -0.18076258500E+02  0.32494883984E+02  0.43469410532E+03  0.45383430268E+03  0.12499576187E+03 0.  0.
          5    1    3    3  501    0  0.17662325494E+02  0.52062824450E+02  0.81571419637E+02  0.98368704033E+02  0.10000000000E+00 0.  1.
         -5    1    3    3    0  501 -0.35738583993E+02 -0.19567940466E+02  0.35312268568E+03  0.35546559865E+03  0.10000000000E+00 0.  1.
         21    1    1    2  504  503  0.18076258500E+02 -0.32494883984E+02 -0.24084880571E+03  0.24370230983E+03  0.00000000000E+00 0.  1.
<mgrwt>
<rscale>  1 0.13040939E+03</rscale>
<asrwt>0</asrwt>
<pdfrwt beam="1">  1       21 0.68567839E-01 0.13040939E+03</pdfrwt>
<pdfrwt beam="2">  1       21 0.38745486E-01 0.13040939E+03</pdfrwt>
<totfact> 0.13029157E+04</totfact>
</mgrwt>
</event>
<event>
 6    1  0.4259848E-002  0.1262330E+03  0.7546771E-02  0.1233155E+00
         21   -1    0    0  504  502  0.00000000000E+00  0.00000000000E+00  0.52029243333E+02  0.52029243333E+02  0.00000000000E+00 0.  1.
         21   -1    0    0  502  503 -0.00000000000E+00 -0.00000000000E+00 -0.16605288489E+03  0.16605288489E+03  0.00000000000E+00 0.  1.
         25    2    1    2    0    0 -0.68991658140E+01  0.16230396033E+02 -0.26739364732E+02  0.12903399952E+03  0.12499502055E+03 0.  0.
          5    1    3    3  501    0  0.96651343786E+01  0.68910932177E+02 -0.24474723303E+02  0.73764174752E+02  0.10000000000E+00 0. -1.
         -5    1    3    3    0  501 -0.16564300193E+02 -0.52680536144E+02 -0.22646414287E+01  0.55269824770E+02  0.10000000000E+00 0. -1.
         21    1    1    2  504  503  0.68991658140E+01 -0.16230396033E+02 -0.87284276826E+02  0.89048128702E+02  0.00000000000E+00 0.  1.
<mgrwt>
<rscale>  1 0.12623304E+03</rscale>
<asrwt>0</asrwt>
<pdfrwt beam="1">  1       21 0.80044992E-02 0.12623304E+03</pdfrwt>
<pdfrwt beam="2">  1       21 0.25546597E-01 0.12623304E+03</pdfrwt>
<totfact> 0.17338953E+06</totfact>
</mgrwt>
</event>
<event>
 6    1  0.4259848E-002  0.1272149E+03  0.7546771E-02  0.1231648E+00
         21   -1    0    0  503  502  0.00000000000E+00  0.00000000000E+00  0.89250821701E+02  0.89250821701E+02  0.00000000000E+00 0. -1.
         21   -1    0    0  504  503 -0.00000000000E+00 -0.00000000000E+00 -0.85683997444E+02  0.85683997444E+02  0.00000000000E+00 0. -1.
         25    2    1    2    0    0 -0.22966476676E+02 -0.57774854601E+01  0.38336842886E+02  0.13286591632E+03  0.12499119893E+03 0.  0.
          5    1    3    3  501    0 -0.31707018052E+02 -0.61429278462E+02  0.31999253048E+02  0.76176462518E+02  0.10000000000E+00 0.  1.
         -5    1    3    3    0  501  0.87405413758E+01  0.55651793002E+02  0.63375898379E+01  0.56689453806E+02  0.10000000000E+00 0.  1.
         21    1    1    2  504  502  0.22966476676E+02  0.57774854601E+01 -0.34770018629E+02  0.42068902821E+02  0.00000000000E+00 0.  1.
<mgrwt>
<rscale>  1 0.12721493E+03</rscale>
<asrwt>0</asrwt>
<pdfrwt beam="1">  1       21 0.13730896E-01 0.12721493E+03</pdfrwt>
<pdfrwt beam="2">  1       21 0.13182154E-01 0.12721493E+03</pdfrwt>
<totfact> 0.22653277E+06</totfact>
</mgrwt>
</event>
<event>
 6    1  0.4259848E-002  0.1446454E+03  0.7546771E-02  0.1207211E+00
         21   -1    0    0  503  502  0.00000000000E+00  0.00000000000E+00  0.37844755459E+02  0.37844755459E+02  0.00000000000E+00 0. -1.
         21   -1    0    0  504  503 -0.00000000000E+00 -0.00000000000E+00 -0.32400330136E+03  0.32400330136E+03  0.00000000000E+00 0. -1.
         25    2    1    2    0    0  0.72415591458E+02 -0.72777508307E+01 -0.22120137498E+03  0.26429592923E+03  0.12500122548E+03 0.  0.
          5    1    3    3  501    0  0.10732744263E+03  0.54586068656E+01 -0.16609738552E+03  0.19783156423E+03  0.10000000000E+00 0.  1.
         -5    1    3    3    0  501 -0.34911851174E+02 -0.12736357696E+02 -0.55103989456E+02  0.66464364992E+02  0.10000000000E+00 0.  1.
         21    1    1    2  504  502 -0.72415591458E+02  0.72777508307E+01 -0.64957170925E+02  0.97552127593E+02  0.00000000000E+00 0. -1.
<mgrwt>
<rscale>  1 0.14464539E+03</rscale>
<asrwt>0</asrwt>
<pdfrwt beam="1">  1       21 0.58222702E-02 0.14464539E+03</pdfrwt>
<pdfrwt beam="2">  1       21 0.49846661E-01 0.14464539E+03</pdfrwt>
<totfact> 0.79931699E+05</totfact>
</mgrwt>
</event>
<event>
 6    1  0.4259848E-002  0.1386809E+03  0.7546771E-02  0.1215115E+00
         21   -1    0    0  503  502  0.00000000000E+00  0.00000000000E+00  0.46969373824E+02  0.46969373824E+02  0.00000000000E+00 0. -1.
         21   -1    0    0  504  503 -0.00000000000E+00 -0.00000000000E+00 -0.32653648692E+03  0.32653648692E+03  0.00000000000E+00 0. -1.
         25    2    1    2    0    0  0.47286376974E+02 -0.37047189347E+02 -0.69700365272E+02  0.15521122607E+03  0.12499555229E+03 0.  0.
          5    1    3    3  501    0  0.48129987680E+02 -0.42462450657E+02 -0.10305565125E+03  0.12140853629E+03  0.10000000000E+00 0.  1.
         -5    1    3    3    0  501 -0.84361070539E+00  0.54152613098E+01  0.33355285974E+02  0.33802689781E+02  0.10000000000E+00 0.  1.
         21    1    1    2  504  502 -0.47286376974E+02  0.37047189347E+02 -0.20986674783E+03  0.21829463468E+03  0.00000000000E+00 0. -1.
<mgrwt>
<rscale>  1 0.13868087E+03</rscale>
<asrwt>0</asrwt>
<pdfrwt beam="1">  1       21 0.72260578E-02 0.13868087E+03</pdfrwt>
<pdfrwt beam="2">  1       21 0.50236381E-01 0.13868087E+03</pdfrwt>
<totfact> 0.54413938E+05</totfact>
</mgrwt>
</event>
<event>
 6    1  0.4259848E-002  0.1322369E+03  0.7546771E-02  0.1224174E+00
         21   -1    0    0  503  502  0.00000000000E+00  0.00000000000E+00  0.17153548856E+03  0.17153548856E+03  0.00000000000E+00 0.  1.
         21   -1    0    0  504  503 -0.00000000000E+00 -0.00000000000E+00 -0.48561251865E+02  0.48561251865E+02  0.00000000000E+00 0.  1.
         25    2    1    2    0    0 -0.43101085265E+02  0.76470629952E+00  0.11702035833E+03  0.17657965189E+03  0.12501328278E+03 0.  0.
          5    1    3    3  501    0 -0.60544448009E+01  0.29783636679E+01  0.13512005520E+03  0.13528845579E+03  0.10000000000E+00 0. -1.
         -5    1    3    3    0  501 -0.37046640464E+02 -0.22136573684E+01 -0.18099696870E+02  0.41291196101E+02  0.10000000000E+00 0. -1.
         21    1    1    2  504  502  0.43101085265E+02 -0.76470629952E+00  0.59538783604E+01  0.43517088532E+02  0.00000000000E+00 0.  1.
<mgrwt>
<rscale>  1 0.13223694E+03</rscale>
<asrwt>0</asrwt>
<pdfrwt beam="1">  1       21 0.26390075E-01 0.13223694E+03</pdfrwt>
<pdfrwt beam="2">  1       21 0.74709619E-02 0.13223694E+03</pdfrwt>
<totfact> 0.18378307E+06</totfact>
</mgrwt>
</event>
<event>
 6    1  0.4259848E-002  0.1292134E+03  0.7546771E-02  0.1228628E+00
         21   -1    0    0  503  502  0.00000000000E+00  0.00000000000E+00  0.34611048963E+03  0.34611048963E+03  0.00000000000E+00 0.  1.
         21   -1    0    0  504  503 -0.00000000000E+00 -0.00000000000E+00 -0.22629678793E+02  0.22629678793E+02  0.00000000000E+00 0.  1.
         25    2    1    2    0    0  0.32641515916E+02 -0.21537453576E+01  0.30482793379E+03  0.33108333634E+03  0.12500399675E+03 0.  0.
          5    1    3    3  501    0 -0.27787057930E+02 -0.45816725731E+02  0.14892711968E+03  0.15827378153E+03  0.10000000000E+00 0.  1.
         -5    1    3    3    0  501  0.60428573846E+02  0.43662980373E+02  0.15590081411E+03  0.17280955481E+03  0.10000000000E+00 0.  1.
         21    1    1    2  504  502 -0.32641515916E+02  0.21537453576E+01  0.18652877048E+02  0.37656832083E+02  0.00000000000E+00 0.  1.
<mgrwt>
<rscale>  1 0.12921341E+03</rscale>
<asrwt>0</asrwt>
<pdfrwt beam="1">  1       21 0.53247764E-01 0.12921341E+03</pdfrwt>
<pdfrwt beam="2">  1       21 0.34814893E-02 0.12921341E+03</pdfrwt>
<totfact> 0.16466675E+06</totfact>
</mgrwt>
</event>
<event>
 6    1  0.4259848E-002  0.1298443E+03  0.7546771E-02  0.1227687E+00
         21   -1    0    0  503  502  0.00000000000E+00  0.00000000000E+00  0.54286226279E+02  0.54286226279E+02  0.00000000000E+00 0.  1.
         21   -1    0    0  504  503 -0.00000000000E+00 -0.00000000000E+00 -0.29213271181E+03  0.29213271181E+03  0.00000000000E+00 0.  1.
         25    2    1    2    0    0 -0.30012884280E+02 -0.18239856503E+02 -0.26941668779E+02  0.13260989404E+03  0.12500425950E+03 0.  0.
          5    1    3    3  501    0 -0.76377080942E+02 -0.18754673453E+02  0.66050268096E+00  0.78648855893E+02  0.10000000000E+00 0. -1.
         -5    1    3    3    0  501  0.46364196662E+02  0.51481694951E+00 -0.27602171460E+02  0.53961038147E+02  0.10000000000E+00 0. -1.
         21    1    1    2  504  502  0.30012884280E+02  0.18239856503E+02 -0.21090481675E+03  0.21380904405E+03  0.00000000000E+00 0.  1.
<mgrwt>
<rscale>  1 0.12984425E+03</rscale>
<asrwt>0</asrwt>
<pdfrwt beam="1">  1       21 0.83517270E-02 0.12984425E+03</pdfrwt>
<pdfrwt beam="2">  1       21 0.44943495E-01 0.12984425E+03</pdfrwt>
<totfact> 0.53311735E+05</totfact>
</mgrwt>
</event>
<event>
 6    1  0.4259848E-002  0.1312397E+03  0.7546771E-02  0.1225628E+00
         21   -1    0    0  503  502  0.00000000000E+00  0.00000000000E+00  0.86774063010E+02  0.86774063010E+02  0.00000000000E+00 0.  1.
         21   -1    0    0  504  503 -0.00000000000E+00 -0.00000000000E+00 -0.11707231216E+03  0.11707231216E+03  0.00000000000E+00 0. -1.
         25    2    1    2    0    0  0.38045955725E+02 -0.12230123239E+02  0.26999965719E+02  0.13398826119E+03  0.12500714110E+03 0.  0.
          5    1    3    3  501    0  0.48822502229E+00 -0.52653894842E+02 -0.24891019206E+02  0.58242972475E+02  0.10000000000E+00 0. -1.
         -5    1    3    3    0  501  0.37557730703E+02  0.40423771602E+02  0.51890984924E+02  0.75745288715E+02  0.10000000000E+00 0. -1.
         21    1    1    2  504  502 -0.38045955725E+02  0.12230123239E+02 -0.57298214864E+02  0.69858113975E+02  0.00000000000E+00 0. -1.
<mgrwt>
<rscale>  1 0.13123969E+03</rscale>
<asrwt>0</asrwt>
<pdfrwt beam="1">  1       21 0.13349856E-01 0.13123969E+03</pdfrwt>
<pdfrwt beam="2">  1       21 0.18011125E-01 0.13123969E+03</pdfrwt>
<totfact> 0.13563774E+06</totfact>
</mgrwt>
</event>
<event>
 6    1  0.4259848E-002  0.1260712E+03  0.7546771E-02  0.1233405E+00
         21   -1    0    0  503  502  0.00000000000E+00  0.00000000000E+00  0.13464834841E+02  0.13464834841E+02  0.00000000000E+00 0. -1.
         21   -1    0    0  504  503 -0.00000000000E+00 -0.00000000000E+00 -0.88735363209E+03  0.88735363209E+03  0.00000000000E+00 0. -1.
         25    2    1    2    0    0 -0.97903687263E+01  0.13175871533E+02 -0.28427534853E+03  0.31097656115E+03  0.12499797154E+03 0.  0.
          5    1    3    3  501    0 -0.14429614173E+02 -0.54926918729E+01  0.84627176604E+01  0.17607129789E+02  0.10000000000E+00 0. -1.
         -5    1    3    3    0  501  0.46392454471E+01  0.18668563406E+02 -0.29273806619E+03  0.29336943136E+03  0.10000000000E+00 0. -1.
         21    1    1    2  504  502  0.97903687263E+01 -0.13175871533E+02 -0.58961344872E+03  0.58984190579E+03  0.00000000000E+00 0. -1.
<mgrwt>
<rscale>  1 0.12607120E+03</rscale>
<asrwt>0</asrwt>
<pdfrwt beam="1">  1       21 0.20715131E-02 0.12607120E+03</pdfrwt>
<pdfrwt beam="2">  1       21 0.13651594E+00 0.12607120E+03</pdfrwt>
<totfact> 0.45151070E+05</totfact>
</mgrwt>
</event>
<event>
 6    1  0.4259848E-002  0.1276174E+03  0.7546771E-02  0.1231035E+00
         21   -1    0    0  504  502  0.00000000000E+00  0.00000000000E+00  0.27161562950E+02  0.27161562950E+02  0.00000000000E+00 0.  1.
         21   -1    0    0  502  503 -0.00000000000E+00 -0.00000000000E+00 -0.23985319129E+03  0.23985319129E+03  0.00000000000E+00 0.  1.
         25    2    1    2    0    0 -0.20648961941E+01  0.25599049595E+02 -0.13768010645E+03  0.18772854136E+03  0.12500647341E+03 0.  0.
          5    1    3    3  501    0  0.54205038181E+01  0.61453164486E+02 -0.13793273709E+03  0.15110037474E+03  0.10000000000E+00 0.  1.
         -5    1    3    3    0  501 -0.74854000123E+01 -0.35854114891E+02  0.25263063117E+00  0.36628166624E+02  0.10000000000E+00 0.  1.
         21    1    1    2  504  503  0.20648961941E+01 -0.25599049595E+02 -0.75011521887E+02  0.79286212877E+02  0.00000000000E+00 0.  1.
<mgrwt>
<rscale>  1 0.12761737E+03</rscale>
<asrwt>0</asrwt>
<pdfrwt beam="1">  1       21 0.41787018E-02 0.12761737E+03</pdfrwt>
<pdfrwt beam="2">  1       21 0.36900493E-01 0.12761737E+03</pdfrwt>
<totfact> 0.25592162E+06</totfact>
</mgrwt>
</event>
<event>
 6    1  0.4259848E-002  0.1285539E+03  0.7546771E-02  0.1229617E+00
         21   -1    0    0  504  502  0.00000000000E+00  0.00000000000E+00  0.46926069953E+03  0.46926069953E+03  0.00000000000E+00 0. -1.
         21   -1    0    0  502  503 -0.00000000000E+00 -0.00000000000E+00 -0.69500658474E+02  0.69500658474E+02  0.00000000000E+00 0. -1.
         25    2    1    2    0    0 -0.29874013949E+02  0.30880538317E+01  0.45666653063E+03  0.47441587378E+03  0.12499643319E+03 0.  0.
          5    1    3    3  501    0  0.37202228854E+02  0.29897760451E+02  0.27140693448E+03  0.27557143537E+03  0.10000000000E+00 0.  1.
         -5    1    3    3    0  501 -0.67076242803E+02 -0.26809706620E+02  0.18525959615E+03  0.19884443840E+03  0.10000000000E+00 0.  1.
         21    1    1    2  504  503  0.29874013949E+02 -0.30880538317E+01 -0.56906489569E+02  0.64345484231E+02  0.00000000000E+00 0. -1.
<mgrwt>
<rscale>  1 0.12855388E+03</rscale>
<asrwt>0</asrwt>
<pdfrwt beam="1">  1       21 0.72193952E-01 0.12855388E+03</pdfrwt>
<pdfrwt beam="2">  1       21 0.10692409E-01 0.12855388E+03</pdfrwt>
<totfact> 0.12767271E+05</totfact>
</mgrwt>
</event>
<event>
 6    1  0.4259848E-002  0.1275011E+03  0.7546771E-02  0.1231212E+00
         21   -1    0    0  503  502  0.00000000000E+00  0.00000000000E+00  0.10852495071E+03  0.10852495071E+03  0.00000000000E+00 0.  1.
         21   -1    0    0  504  503 -0.00000000000E+00 -0.00000000000E+00 -0.83664128414E+02  0.83664128414E+02  0.00000000000E+00 0.  1.
         25    2    1    2    0    0 -0.19832897424E+02  0.15403761093E+02  0.66319696918E+02  0.14371787158E+03  0.12500361890E+03 0.  0.
          5    1    3    3  501    0  0.51222334700E+02  0.20984704573E+02  0.37375164768E+02  0.66790705488E+02  0.10000000000E+00 0. -1.
         -5    1    3    3    0  501 -0.71055232124E+02 -0.55809434794E+01  0.28944532150E+02  0.76927166097E+02  0.10000000000E+00 0. -1.
         21    1    1    2  504  502  0.19832897424E+02 -0.15403761093E+02 -0.41458874618E+02  0.48471207543E+02  0.00000000000E+00 0.  1.
<mgrwt>
<rscale>  1 0.12750108E+03</rscale>
<asrwt>0</asrwt>
<pdfrwt beam="1">  1       21 0.16696146E-01 0.12750108E+03</pdfrwt>
<pdfrwt beam="2">  1       21 0.12871404E-01 0.12750108E+03</pdfrwt>
<totfact> 0.16613715E+06</totfact>
</mgrwt>
</event>
<event>
 6    1  0.4259848E-002  0.1631326E+03  0.7546771E-02  0.1185205E+00
         21   -1    0    0  504  502  0.00000000000E+00  0.00000000000E+00  0.37267522718E+03  0.37267522718E+03  0.00000000000E+00 0.  1.
         21   -1    0    0  502  503 -0.00000000000E+00 -0.00000000000E+00 -0.73289126881E+02  0.73289126881E+02  0.00000000000E+00 0.  1.
         25    2    1    2    0    0  0.88431869940E+02  0.56278579440E+02  0.29961022589E+03  0.34114296141E+03  0.12499903414E+03 0.  0.
          5    1    3    3  501    0  0.72399878558E+02 -0.19903260071E+02  0.20677378396E+03  0.21998474927E+03  0.10000000000E+00 0.  1.
         -5    1    3    3    0  501  0.16031991382E+02  0.76181839512E+02  0.92836441931E+02  0.12115821214E+03  0.10000000000E+00 0.  1.
         21    1    1    2  504  503 -0.88431869940E+02 -0.56278579440E+02 -0.22412559386E+00  0.10482139265E+03  0.00000000000E+00 0.  1.
<mgrwt>
<rscale>  1 0.16313256E+03</rscale>
<asrwt>0</asrwt>
<pdfrwt beam="1">  1       21 0.57334649E-01 0.16313256E+03</pdfrwt>
<pdfrwt beam="2">  1       21 0.11275250E-01 0.16313256E+03</pdfrwt>
<totfact> 0.18901422E+05</totfact>
</mgrwt>
</event>
<event>
 6    1  0.4259848E-002  0.1270030E+03  0.7546771E-02  0.1231972E+00
         21   -1    0    0  503  502  0.00000000000E+00  0.00000000000E+00  0.29739159393E+03  0.29739159393E+03  0.00000000000E+00 0.  1.
         21   -1    0    0  504  503 -0.00000000000E+00 -0.00000000000E+00 -0.20733469315E+02  0.20733469315E+02  0.00000000000E+00 0.  1.
         25    2    1    2    0    0  0.17841766947E+02 -0.13739391236E+02  0.26226931916E+03  0.29140171687E+03  0.12499066085E+03 0.  0.
          5    1    3    3  501    0  0.11642539997E+02  0.43093310334E+02  0.20744195158E+03  0.21219037539E+03  0.10000000000E+00 0. -1.
         -5    1    3    3    0  501  0.61992269497E+01 -0.56832701570E+02  0.54827367581E+02  0.79211341475E+02  0.10000000000E+00 0. -1.
         21    1    1    2  504  502 -0.17841766947E+02  0.13739391236E+02  0.14388805454E+02  0.26723346379E+02  0.00000000000E+00 0.  1.
<mgrwt>
<rscale>  1 0.12700301E+03</rscale>
<asrwt>0</asrwt>
<pdfrwt beam="1">  1       21 0.45752550E-01 0.12700301E+03</pdfrwt>
<pdfrwt beam="2">  1       21 0.31897647E-02 0.12700301E+03</pdfrwt>
<totfact> 0.25982424E+06</totfact>
</mgrwt>
</event>
<event>
 6    1  0.4259848E-002  0.1260730E+03  0.7546771E-02  0.1233402E+00
         21   -1    0    0  503  502  0.00000000000E+00  0.00000000000E+00  0.63180468895E+02  0.63180468895E+02  0.00000000000E+00 0. -1.
         21   -1    0    0  504  503 -0.00000000000E+00 -0.00000000000E+00 -0.10090734985E+03  0.10090734985E+03  0.00000000000E+00 0.  1.
         25    2    1    2    0    0  0.59346961578E+01 -0.15302422591E+02 -0.34914165272E+01  0.12612136276E+03  0.12500009359E+03 0.  0.
          5    1    3    3  501    0  0.40051837204E+02 -0.48703028130E+02 -0.31793228785E+02  0.70618368779E+02  0.10000000000E+00 0.  1.
         -5    1    3    3    0  501 -0.34117141046E+02  0.33400605538E+02  0.28301812258E+02  0.55502993978E+02  0.10000000000E+00 0.  1.
         21    1    1    2  504  502 -0.59346961578E+01  0.15302422591E+02 -0.34235464431E+02  0.37966455990E+02  0.00000000000E+00 0.  1.
<mgrwt>
<rscale>  1 0.12607303E+03</rscale>
<asrwt>0</asrwt>
<pdfrwt beam="1">  1       21 0.97200723E-02 0.12607303E+03</pdfrwt>
<pdfrwt beam="2">  1       21 0.15524207E-01 0.12607303E+03</pdfrwt>
<totfact> 0.31080975E+06</totfact>
</mgrwt>
</event>
<event>
 6    1  0.4259848E-002  0.1269836E+03  0.7546771E-02  0.1232001E+00
         21   -1    0    0  504  502  0.00000000000E+00  0.00000000000E+00  0.35923065074E+03  0.35923065074E+03  0.00000000000E+00 0. -1.
         21   -1    0    0  502  503 -0.00000000000E+00 -0.00000000000E+00 -0.15752885997E+02  0.15752885997E+02  0.00000000000E+00 0. -1.
         25    2    1    2    0    0  0.71243180790E+00  0.22350847591E+02  0.30659128903E+03  0.33184793615E+03  0.12499906509E+03 0.  0.
          5    1    3    3  501    0 -0.11267176245E+02  0.69133063456E+01  0.31143534830E+03  0.31171578279E+03  0.10000000000E+00 0. -1.
         -5    1    3    3    0  501  0.11979608053E+02  0.15437541245E+02 -0.48440592777E+01  0.20132153365E+02  0.10000000000E+00 0. -1.
         21    1    1    2  504  503 -0.71243180790E+00 -0.22350847591E+02  0.36886475720E+02  0.43135600589E+02  0.00000000000E+00 0.  1.
<mgrwt>
<rscale>  1 0.12698360E+03</rscale>
<asrwt>0</asrwt>
<pdfrwt beam="1">  1       21 0.55266248E-01 0.12698360E+03</pdfrwt>
<pdfrwt beam="2">  1       21 0.24235212E-02 0.12698360E+03</pdfrwt>
<totfact> 0.27561354E+06</totfact>
</mgrwt>
</event>
<event>
 6    1  0.4259848E-002  0.1263722E+03  0.7546771E-02  0.1232940E+00
         21   -1    0    0  504  502  0.00000000000E+00  0.00000000000E+00  0.16078578043E+03  0.16078578043E+03  0.00000000000E+00 0.  1.
         21   -1    0    0  502  503 -0.00000000000E+00 -0.00000000000E+00 -0.12840390630E+03  0.12840390630E+03  0.00000000000E+00 0.  1.
         25    2    1    2    0    0 -0.17891501783E+02  0.52058274244E+01  0.13498531011E+03  0.18490799346E+03  0.12499090217E+03 0.  0.
          5    1    3    3  501    0 -0.61979602213E+02  0.70597770178E+01  0.12494703467E+03  0.13965343897E+03  0.10000000000E+00 0. -1.
         -5    1    3    3    0  501  0.44088100430E+02 -0.18539495934E+01  0.10038275439E+02  0.45254554494E+02  0.10000000000E+00 0. -1.
         21    1    1    2  504  503  0.17891501783E+02 -0.52058274244E+01 -0.10260343599E+03  0.10428169327E+03  0.00000000000E+00 0.  1.
<mgrwt>
<rscale>  1 0.12637220E+03</rscale>
<asrwt>0</asrwt>
<pdfrwt beam="1">  1       21 0.24736274E-01 0.12637220E+03</pdfrwt>
<pdfrwt beam="2">  1       21 0.19754447E-01 0.12637220E+03</pdfrwt>
<totfact> 0.36928672E+05</totfact>
</mgrwt>
</event>
<event>
 6    1  0.4259848E-002  0.1265984E+03  0.7546771E-02  0.1232592E+00
         21   -1    0    0  503  502  0.00000000000E+00  0.00000000000E+00  0.58460269547E+02  0.58460269547E+02  0.00000000000E+00 0.  1.
         21   -1    0    0  504  503 -0.00000000000E+00 -0.00000000000E+00 -0.93107373479E+02  0.93107373479E+02  0.00000000000E+00 0.  1.
         25    2    1    2    0    0  0.10407114607E+02 -0.17216467565E+02 -0.24168436858E+02  0.12888467026E+03  0.12498971997E+03 0.  0.
          5    1    3    3  501    0 -0.45017077243E+02  0.29194197737E+02 -0.16784034564E+02  0.56218789042E+02  0.10000000000E+00 0.  1.
         -5    1    3    3    0  501  0.55424191850E+02 -0.46410665302E+02 -0.73844022938E+01  0.72665881219E+02  0.10000000000E+00 0.  1.
         21    1    1    2  504  502 -0.10407114607E+02  0.17216467565E+02 -0.10478667074E+02  0.22682972766E+02  0.00000000000E+00 0. -1.
<mgrwt>
<rscale>  1 0.12659836E+03</rscale>
<asrwt>0</asrwt>
<pdfrwt beam="1">  1       21 0.89938877E-02 0.12659836E+03</pdfrwt>
<pdfrwt beam="2">  1       21 0.14324211E-01 0.12659836E+03</pdfrwt>
<totfact> 0.41133750E+06</totfact>
</mgrwt>
</event>
<event>
 6    1  0.4259848E-002  0.1259742E+03  0.7546771E-02  0.1233555E+00
         21   -1    0    0  504  502  0.00000000000E+00  0.00000000000E+00  0.79386352398E+01  0.79386352398E+01  0.00000000000E+00 0.  1.
         21   -1    0    0  502  503 -0.00000000000E+00 -0.00000000000E+00 -0.76925603009E+03  0.76925603009E+03  0.00000000000E+00 0.  1.
         25    2    1    2    0    0  0.10103511000E+02  0.11958649151E+02 -0.50773059677E+03  0.52312507962E+03  0.12499759919E+03 0.  0.
          5    1    3    3  501    0 -0.32284890604E+02 -0.11734798984E+02 -0.43068408744E+03  0.43205186360E+03  0.10000000000E+00 0. -1.
         -5    1    3    3    0  501  0.42388401605E+02  0.23693448135E+02 -0.77046509329E+02  0.91073216012E+02  0.10000000000E+00 0. -1.
         21    1    1    2  504  503 -0.10103511000E+02 -0.11958649151E+02 -0.25358679808E+03  0.25406958572E+03  0.00000000000E+00 0.  1.
<mgrwt>
<rscale>  1 0.12597416E+03</rscale>
<asrwt>0</asrwt>
<pdfrwt beam="1">  1       21 0.12213279E-02 0.12597416E+03</pdfrwt>
<pdfrwt beam="2">  1       21 0.11834714E+00 0.12597416E+03</pdfrwt>
<totfact> 0.14965217E+06</totfact>
</mgrwt>
</event>
<event>
 6    1  0.4259848E-002  0.1283335E+03  0.7546771E-02  0.1229950E+00
         21   -1    0    0  504  502  0.00000000000E+00  0.00000000000E+00  0.18969099743E+02  0.18969099743E+02  0.00000000000E+00 0.  1.
         21   -1    0    0  502  503 -0.00000000000E+00 -0.00000000000E+00 -0.51283049869E+03  0.51283049869E+03  0.00000000000E+00 0.  1.
         25    2    1    2    0    0 -0.15084002620E+02  0.24828391528E+02 -0.20757355805E+03  0.24404153337E+03  0.12500204738E+03 0.  0.
          5    1    3    3  501    0  0.17940411717E+02  0.69014818458E+02 -0.13719418783E+03  0.15461939954E+03  0.10000000000E+00 0. -1.
         -5    1    3    3    0  501 -0.33024414336E+02 -0.44186426931E+02 -0.70379370219E+02  0.89422133835E+02  0.10000000000E+00 0. -1.
         21    1    1    2  504  503  0.15084002620E+02 -0.24828391528E+02 -0.28628784090E+03  0.28775806506E+03  0.00000000000E+00 0.  1.
<mgrwt>
<rscale>  1 0.12833350E+03</rscale>
<asrwt>0</asrwt>
<pdfrwt beam="1">  1       21 0.29183230E-02 0.12833350E+03</pdfrwt>
<pdfrwt beam="2">  1       21 0.78897002E-01 0.12833350E+03</pdfrwt>
<totfact> 0.94408200E+05</totfact>
</mgrwt>
</event>
<event>
 6    1  0.4259848E-002  0.1259442E+03  0.7546771E-02  0.1233601E+00
         21   -1    0    0  503  502  0.00000000000E+00  0.00000000000E+00  0.29237786909E+02  0.29237786909E+02  0.00000000000E+00 0.  1.
         21   -1    0    0  504  503 -0.00000000000E+00 -0.00000000000E+00 -0.31128929328E+03  0.31128929328E+03  0.00000000000E+00 0.  1.
         25    2    1    2    0    0 -0.11820908592E+02 -0.99311520608E+01 -0.10834029958E+03  0.16613113693E+03  0.12499428980E+03 0.  0.
          5    1    3    3  501    0 -0.23082186103E+02  0.48331602877E+02 -0.88713756330E+02  0.10362852751E+03  0.10000000000E+00 0. -1.
         -5    1    3    3    0  501  0.11261277511E+02 -0.58262754938E+02 -0.19626543254E+02  0.62502609419E+02  0.10000000000E+00 0. -1.
         21    1    1    2  504  502  0.11820908592E+02  0.99311520608E+01 -0.17371120679E+03  0.17439594326E+03  0.00000000000E+00 0.  1.
<mgrwt>
<rscale>  1 0.12594417E+03</rscale>
<asrwt>0</asrwt>
<pdfrwt beam="1">  1       21 0.44981211E-02 0.12594417E+03</pdfrwt>
<pdfrwt beam="2">  1       21 0.47890660E-01 0.12594417E+03</pdfrwt>
<totfact> 0.13391775E+06</totfact>
</mgrwt>
</event>
<event>
 6    1  0.4259848E-002  0.1371281E+03  0.7546771E-02  0.1217246E+00
         21   -1    0    0  503  502  0.00000000000E+00  0.00000000000E+00  0.31003866259E+02  0.31003866259E+02  0.00000000000E+00 0.  1.
         21   -1    0    0  504  503 -0.00000000000E+00 -0.00000000000E+00 -0.39037935633E+03  0.39037935633E+03  0.00000000000E+00 0.  1.
         25    2    1    2    0    0 -0.56271581658E+02 -0.35053769998E+01 -0.14439782246E+03  0.19913521666E+03  0.12500129924E+03 0.  0.
          5    1    3    3  501    0 -0.58766711137E+01  0.52744254113E+01  0.22883207154E+02  0.24207560729E+02  0.10000000000E+00 0. -1.
         -5    1    3    3    0  501 -0.50394910544E+02 -0.87798024111E+01 -0.16728102962E+03  0.17492765593E+03  0.10000000000E+00 0. -1.
         21    1    1    2  504  502  0.56271581658E+02  0.35053769998E+01 -0.21497766761E+03  0.22224800593E+03  0.00000000000E+00 0.  1.
<mgrwt>
<rscale>  1 0.13712805E+03</rscale>
<asrwt>0</asrwt>
<pdfrwt beam="1">  1       21 0.47698254E-02 0.13712805E+03</pdfrwt>
<pdfrwt beam="2">  1       21 0.60058364E-01 0.13712805E+03</pdfrwt>
<totfact> 0.75719396E+05</totfact>
</mgrwt>
</event>
<event>
 6    1  0.4259848E-002  0.1269339E+03  0.7546771E-02  0.1232077E+00
         21   -1    0    0  504  502  0.00000000000E+00  0.00000000000E+00  0.73032899757E+02  0.73032899757E+02  0.00000000000E+00 0. -1.
         21   -1    0    0  502  503 -0.00000000000E+00 -0.00000000000E+00 -0.10672899996E+03  0.10672899996E+03  0.00000000000E+00 0. -1.
         25    2    1    2    0    0  0.21852581751E+02 -0.33046437344E+01  0.13497570679E+02  0.12764953486E+03  0.12499505325E+03 0.  0.
          5    1    3    3  501    0 -0.12895378902E+02 -0.58780913013E+02 -0.26141686244E+01  0.60235624088E+02  0.10000000000E+00 0. -1.
         -5    1    3    3    0  501  0.34747960654E+02  0.55476269278E+02  0.16111739303E+02  0.67413910775E+02  0.10000000000E+00 0. -1.
         21    1    1    2  504  503 -0.21852581751E+02  0.33046437344E+01 -0.47193670880E+02  0.52112364853E+02  0.00000000000E+00 0.  1.
<mgrwt>
<rscale>  1 0.12693392E+03</rscale>
<asrwt>0</asrwt>
<pdfrwt beam="1">  1       21 0.11235831E-01 0.12693392E+03</pdfrwt>
<pdfrwt beam="2">  1       21 0.16419846E-01 0.12693392E+03</pdfrwt>
<totfact> 0.21782876E+06</totfact>
</mgrwt>
</event>
<event>
 6    1  0.4259848E-002  0.1452194E+03  0.7546771E-02  0.1206473E+00
         21   -1    0    0  503  502  0.00000000000E+00  0.00000000000E+00  0.18101539163E+03  0.18101539163E+03  0.00000000000E+00 0. -1.
         21   -1    0    0  504  503 -0.00000000000E+00 -0.00000000000E+00 -0.94339981490E+02  0.94339981490E+02  0.00000000000E+00 0. -1.
         25    2    1    2    0    0 -0.55718665698E+00 -0.73911179735E+02  0.12543831811E+03  0.19189438834E+03  0.12500204670E+03 0.  0.
          5    1    3    3  501    0  0.51454758381E+02 -0.45337881443E+02  0.20911908195E+02  0.71696816932E+02  0.10000000000E+00 0. -1.
         -5    1    3    3    0  501 -0.52011945038E+02 -0.28573298291E+02  0.10452640991E+03  0.12019757140E+03  0.10000000000E+00 0. -1.
         21    1    1    2  504  502  0.55718665698E+00  0.73911179735E+02 -0.38762907970E+02  0.83460984783E+02  0.00000000000E+00 0. -1.
<mgrwt>
<rscale>  1 0.14521944E+03</rscale>
<asrwt>0</asrwt>
<pdfrwt beam="1">  1       21 0.27848522E-01 0.14521944E+03</pdfrwt>
<pdfrwt beam="2">  1       21 0.14513843E-01 0.14521944E+03</pdfrwt>
<totfact> 0.51611528E+05</totfact>
</mgrwt>
</event>
<event>
 6    1  0.4259848E-002  0.1333592E+03  0.7546771E-02  0.1222555E+00
         21   -1    0    0  503  502  0.00000000000E+00  0.00000000000E+00  0.36387222024E+02  0.36387222024E+02  0.00000000000E+00 0.  1.
         21   -1    0    0  504  503 -0.00000000000E+00 -0.00000000000E+00 -0.32412276054E+03  0.32412276054E+03  0.00000000000E+00 0.  1.
         25    2    1    2    0    0  0.50056170300E+01 -0.46189741776E+02 -0.28417811712E+03  0.31391380574E+03  0.12500450688E+03 0.  0.
          5    1    3    3  501    0  0.59847853390E+02 -0.38875721576E+02 -0.10967806898E+03  0.13085249749E+03  0.10000000000E+00 0. -1.
         -5    1    3    3    0  501 -0.54842236360E+02 -0.73140201995E+01 -0.17450004814E+03  0.18306130825E+03  0.10000000000E+00 0. -1.
         21    1    1    2  504  502 -0.50056170300E+01  0.46189741776E+02 -0.35574213964E+01  0.46596176819E+02  0.00000000000E+00 0.  1.
<mgrwt>
<rscale>  1 0.13335920E+03</rscale>
<asrwt>0</asrwt>
<pdfrwt beam="1">  1       21 0.55980344E-02 0.13335920E+03</pdfrwt>
<pdfrwt beam="2">  1       21 0.49865038E-01 0.13335920E+03</pdfrwt>
<totfact> 0.85378404E+05</totfact>
</mgrwt>
</event>
<event>
 6    1  0.4259848E-002  0.1260777E+03  0.7546771E-02  0.1233395E+00
         21   -1    0    0  504  502  0.00000000000E+00  0.00000000000E+00  0.21621028878E+02  0.21621028878E+02  0.00000000000E+00 0. -1.
         21   -1    0    0  502  503 -0.00000000000E+00 -0.00000000000E+00 -0.53870691372E+03  0.53870691372E+03  0.00000000000E+00 0.  1.
         25    2    1    2    0    0 -0.84118286497E+01  0.13875286252E+02 -0.16396050471E+03  0.20682997015E+03  0.12502922466E+03 0.  0.
          5    1    3    3  501    0 -0.57301503620E+02  0.39957927792E+02 -0.79702813889E+02  0.10598418209E+03  0.10000000000E+00 0.  1.
         -5    1    3    3    0  501  0.48889674970E+02 -0.26082641540E+02 -0.84257690821E+02  0.10084578807E+03  0.10000000000E+00 0.  1.
         21    1    1    2  504  503  0.84118286497E+01 -0.13875286252E+02 -0.35312538013E+03  0.35349797245E+03  0.00000000000E+00 0.  1.
<mgrwt>
<rscale>  1 0.12607771E+03</rscale>
<asrwt>0</asrwt>
<pdfrwt beam="1">  1       21 0.33263123E-02 0.12607771E+03</pdfrwt>
<pdfrwt beam="2">  1       21 0.82877982E-01 0.12607771E+03</pdfrwt>
<totfact> 0.68212551E+05</totfact>
</mgrwt>
</event>
<event>
 6    1  0.4259848E-002  0.1323967E+03  0.7546771E-02  0.1223942E+00
         21   -1    0    0  503  502  0.00000000000E+00  0.00000000000E+00  0.50517954180E+02  0.50517954180E+02  0.00000000000E+00 0.  1.
         21   -1    0    0  504  503 -0.00000000000E+00 -0.00000000000E+00 -0.19696024658E+03  0.19696024658E+03  0.00000000000E+00 0.  1.
         25    2    1    2    0    0  0.37688077545E+02 -0.21982395455E+02 -0.49816705111E+02  0.14145876378E+03  0.12500104337E+03 0.  0.
          5    1    3    3  501    0  0.63402343348E+02  0.29658092273E+02 -0.85210170321E+01  0.70512958458E+02  0.10000000000E+00 0. -1.
         -5    1    3    3    0  501 -0.25714265803E+02 -0.51640487728E+02 -0.41295688079E+02  0.70945805319E+02  0.10000000000E+00 0. -1.
         21    1    1    2  504  502 -0.37688077545E+02  0.21982395455E+02 -0.96625587289E+02  0.10601943698E+03  0.00000000000E+00 0.  1.
<mgrwt>
<rscale>  1 0.13239667E+03</rscale>
<asrwt>0</asrwt>
<pdfrwt beam="1">  1       21 0.77719929E-02 0.13239667E+03</pdfrwt>
<pdfrwt beam="2">  1       21 0.30301577E-01 0.13239667E+03</pdfrwt>
<totfact> 0.13174111E+06</totfact>
</mgrwt>
</event>
<event>
 6    1  0.4259848E-002  0.1259141E+03  0.7546771E-02  0.1233648E+00
         21   -1    0    0  504  502  0.00000000000E+00  0.00000000000E+00  0.18572346298E+03  0.18572346298E+03  0.00000000000E+00 0. -1.
         21   -1    0    0  502  503 -0.00000000000E+00 -0.00000000000E+00 -0.31519427637E+02  0.31519427637E+02  0.00000000000E+00 0. -1.
         25    2    1    2    0    0  0.38145180326E+01 -0.14724202729E+02  0.15753502060E+03  0.20167214380E+03  0.12499207246E+03 0.  0.
          5    1    3    3  501    0  0.16635065687E+01 -0.16183817933E+01  0.17759698708E+03  0.17761217930E+03  0.10000000000E+00 0. -1.
         -5    1    3    3    0  501  0.21510114639E+01 -0.13105820935E+02 -0.20061966486E+02  0.24059964505E+02  0.10000000000E+00 0. -1.
         21    1    1    2  504  503 -0.38145180326E+01  0.14724202729E+02 -0.33309852485E+01  0.15570746820E+02  0.00000000000E+00 0. -1.
<mgrwt>
<rscale>  1 0.12591414E+03</rscale>
<asrwt>0</asrwt>
<pdfrwt beam="1">  1       21 0.28572840E-01 0.12591414E+03</pdfrwt>
<pdfrwt beam="2">  1       21 0.48491428E-02 0.12591414E+03</pdfrwt>
<totfact> 0.32820114E+06</totfact>
</mgrwt>
</event>
<event>
 6    1  0.4259848E-002  0.1504293E+03  0.7546771E-02  0.1199946E+00
         21   -1    0    0  503  502  0.00000000000E+00  0.00000000000E+00  0.24121906927E+03  0.24121906927E+03  0.00000000000E+00 0. -1.
         21   -1    0    0  504  503 -0.00000000000E+00 -0.00000000000E+00 -0.31456066688E+03  0.31456066688E+03  0.00000000000E+00 0. -1.
         25    2    1    2    0    0  0.52502910574E+02  0.65169514362E+02  0.21113827734E+03  0.25924572381E+03  0.12500140772E+03 0.  0.
          5    1    3    3  501    0  0.25542930909E+01 -0.27893453109E+02  0.61953807870E+01  0.28687312224E+02  0.10000000000E+00 0. -1.
         -5    1    3    3    0  501  0.49948617483E+02  0.93062967471E+02  0.20494289655E+03  0.23055841158E+03  0.10000000000E+00 0. -1.
         21    1    1    2  504  502 -0.52502910574E+02 -0.65169514362E+02 -0.28447987496E+03  0.29653401234E+03  0.00000000000E+00 0. -1.
<mgrwt>
<rscale>  1 0.15042930E+03</rscale>
<asrwt>0</asrwt>
<pdfrwt beam="1">  1       21 0.37110626E-01 0.15042930E+03</pdfrwt>
<pdfrwt beam="2">  1       21 0.48393948E-01 0.15042930E+03</pdfrwt>
<totfact> 0.29254970E+04</totfact>
</mgrwt>
</event>
<event>
 6    1  0.4259848E-002  0.1264306E+03  0.7546771E-02  0.1232850E+00
         21   -1    0    0  504  502  0.00000000000E+00  0.00000000000E+00  0.13401901739E+04  0.13401901739E+04  0.00000000000E+00 0.  1.
         21   -1    0    0  502  503 -0.00000000000E+00 -0.00000000000E+00 -0.62824749803E+01  0.62824749803E+01  0.00000000000E+00 0.  1.
         25    2    1    2    0    0  0.17898241316E+02 -0.60207240803E+01  0.13096149044E+04  0.13157035730E+04  0.12501239215E+03 0.  0.
          5    1    3    3  501    0  0.71748636674E+02 -0.57127085822E+01  0.68469459204E+03  0.68846728047E+03  0.10000000000E+00 0. -1.
         -5    1    3    3    0  501 -0.53850395358E+02 -0.30801549815E+00  0.62492031234E+03  0.62723629258E+03  0.10000000000E+00 0. -1.
         21    1    1    2  504  503 -0.17898241316E+02  0.60207240803E+01  0.24292794502E+02  0.30769075796E+02  0.00000000000E+00 0. -1.
<mgrwt>
<rscale>  1 0.12643059E+03</rscale>
<asrwt>0</asrwt>
<pdfrwt beam="1">  1       21 0.20618288E+00 0.12643059E+03</pdfrwt>
<pdfrwt beam="2">  1       21 0.96653568E-03 0.12643059E+03</pdfrwt>
<totfact> 0.49919172E+05</totfact>
</mgrwt>
</event>
<event>
 6    1  0.4259848E-002  0.1319928E+03  0.7546771E-02  0.1224528E+00
         21   -1    0    0  504  502  0.00000000000E+00  0.00000000000E+00  0.37020764472E+03  0.37020764472E+03  0.00000000000E+00 0. -1.
         21   -1    0    0  502  503 -0.00000000000E+00 -0.00000000000E+00 -0.26178616700E+03  0.26178616700E+03  0.00000000000E+00 0.  1.
         25    2    1    2    0    0  0.42133275707E+02  0.48285211319E+01  0.35658632742E+03  0.38023138369E+03  0.12499427469E+03 0.  0.
          5    1    3    3  501    0  0.60977919239E+02  0.52555841946E+02  0.22730883060E+03  0.24114256702E+03  0.10000000000E+00 0. -1.
         -5    1    3    3    0  501 -0.18844643533E+02 -0.47727320814E+02  0.12927749682E+03  0.13908881668E+03  0.10000000000E+00 0. -1.
         21    1    1    2  504  503 -0.42133275707E+02 -0.48285211319E+01 -0.24816484970E+03  0.25176242803E+03  0.00000000000E+00 0.  1.
<mgrwt>
<rscale>  1 0.13199279E+03</rscale>
<asrwt>0</asrwt>
<pdfrwt beam="1">  1       21 0.56955023E-01 0.13199279E+03</pdfrwt>
<pdfrwt beam="2">  1       21 0.40274795E-01 0.13199279E+03</pdfrwt>
<totfact> 0.17915644E+04</totfact>
</mgrwt>
</event>
<event>
 6    1  0.4259848E-002  0.1280742E+03  0.7546771E-02  0.1230342E+00
         21   -1    0    0  503  502  0.00000000000E+00  0.00000000000E+00  0.17620550628E+03  0.17620550628E+03  0.00000000000E+00 0. -1.
         21   -1    0    0  504  503 -0.00000000000E+00 -0.00000000000E+00 -0.36232518094E+02  0.36232518094E+02  0.00000000000E+00 0. -1.
         25    2    1    2    0    0  0.26995542205E+02 -0.70389918237E+01  0.94791717937E+02  0.15933761114E+03  0.12499879131E+03 0.  0.
          5    1    3    3  501    0 -0.43834190926E+02 -0.21474836205E+02  0.64677899803E+02  0.81029905634E+02  0.10000000000E+00 0.  1.
         -5    1    3    3    0  501  0.70829733130E+02  0.14435844381E+02  0.30113818133E+02  0.78307705501E+02  0.10000000000E+00 0.  1.
         21    1    1    2  504  502 -0.26995542205E+02  0.70389918237E+01  0.45181270250E+02  0.53100413240E+02  0.00000000000E+00 0.  1.
<mgrwt>
<rscale>  1 0.12807421E+03</rscale>
<asrwt>0</asrwt>
<pdfrwt beam="1">  1       21 0.27108539E-01 0.12807421E+03</pdfrwt>
<pdfrwt beam="2">  1       21 0.55742336E-02 0.12807421E+03</pdfrwt>
<totfact> 0.28727333E+06</totfact>
</mgrwt>
</event>
<event>
 6    1  0.4259848E-002  0.1308029E+03  0.7546771E-02  0.1226269E+00
         21   -1    0    0  503  502  0.00000000000E+00  0.00000000000E+00  0.30681652018E+02  0.30681652018E+02  0.00000000000E+00 0.  1.
         21   -1    0    0  504  503 -0.00000000000E+00 -0.00000000000E+00 -0.10030861926E+04  0.10030861926E+04  0.00000000000E+00 0.  1.
         25    2    1    2    0    0 -0.20271760982E+02 -0.32765710268E+02 -0.11114463364E+03  0.17164652870E+03  0.12499946065E+03 0.  0.
          5    1    3    3  501    0 -0.71413548983E+02 -0.38324805831E+01 -0.53307365660E+02  0.89197915443E+02  0.10000000000E+00 0. -1.
         -5    1    3    3    0  501  0.51141788001E+02 -0.28933229685E+02 -0.57837267982E+02  0.82448613254E+02  0.10000000000E+00 0. -1.
         21    1    1    2  504  502  0.20271760982E+02  0.32765710268E+02 -0.86125990690E+03  0.86212131588E+03  0.00000000000E+00 0.  1.
<mgrwt>
<rscale>  1 0.13080291E+03</rscale>
<asrwt>0</asrwt>
<pdfrwt beam="1">  1       21 0.47202538E-02 0.13080291E+03</pdfrwt>
<pdfrwt beam="2">  1       21 0.15432096E+00 0.13080291E+03</pdfrwt>
<totfact> 0.84974876E+04</totfact>
</mgrwt>
</event>
<event>
 6    1  0.4259848E-002  0.1265286E+03  0.7546771E-02  0.1232700E+00
         21   -1    0    0  504  502  0.00000000000E+00  0.00000000000E+00  0.13318764690E+03  0.13318764690E+03  0.00000000000E+00 0. -1.
         21   -1    0    0  502  503 -0.00000000000E+00 -0.00000000000E+00 -0.56129937208E+02  0.56129937208E+02  0.00000000000E+00 0. -1.
         25    2    1    2    0    0 -0.10589727208E+02 -0.16511639631E+02  0.98431709890E+02  0.16030681973E+03  0.12499879349E+03 0.  0.
          5    1    3    3  501    0  0.28465446592E+02  0.14178882683E+02 -0.15970799133E+02  0.35586497281E+02  0.10000000000E+00 0. -1.
         -5    1    3    3    0  501 -0.39055173799E+02 -0.30690522313E+02  0.11440250902E+03  0.12472032245E+03  0.10000000000E+00 0. -1.
         21    1    1    2  504  503  0.10589727208E+02  0.16511639631E+02 -0.21374000197E+02  0.29010764382E+02  0.00000000000E+00 0.  1.
<mgrwt>
<rscale>  1 0.12652855E+03</rscale>
<asrwt>0</asrwt>
<pdfrwt beam="1">  1       21 0.20490407E-01 0.12652855E+03</pdfrwt>
<pdfrwt beam="2">  1       21 0.86353750E-02 0.12652855E+03</pdfrwt>
<totfact> 0.22985832E+06</totfact>
</mgrwt>
</event>
<event>
 6    1  0.4259848E-002  0.1268270E+03  0.7546771E-02  0.1232241E+00
         21   -1    0    0  503  502  0.00000000000E+00  0.00000000000E+00  0.38853491308E+03  0.38853491308E+03  0.00000000000E+00 0. -1.
         21   -1    0    0  504  503 -0.00000000000E+00 -0.00000000000E+00 -0.21654305694E+02  0.21654305694E+02  0.00000000000E+00 0. -1.
         25    2    1    2    0    0 -0.92904935130E+01  0.19284839029E+02  0.36750534874E+03  0.38877407021E+03  0.12500751191E+03 0.  0.
          5    1    3    3  501    0  0.45255208137E+02  0.10228405551E+02  0.28929806806E+03  0.29299494249E+03  0.10000000000E+00 0.  1.
         -5    1    3    3    0  501 -0.54545701650E+02  0.90564334781E+01  0.78207280676E+02  0.95779127719E+02  0.10000000000E+00 0.  1.
         21    1    1    2  504  502  0.92904935130E+01 -0.19284839029E+02 -0.62474135214E+00  0.21415148560E+02  0.00000000000E+00 0. -1.
<mgrwt>
<rscale>  1 0.12682703E+03</rscale>
<asrwt>0</asrwt>
<pdfrwt beam="1">  1       21 0.59774597E-01 0.12682703E+03</pdfrwt>
<pdfrwt beam="2">  1       21 0.33314319E-02 0.12682703E+03</pdfrwt>
<totfact> 0.13883210E+06</totfact>
</mgrwt>
</event>
<event>
 6    1  0.4259848E-002  0.1317882E+03  0.7546771E-02  0.1224826E+00
         21   -1    0    0  504  502  0.00000000000E+00  0.00000000000E+00  0.32183707324E+02  0.32183707324E+02  0.00000000000E+00 0. -1.
         21   -1    0    0  502  503 -0.00000000000E+00 -0.00000000000E+00 -0.92836059872E+03  0.92836059872E+03  0.00000000000E+00 0. -1.
         25    2    1    2    0    0  0.52281705299E+00  0.41743842362E+02 -0.10563012957E+03  0.16889602281E+03  0.12500128213E+03 0.  0.
          5    1    3    3  501    0 -0.81904992787E+01 -0.22858540563E+02 -0.10062886681E+03  0.10351703237E+03  0.10000000000E+00 0.  1.
         -5    1    3    3    0  501  0.87133163317E+01  0.64602382925E+02 -0.50012627540E+01  0.65378990434E+02  0.10000000000E+00 0.  1.
         21    1    1    2  504  503 -0.52281705299E+00 -0.41743842362E+02 -0.79054676183E+03  0.79164828323E+03  0.00000000000E+00 0. -1.
<mgrwt>
<rscale>  1 0.13178825E+03</rscale>
<asrwt>0</asrwt>
<pdfrwt beam="1">  1       21 0.49513390E-02 0.13178825E+03</pdfrwt>
<pdfrwt beam="2">  1       21 0.14282472E+00 0.13178825E+03</pdfrwt>
<totfact> 0.95747359E+04</totfact>
</mgrwt>
</event>
<event>
 6    1  0.4259848E-002  0.1421387E+03  0.7546771E-02  0.1210480E+00
         21   -1    0    0  504  502  0.00000000000E+00  0.00000000000E+00  0.33173468441E+03  0.33173468441E+03  0.00000000000E+00 0. -1.
         21   -1    0    0  502  503 -0.00000000000E+00 -0.00000000000E+00 -0.10416469492E+03  0.10416469492E+03  0.00000000000E+00 0. -1.
         25    2    1    2    0    0 -0.62743402596E+02 -0.25217750897E+02  0.30294758752E+03  0.33463511211E+03  0.12502298966E+03 0.  0.
          5    1    3    3  501    0 -0.99461165676E+02 -0.16459372902E+02  0.18356373490E+03  0.20942561735E+03  0.10000000000E+00 0.  1.
         -5    1    3    3    0  501  0.36717763080E+02 -0.87583779950E+01  0.11938385262E+03  0.12520949476E+03  0.10000000000E+00 0.  1.
         21    1    1    2  504  503  0.62743402596E+02  0.25217750897E+02 -0.75377598028E+02  0.10126426721E+03  0.00000000000E+00 0. -1.
<mgrwt>
<rscale>  1 0.14213873E+03</rscale>
<asrwt>0</asrwt>
<pdfrwt beam="1">  1       21 0.51036105E-01 0.14213873E+03</pdfrwt>
<pdfrwt beam="2">  1       21 0.16025338E-01 0.14213873E+03</pdfrwt>
<totfact> 0.12917441E+05</totfact>
</mgrwt>
</event>
<event>
 6    1  0.4259848E-002  0.1285973E+03  0.7546771E-02  0.1229552E+00
         21   -1    0    0  503  502  0.00000000000E+00  0.00000000000E+00  0.57650427737E+02  0.57650427737E+02  0.00000000000E+00 0. -1.
         21   -1    0    0  504  503 -0.00000000000E+00 -0.00000000000E+00 -0.33102739775E+03  0.33102739775E+03  0.00000000000E+00 0.  1.
         25    2    1    2    0    0  0.59541182975E+01 -0.29601936446E+02 -0.16061069051E+02  0.12959637294E+03  0.12500214308E+03 0.  0.
          5    1    3    3  501    0 -0.54428335873E+02  0.98055906158E+01  0.17229515208E+01  0.55331473098E+02  0.10000000000E+00 0.  1.
         -5    1    3    3    0  501  0.60382454171E+02 -0.39407527061E+02 -0.17784020572E+02  0.74264899842E+02  0.10000000000E+00 0.  1.
         21    1    1    2  504  502 -0.59541182975E+01  0.29601936446E+02 -0.25731590096E+03  0.25908145255E+03  0.00000000000E+00 0.  1.
<mgrwt>
<rscale>  1 0.12859729E+03</rscale>
<asrwt>0</asrwt>
<pdfrwt beam="1">  1       21 0.88692963E-02 0.12859729E+03</pdfrwt>
<pdfrwt beam="2">  1       21 0.50927293E-01 0.12859729E+03</pdfrwt>
<totfact> 0.37185454E+05</totfact>
</mgrwt>
</event>
<event>
 6    1  0.4259848E-002  0.1259287E+03  0.7546771E-02  0.1233625E+00
         21   -1    0    0  504  502  0.00000000000E+00  0.00000000000E+00  0.84022319712E+02  0.84022319712E+02  0.00000000000E+00 0.  1.
         21   -1    0    0  502  503 -0.00000000000E+00 -0.00000000000E+00 -0.60604200966E+02  0.60604200966E+02  0.00000000000E+00 0.  1.
         25    2    1    2    0    0  0.23933393211E+01  0.15130421500E+02  0.27233923349E+02  0.12883987782E+03  0.12499347906E+03 0.  0.
          5    1    3    3  501    0 -0.53726150121E+02 -0.19483842032E+02  0.26265482434E+02  0.62896779525E+02  0.10000000000E+00 0. -1.
         -5    1    3    3    0  501  0.56119489442E+02  0.34614263532E+02  0.96844091531E+00  0.65943098297E+02  0.10000000000E+00 0. -1.
         21    1    1    2  504  503 -0.23933393211E+01 -0.15130421500E+02 -0.38158046029E+01  0.15786642856E+02  0.00000000000E+00 0.  1.
<mgrwt>
<rscale>  1 0.12592866E+03</rscale>
<asrwt>0</asrwt>
<pdfrwt beam="1">  1       21 0.12926511E-01 0.12592866E+03</pdfrwt>
<pdfrwt beam="2">  1       21 0.93237233E-02 0.12592866E+03</pdfrwt>
<totfact> 0.46411089E+06</totfact>
</mgrwt>
</event>
<event>
 6    1  0.4259848E-002  0.1269400E+03  0.7546771E-02  0.1232068E+00
         21   -1    0    0  504  502  0.00000000000E+00  0.00000000000E+00  0.40335072943E+02  0.40335072943E+02  0.00000000000E+00 0. -1.
         21   -1    0    0  502  503 -0.00000000000E+00 -0.00000000000E+00 -0.27793811077E+03  0.27793811077E+03  0.00000000000E+00 0. -1.
         25    2    1    2    0    0  0.12137744737E+02 -0.18443160902E+02 -0.61971692365E+02  0.14125949910E+03  0.12500512150E+03 0.  0.
          5    1    3    3  501    0  0.68149324049E+01 -0.14256207455E+02  0.37950098862E+02  0.41108426853E+02  0.10000000000E+00 0. -1.
         -5    1    3    3    0  501  0.53228123320E+01 -0.41869534470E+01 -0.99921791227E+02  0.10015107225E+03  0.10000000000E+00 0. -1.
         21    1    1    2  504  503 -0.12137744737E+02  0.18443160902E+02 -0.17563134547E+03  0.17701368462E+03  0.00000000000E+00 0. -1.
<mgrwt>
<rscale>  1 0.12693997E+03</rscale>
<asrwt>0</asrwt>
<pdfrwt beam="1">  1       21 0.62053958E-02 0.12693997E+03</pdfrwt>
<pdfrwt beam="2">  1       21 0.42759710E-01 0.12693997E+03</pdfrwt>
<totfact> 0.98095970E+05</totfact>
</mgrwt>
</event>
<event>
 6    1  0.4259848E-002  0.1936906E+03  0.7546771E-02  0.1155174E+00
         21   -1    0    0  504  502  0.00000000000E+00  0.00000000000E+00  0.79942187053E+02  0.79942187053E+02  0.00000000000E+00 0.  1.
         21   -1    0    0  502  503 -0.00000000000E+00 -0.00000000000E+00 -0.37107144406E+03  0.37107144406E+03  0.00000000000E+00 0.  1.
         25    2    1    2    0    0 -0.14795521336E+03  0.94833717813E+00 -0.13620383399E+03  0.23678587567E+03  0.12499768806E+03 0.  0.
          5    1    3    3  501    0 -0.80911937736E+02 -0.30865161304E+02 -0.58592263466E+01  0.86797121979E+02  0.10000000000E+00 0.  1.
         -5    1    3    3    0  501 -0.67043275627E+02  0.31813498482E+02 -0.13034460765E+03  0.14998875369E+03  0.10000000000E+00 0.  1.
         21    1    1    2  504  503  0.14795521336E+03 -0.94833717813E+00 -0.15492542302E+03  0.21422775544E+03  0.00000000000E+00 0.  1.
<mgrwt>
<rscale>  1 0.19369065E+03</rscale>
<asrwt>0</asrwt>
<pdfrwt beam="1">  1       21 0.12298798E-01 0.19369065E+03</pdfrwt>
<pdfrwt beam="2">  1       21 0.57087914E-01 0.19369065E+03</pdfrwt>
<totfact> 0.16179177E+05</totfact>
</mgrwt>
</event>
<event>
 6    1  0.4259848E-002  0.1286833E+03  0.7546771E-02  0.1229423E+00
         21   -1    0    0  504  502  0.00000000000E+00  0.00000000000E+00  0.19865617404E+03  0.19865617404E+03  0.00000000000E+00 0.  1.
         21   -1    0    0  502  503 -0.00000000000E+00 -0.00000000000E+00 -0.68628093890E+02  0.68628093890E+02  0.00000000000E+00 0. -1.
         25    2    1    2    0    0  0.10934026536E+02 -0.28544114849E+02  0.17234242508E+03  0.21508442870E+03  0.12500032224E+03 0.  0.
          5    1    3    3  501    0  0.59078667940E+02 -0.10614837845E+01  0.39326824429E+02  0.70979045310E+02  0.10000000000E+00 0. -1.
         -5    1    3    3    0  501 -0.48144641404E+02 -0.27482631065E+02  0.13301560065E+03  0.14410538339E+03  0.10000000000E+00 0. -1.
         21    1    1    2  504  503 -0.10934026536E+02  0.28544114849E+02 -0.42314344928E+02  0.52199839229E+02  0.00000000000E+00 0. -1.
<mgrwt>
<rscale>  1 0.12868333E+03</rscale>
<asrwt>0</asrwt>
<pdfrwt beam="1">  1       21 0.30562488E-01 0.12868333E+03</pdfrwt>
<pdfrwt beam="2">  1       21 0.10558168E-01 0.12868333E+03</pdfrwt>
<totfact> 0.76047151E+05</totfact>
</mgrwt>
</event>
<event>
 6    1  0.4259848E-002  0.1276960E+03  0.7546771E-02  0.1230915E+00
         21   -1    0    0  504  502  0.00000000000E+00  0.00000000000E+00  0.30973606559E+02  0.30973606559E+02  0.00000000000E+00 0. -1.
         21   -1    0    0  502  503 -0.00000000000E+00 -0.00000000000E+00 -0.20265389414E+03  0.20265389414E+03  0.00000000000E+00 0. -1.
         25    2    1    2    0    0  0.22664652835E+02 -0.12942062279E+02 -0.11768362791E+03  0.17365398388E+03  0.12500034550E+03 0.  0.
          5    1    3    3  501    0  0.32021834742E+01  0.10311086095E+02 -0.13717970044E+03  0.13760397047E+03  0.10000000000E+00 0. -1.
         -5    1    3    3    0  501  0.19462469360E+02 -0.23253148375E+02  0.19496072529E+02  0.36050013412E+02  0.10000000000E+00 0. -1.
         21    1    1    2  504  503 -0.22664652835E+02  0.12942062279E+02 -0.53996659664E+02  0.59973516814E+02  0.00000000000E+00 0. -1.
<mgrwt>
<rscale>  1 0.12769601E+03</rscale>
<asrwt>0</asrwt>
<pdfrwt beam="1">  1       21 0.47651701E-02 0.12769601E+03</pdfrwt>
<pdfrwt beam="2">  1       21 0.31177523E-01 0.12769601E+03</pdfrwt>
<totfact> 0.28580826E+06</totfact>
</mgrwt>
</event>
<event>
 6    1  0.4259848E-002  0.1313411E+03  0.7546771E-02  0.1225479E+00
         21   -1    0    0  503  502  0.00000000000E+00  0.00000000000E+00  0.29013571121E+03  0.29013571121E+03  0.00000000000E+00 0. -1.
         21   -1    0    0  504  503 -0.00000000000E+00 -0.00000000000E+00 -0.45166561430E+02  0.45166561430E+02  0.00000000000E+00 0. -1.
         25    2    1    2    0    0  0.37668435450E+02  0.14211677960E+02  0.26082868185E+03  0.29203094753E+03  0.12501835954E+03 0.  0.
          5    1    3    3  501    0  0.24387026867E+02  0.58791231376E+02  0.22350774088E+03  0.23239375250E+03  0.10000000000E+00 0.  1.
         -5    1    3    3    0  501  0.13281408583E+02 -0.44579553416E+02  0.37320940966E+02  0.59637195033E+02  0.10000000000E+00 0.  1.
         21    1    1    2  504  502 -0.37668435450E+02 -0.14211677960E+02 -0.15859532065E+02  0.43271325113E+02  0.00000000000E+00 0. -1.
<mgrwt>
<rscale>  1 0.13134106E+03</rscale>
<asrwt>0</asrwt>
<pdfrwt beam="1">  1       21 0.44636262E-01 0.13134106E+03</pdfrwt>
<pdfrwt beam="2">  1       21 0.69487019E-02 0.13134106E+03</pdfrwt>
<totfact> 0.74166496E+05</totfact>
</mgrwt>
</event>
<event>
 6    1  0.4259848E-002  0.1270392E+03  0.7546771E-02  0.1231916E+00
         21   -1    0    0  503  502  0.00000000000E+00  0.00000000000E+00  0.31353374141E+03  0.31353374141E+03  0.00000000000E+00 0.  1.
         21   -1    0    0  504  503 -0.00000000000E+00 -0.00000000000E+00 -0.18082678789E+02  0.18082678789E+02  0.00000000000E+00 0.  1.
         25    2    1    2    0    0 -0.21753620848E+02 -0.66278809405E+01  0.26189327790E+03  0.29107910725E+03  0.12498723472E+03 0.  0.
          5    1    3    3  501    0  0.21941027373E+02  0.49571338981E+02  0.13678956055E+03  0.14713979818E+03  0.10000000000E+00 0. -1.
         -5    1    3    3    0  501 -0.43694648221E+02 -0.56199219922E+02  0.12510371735E+03  0.14393930907E+03  0.10000000000E+00 0. -1.
         21    1    1    2  504  502  0.21753620848E+02  0.66278809405E+01  0.33557784722E+02  0.40537312950E+02  0.00000000000E+00 0.  1.
<mgrwt>
<rscale>  1 0.12703920E+03</rscale>
<asrwt>0</asrwt>
<pdfrwt beam="1">  1       21 0.48235956E-01 0.12703920E+03</pdfrwt>
<pdfrwt beam="2">  1       21 0.27819508E-02 0.12703920E+03</pdfrwt>
<totfact> 0.29183749E+06</totfact>
</mgrwt>
</event>
<event>
 6    1  0.4259848E-002  0.1273834E+03  0.7546771E-02  0.1231391E+00
         21   -1    0    0  503  502  0.00000000000E+00  0.00000000000E+00  0.10258523770E+02  0.10258523770E+02  0.00000000000E+00 0. -1.
         21   -1    0    0  504  503 -0.00000000000E+00 -0.00000000000E+00 -0.92997184180E+03  0.92997184180E+03  0.00000000000E+00 0. -1.
         25    2    1    2    0    0 -0.21825958995E+02  0.11161201860E+02 -0.39685772705E+03  0.41680041426E+03  0.12500233955E+03 0.  0.
          5    1    3    3  501    0 -0.31091389936E+02  0.57535707743E+02 -0.12720316363E+03  0.14303037101E+03  0.10000000000E+00 0. -1.
         -5    1    3    3    0  501  0.92654309410E+01 -0.46374505883E+02 -0.26965456342E+03  0.27377004325E+03  0.10000000000E+00 0. -1.
         21    1    1    2  504  502  0.21825958995E+02 -0.11161201860E+02 -0.52285559098E+03  0.52342995131E+03  0.00000000000E+00 0. -1.
<mgrwt>
<rscale>  1 0.12738340E+03</rscale>
<asrwt>0</asrwt>
<pdfrwt beam="1">  1       21 0.15782344E-02 0.12738340E+03</pdfrwt>
<pdfrwt beam="2">  1       21 0.14307259E+00 0.12738340E+03</pdfrwt>
<totfact> 0.62026678E+05</totfact>
</mgrwt>
</event>
<event>
 6    1  0.4259848E-002  0.1300134E+03  0.7546771E-02  0.1227436E+00
         21   -1    0    0  504  502  0.00000000000E+00  0.00000000000E+00  0.12070654134E+03  0.12070654134E+03  0.00000000000E+00 0. -1.
         21   -1    0    0  502  503 -0.00000000000E+00 -0.00000000000E+00 -0.98203697122E+02  0.98203697122E+02  0.00000000000E+00 0. -1.
         25    2    1    2    0    0 -0.47169361851E+01  0.35450326441E+02  0.78935736955E+02  0.15209971149E+03  0.12499798612E+03 0.  0.
          5    1    3    3  501    0 -0.16208887591E+02 -0.45123466631E+02  0.36862021352E+02  0.60478706136E+02  0.10000000000E+00 0. -1.
         -5    1    3    3    0  501  0.11491951406E+02  0.80573793071E+02  0.42073715603E+02  0.91621005352E+02  0.10000000000E+00 0. -1.
         21    1    1    2  504  503  0.47169361851E+01 -0.35450326441E+02 -0.56432892738E+02  0.66810526974E+02  0.00000000000E+00 0. -1.
<mgrwt>
<rscale>  1 0.13001335E+03</rscale>
<asrwt>0</asrwt>
<pdfrwt beam="1">  1       21 0.18570237E-01 0.13001335E+03</pdfrwt>
<pdfrwt beam="2">  1       21 0.15108261E-01 0.13001335E+03</pdfrwt>
<totfact> 0.10267955E+06</totfact>
</mgrwt>
</event>
<event>
 6    1  0.4259848E-002  0.1583515E+03  0.7546771E-02  0.1190571E+00
         21   -1    0    0  503  502  0.00000000000E+00  0.00000000000E+00  0.10579410702E+03  0.10579410702E+03  0.00000000000E+00 0. -1.
         21   -1    0    0  504  503 -0.00000000000E+00 -0.00000000000E+00 -0.20183711444E+03  0.20183711444E+03  0.00000000000E+00 0. -1.
         25    2    1    2    0    0 -0.78244343744E+02 -0.57683904390E+02  0.16161715662E+02  0.15917412316E+03  0.12500236109E+03 0.  0.
          5    1    3    3  501    0 -0.41440445776E+01 -0.72521189098E+02  0.35959000164E+02  0.81052795550E+02  0.10000000000E+00 0.  1.
         -5    1    3    3    0  501 -0.74100299167E+02  0.14837284707E+02 -0.19797284502E+02  0.78121327611E+02  0.10000000000E+00 0.  1.
         21    1    1    2  504  502  0.78244343744E+02  0.57683904390E+02 -0.11220472308E+03  0.14845709830E+03  0.00000000000E+00 0. -1.
<mgrwt>
<rscale>  1 0.15835151E+03</rscale>
<asrwt>0</asrwt>
<pdfrwt beam="1">  1       21 0.16276017E-01 0.15835151E+03</pdfrwt>
<pdfrwt beam="2">  1       21 0.31051864E-01 0.15835151E+03</pdfrwt>
<totfact> 0.33919270E+05</totfact>
</mgrwt>
</event>
<event>
 6    1  0.4259848E-002  0.1339426E+03  0.7546771E-02  0.1221720E+00
         21   -1    0    0  503  502  0.00000000000E+00  0.00000000000E+00  0.18337996813E+03  0.18337996813E+03  0.00000000000E+00 0. -1.
         21   -1    0    0  504  503 -0.00000000000E+00 -0.00000000000E+00 -0.30807116543E+03  0.30807116543E+03  0.00000000000E+00 0. -1.
         25    2    1    2    0    0  0.47789713834E+02 -0.59525141560E+01  0.15659928818E+03  0.20606783623E+03  0.12498530673E+03 0.  0.
          5    1    3    3  501    0 -0.34781789610E+01 -0.24896824612E+02  0.14874012303E+03  0.15084954029E+03  0.10000000000E+00 0. -1.
         -5    1    3    3    0  501  0.51267892796E+02  0.18944310456E+02  0.78591651448E+01  0.55218295946E+02  0.10000000000E+00 0. -1.
         21    1    1    2  504  502 -0.47789713834E+02  0.59525141560E+01 -0.28129048548E+03  0.28538329733E+03  0.00000000000E+00 0. -1.
<mgrwt>
<rscale>  1 0.13394258E+03</rscale>
<asrwt>0</asrwt>
<pdfrwt beam="1">  1       21 0.28212303E-01 0.13394258E+03</pdfrwt>
<pdfrwt beam="2">  1       21 0.47395563E-01 0.13394258E+03</pdfrwt>
<totfact> 0.52613454E+04</totfact>
</mgrwt>
</event>
<event>
 6    1  0.4259848E-002  0.1273878E+03  0.7546771E-02  0.1231384E+00
         21   -1    0    0  504  502  0.00000000000E+00  0.00000000000E+00  0.48991310545E+03  0.48991310545E+03  0.00000000000E+00 0. -1.
         21   -1    0    0  502  503 -0.00000000000E+00 -0.00000000000E+00 -0.43080598288E+02  0.43080598288E+02  0.00000000000E+00 0. -1.
         25    2    1    2    0    0  0.16529732079E+02  0.18099574184E+02  0.47723297056E+03  0.49394226583E+03  0.12500730841E+03 0.  0.
          5    1    3    3  501    0 -0.16135994970E+02  0.63972149993E+02  0.32495280521E+03  0.33158278291E+03  0.10000000000E+00 0.  1.
         -5    1    3    3    0  501  0.32665727049E+02 -0.45872575808E+02  0.15228016535E+03  0.16235948292E+03  0.10000000000E+00 0.  1.
         21    1    1    2  504  503 -0.16529732079E+02 -0.18099574184E+02 -0.30400463396E+02  0.39051437911E+02  0.00000000000E+00 0. -1.
<mgrwt>
<rscale>  1 0.12738781E+03</rscale>
<asrwt>0</asrwt>
<pdfrwt beam="1">  1       21 0.75371243E-01 0.12738781E+03</pdfrwt>
<pdfrwt beam="2">  1       21 0.66277847E-02 0.12738781E+03</pdfrwt>
<totfact> 0.26570700E+05</totfact>
</mgrwt>
</event>
<event>
 6    1  0.4259848E-002  0.1335499E+03  0.7546771E-02  0.1222281E+00
         21   -1    0    0  504  502  0.00000000000E+00  0.00000000000E+00  0.34475100100E+03  0.34475100100E+03  0.00000000000E+00 0. -1.
         21   -1    0    0  502  503 -0.00000000000E+00 -0.00000000000E+00 -0.24058023782E+02  0.24058023782E+02  0.00000000000E+00 0. -1.
         25    2    1    2    0    0 -0.46163050250E+01 -0.46791464232E+02  0.21457445051E+03  0.25274054023E+03  0.12499933785E+03 0.  0.
          5    1    3    3  501    0  0.56102011477E+02 -0.30135530059E+02  0.14794468129E+03  0.16106900567E+03  0.10000000000E+00 0. -1.
         -5    1    3    3    0  501 -0.60718316502E+02 -0.16655934173E+02  0.66629769221E+02  0.91671534560E+02  0.10000000000E+00 0. -1.
         21    1    1    2  504  503  0.46163050250E+01  0.46791464232E+02  0.10611852670E+03  0.11606848456E+03  0.00000000000E+00 0. -1.
<mgrwt>
<rscale>  1 0.13354994E+03</rscale>
<asrwt>0</asrwt>
<pdfrwt beam="1">  1       21 0.53038612E-01 0.13354994E+03</pdfrwt>
<pdfrwt beam="2">  1       21 0.37012347E-02 0.13354994E+03</pdfrwt>
<totfact> 0.15012253E+06</totfact>
</mgrwt>
</event>
<event>
 6    1  0.4259848E-002  0.1267015E+03  0.7546771E-02  0.1232434E+00
         21   -1    0    0  503  502  0.00000000000E+00  0.00000000000E+00  0.34821573798E+03  0.34821573798E+03  0.00000000000E+00 0.  1.
         21   -1    0    0  504  503 -0.00000000000E+00 -0.00000000000E+00 -0.15631713035E+02  0.15631713035E+02  0.00000000000E+00 0.  1.
         25    2    1    2    0    0  0.17961008688E+02  0.10293558032E+02  0.27986299035E+03  0.30720768885E+03  0.12499886218E+03 0.  0.
          5    1    3    3  501    0 -0.32987452158E+02 -0.19994856706E+02  0.21855403254E+03  0.22193206491E+03  0.10000000000E+00 0. -1.
         -5    1    3    3    0  501  0.50948460846E+02  0.30288414738E+02  0.61308957809E+02  0.85275623936E+02  0.10000000000E+00 0. -1.
         21    1    1    2  504  502 -0.17961008688E+02 -0.10293558032E+02  0.52721034593E+02  0.56639762169E+02  0.00000000000E+00 0.  1.
<mgrwt>
<rscale>  1 0.12670150E+03</rscale>
<asrwt>0</asrwt>
<pdfrwt beam="1">  1       21 0.53571646E-01 0.12670150E+03</pdfrwt>
<pdfrwt beam="2">  1       21 0.24048792E-02 0.12670150E+03</pdfrwt>
<totfact> 0.29782824E+06</totfact>
</mgrwt>
</event>
<event>
 6    1  0.4259848E-002  0.1274191E+03  0.7546771E-02  0.1231336E+00
         21   -1    0    0  503  502  0.00000000000E+00  0.00000000000E+00  0.56605041208E+03  0.56605041208E+03  0.00000000000E+00 0.  1.
         21   -1    0    0  504  503 -0.00000000000E+00 -0.00000000000E+00 -0.81045140318E+02  0.81045140318E+02  0.00000000000E+00 0.  1.
         25    2    1    2    0    0 -0.19203648802E+02 -0.15521312605E+02  0.55678959655E+03  0.57118323089E+03  0.12500374852E+03 0.  0.
          5    1    3    3  501    0  0.61248810770E+01  0.47459873349E+02  0.12067209207E+03  0.12981416545E+03  0.10000000000E+00 0.  1.
         -5    1    3    3    0  501 -0.25328529879E+02 -0.62981185954E+02  0.43611750448E+03  0.44136906544E+03  0.10000000000E+00 0.  1.
         21    1    1    2  504  502  0.19203648802E+02  0.15521312605E+02 -0.71784324788E+02  0.75912321514E+02  0.00000000000E+00 0.  1.
<mgrwt>
<rscale>  1 0.12741911E+03</rscale>
<asrwt>0</asrwt>
<pdfrwt beam="1">  1       21 0.87084676E-01 0.12741911E+03</pdfrwt>
<pdfrwt beam="2">  1       21 0.12468483E-01 0.12741911E+03</pdfrwt>
<totfact> 0.64090873E+04</totfact>
</mgrwt>
</event>
<event>
 6    1  0.4259848E-002  0.1269848E+03  0.7546771E-02  0.1232000E+00
         21   -1    0    0  503  502  0.00000000000E+00  0.00000000000E+00  0.56948973298E+03  0.56948973298E+03  0.00000000000E+00 0. -1.
         21   -1    0    0  504  503 -0.00000000000E+00 -0.00000000000E+00 -0.16086712563E+02  0.16086712563E+02  0.00000000000E+00 0. -1.
         25    2    1    2    0    0  0.85020494439E+01  0.20652050507E+02  0.54810546969E+03  0.56262309985E+03  0.12500541805E+03 0.  0.
          5    1    3    3  501    0  0.31273710536E+02  0.47456530480E+02  0.11688134786E+03  0.12996702171E+03  0.10000000000E+00 0. -1.
         -5    1    3    3    0  501 -0.22771661092E+02 -0.26804479972E+02  0.43122412184E+03  0.43265607814E+03  0.10000000000E+00 0. -1.
         21    1    1    2  504  502 -0.85020494439E+01 -0.20652050507E+02  0.52975507265E+01  0.22953345695E+02  0.00000000000E+00 0. -1.
<mgrwt>
<rscale>  1 0.12698483E+03</rscale>
<asrwt>0</asrwt>
<pdfrwt beam="1">  1       21 0.87613790E-01 0.12698483E+03</pdfrwt>
<pdfrwt beam="2">  1       21 0.24748793E-02 0.12698483E+03</pdfrwt>
<totfact> 0.97590156E+05</totfact>
</mgrwt>
</event>
<event>
 6    1  0.4259848E-002  0.1531739E+03  0.7546771E-02  0.1196626E+00
         21   -1    0    0  503  502  0.00000000000E+00  0.00000000000E+00  0.26577356649E+03  0.26577356649E+03  0.00000000000E+00 0. -1.
         21   -1    0    0  504  503 -0.00000000000E+00 -0.00000000000E+00 -0.11133385900E+03  0.11133385900E+03  0.00000000000E+00 0.  1.
         25    2    1    2    0    0  0.14357158139E+02  0.87355615043E+02  0.21920437756E+03  0.26741880276E+03  0.12500050184E+03 0.  0.
          5    1    3    3  501    0  0.68281368635E+02  0.42302444308E+02  0.92280052892E+02  0.12234157208E+03  0.10000000000E+00 0.  1.
         -5    1    3    3    0  501 -0.53924210496E+02  0.45053170735E+02  0.12692432466E+03  0.14507723068E+03  0.10000000000E+00 0.  1.
         21    1    1    2  504  502 -0.14357158139E+02 -0.87355615043E+02 -0.64764670065E+02  0.10968862274E+03  0.00000000000E+00 0.  1.
<mgrwt>
<rscale>  1 0.15317394E+03</rscale>
<asrwt>0</asrwt>
<pdfrwt beam="1">  1       21 0.40888241E-01 0.15317394E+03</pdfrwt>
<pdfrwt beam="2">  1       21 0.17128286E-01 0.15317394E+03</pdfrwt>
<totfact> 0.17940781E+05</totfact>
</mgrwt>
</event>
<event>
 6    1  0.4259848E-002  0.1271529E+03  0.7546771E-02  0.1231743E+00
         21   -1    0    0  503  502  0.00000000000E+00  0.00000000000E+00  0.23245122291E+02  0.23245122291E+02  0.00000000000E+00 0. -1.
         21   -1    0    0  504  503 -0.00000000000E+00 -0.00000000000E+00 -0.18248645060E+04  0.18248645060E+04  0.00000000000E+00 0. -1.
         25    2    1    2    0    0  0.20947487524E+02 -0.10269595482E+02 -0.15134060758E+03  0.19766596044E+03  0.12499436222E+03 0.  0.
          5    1    3    3  501    0  0.15088156095E+02  0.44782963010E+02 -0.13537500906E+02  0.49157300181E+02  0.10000000000E+00 0. -1.
         -5    1    3    3    0  501  0.58593314291E+01 -0.55052558492E+02 -0.13780310668E+03  0.14850866026E+03  0.10000000000E+00 0. -1.
         21    1    1    2  504  502 -0.20947487524E+02  0.10269595482E+02 -0.16502787761E+04  0.16504436679E+04  0.00000000000E+00 0. -1.
<mgrwt>
<rscale>  1 0.12715287E+03</rscale>
<asrwt>0</asrwt>
<pdfrwt beam="1">  1       21 0.35761695E-02 0.12715287E+03</pdfrwt>
<pdfrwt beam="2">  1       21 0.28074863E+00 0.12715287E+03</pdfrwt>
<totfact> 0.22361396E+04</totfact>
</mgrwt>
</event>
<event>
 6    1  0.4259848E-002  0.1407086E+03  0.7546771E-02  0.1212379E+00
         21   -1    0    0  503  502  0.00000000000E+00  0.00000000000E+00  0.10876786684E+04  0.10876786684E+04  0.00000000000E+00 0.  1.
         21   -1    0    0  504  503 -0.00000000000E+00 -0.00000000000E+00 -0.10349055020E+02  0.10349055020E+02  0.00000000000E+00 0.  1.
         25    2    1    2    0    0  0.37066394190E+02 -0.52915065993E+02  0.85502150459E+03  0.86652217917E+03  0.12499996753E+03 0.  0.
          5    1    3    3  501    0 -0.39214655993E+01 -0.87069511837E+02  0.50778250195E+03  0.51520826572E+03  0.10000000000E+00 0.  1.
         -5    1    3    3    0  501  0.40987859789E+02  0.34154445844E+02  0.34723900264E+03  0.35131391344E+03  0.10000000000E+00 0.  1.
         21    1    1    2  504  502 -0.37066394190E+02  0.52915065993E+02  0.22230810875E+03  0.23150554422E+03  0.00000000000E+00 0.  1.
<mgrwt>
<rscale>  1 0.14070861E+03</rscale>
<asrwt>0</asrwt>
<pdfrwt beam="1">  1       21 0.16733509E+00 0.14070861E+03</pdfrwt>
<pdfrwt beam="2">  1       21 0.15921632E-02 0.14070861E+03</pdfrwt>
<totfact> 0.40404800E+05</totfact>
</mgrwt>
</event>
<event>
 6    1  0.4259848E-002  0.1331052E+03  0.7546771E-02  0.1222920E+00
         21   -1    0    0  504  502  0.00000000000E+00  0.00000000000E+00  0.36583171287E+02  0.36583171287E+02  0.00000000000E+00 0. -1.
         21   -1    0    0  502  503 -0.00000000000E+00 -0.00000000000E+00 -0.22029394182E+03  0.22029394182E+03  0.00000000000E+00 0. -1.
         25    2    1    2    0    0 -0.25577727018E+02 -0.37942273761E+02 -0.12661009469E+03  0.18370387046E+03  0.12499263853E+03 0.  0.
          5    1    3    3  501    0 -0.42964415440E+02 -0.51300871028E+02 -0.14195861700E+03  0.15693941284E+03  0.10000000000E+00 0. -1.
         -5    1    3    3    0  501  0.17386688422E+02  0.13358597266E+02  0.15348522303E+02  0.26764457627E+02  0.10000000000E+00 0. -1.
         21    1    1    2  504  503  0.25577727018E+02  0.37942273761E+02 -0.57100675842E+02  0.73173242645E+02  0.00000000000E+00 0. -1.
<mgrwt>
<rscale>  1 0.13310521E+03</rscale>
<asrwt>0</asrwt>
<pdfrwt beam="1">  1       21 0.56281801E-02 0.13310521E+03</pdfrwt>
<pdfrwt beam="2">  1       21 0.33891376E-01 0.13310521E+03</pdfrwt>
<totfact> 0.18380224E+06</totfact>
</mgrwt>
</event>
<event>
 6    1  0.4259848E-002  0.1424518E+03  0.7546771E-02  0.1210067E+00
         21   -1    0    0  504  502  0.00000000000E+00  0.00000000000E+00  0.50089847093E+02  0.50089847093E+02  0.00000000000E+00 0. -1.
         21   -1    0    0  502  503 -0.00000000000E+00 -0.00000000000E+00 -0.22782348464E+03  0.22782348464E+03  0.00000000000E+00 0. -1.
         25    2    1    2    0    0  0.63367198333E+02  0.25526030550E+02 -0.14062618062E+03  0.20017052873E+03  0.12500215131E+03 0.  0.
          5    1    3    3  501    0  0.10459829352E+02  0.70880336366E+02 -0.58764420564E+02  0.92664433510E+02  0.10000000000E+00 0. -1.
         -5    1    3    3    0  501  0.52907368981E+02 -0.45354305816E+02 -0.81861760059E+02  0.10750609522E+03  0.10000000000E+00 0. -1.
         21    1    1    2  504  503 -0.63367198333E+02 -0.25526030550E+02 -0.37107456925E+02  0.77742803009E+02  0.00000000000E+00 0. -1.
<mgrwt>
<rscale>  1 0.14245181E+03</rscale>
<asrwt>0</asrwt>
<pdfrwt beam="1">  1       21 0.77061304E-02 0.14245181E+03</pdfrwt>
<pdfrwt beam="2">  1       21 0.35049767E-01 0.14245181E+03</pdfrwt>
<totfact> 0.10069627E+06</totfact>
</mgrwt>
</event>
<event>
 6    1  0.4259848E-002  0.1439452E+03  0.7546771E-02  0.1208117E+00
         21   -1    0    0  504  502  0.00000000000E+00  0.00000000000E+00  0.31660934037E+03  0.31660934037E+03  0.00000000000E+00 0. -1.
         21   -1    0    0  502  503 -0.00000000000E+00 -0.00000000000E+00 -0.50406637326E+02  0.50406637326E+02  0.00000000000E+00 0. -1.
         25    2    1    2    0    0  0.38131720469E+02  0.60356303415E+02  0.73729877980E+02  0.16172910560E+03  0.12499318871E+03 0.  0.
          5    1    3    3  501    0 -0.35585138264E+02  0.16695110994E+01 -0.85498370572E+01  0.36636034806E+02  0.10000000000E+00 0.  1.
         -5    1    3    3    0  501  0.73716858733E+02  0.58686792315E+02  0.82279715037E+02  0.12509307079E+03  0.10000000000E+00 0.  1.
         21    1    1    2  504  503 -0.38131720469E+02 -0.60356303415E+02  0.19247282506E+03  0.20528687210E+03  0.00000000000E+00 0. -1.
<mgrwt>
<rscale>  1 0.14394516E+03</rscale>
<asrwt>0</asrwt>
<pdfrwt beam="1">  1       21 0.48709128E-01 0.14394516E+03</pdfrwt>
<pdfrwt beam="2">  1       21 0.77548675E-02 0.14394516E+03</pdfrwt>
<totfact> 0.51332953E+05</totfact>
</mgrwt>
</event>
<event>
 6    1  0.4259848E-002  0.1330013E+03  0.7546771E-02  0.1223069E+00
         21   -1    0    0  504  502  0.00000000000E+00  0.00000000000E+00  0.20016814631E+02  0.20016814631E+02  0.00000000000E+00 0.  1.
         21   -1    0    0  502  503 -0.00000000000E+00 -0.00000000000E+00 -0.20602783058E+04  0.20602783058E+04  0.00000000000E+00 0.  1.
         25    2    1    2    0    0 -0.26137007038E+02 -0.37177797294E+02 -0.20434345514E+03  0.24381469125E+03  0.12499609699E+03 0.  0.
          5    1    3    3  501    0  0.32731846480E+02  0.52938306532E+01 -0.74748542812E+01  0.33989437529E+02  0.10000000000E+00 0.  1.
         -5    1    3    3    0  501 -0.58868853518E+02 -0.42471627947E+02 -0.19686860086E+03  0.20982525372E+03  0.10000000000E+00 0.  1.
         21    1    1    2  504  503  0.26137007038E+02  0.37177797294E+02 -0.18359180360E+04  0.18364804292E+04  0.00000000000E+00 0.  1.
<mgrwt>
<rscale>  1 0.13300134E+03</rscale>
<asrwt>0</asrwt>
<pdfrwt beam="1">  1       21 0.30795086E-02 0.13300134E+03</pdfrwt>
<pdfrwt beam="2">  1       21 0.31696603E+00 0.13300134E+03</pdfrwt>
<totfact> 0.17749371E+04</totfact>
</mgrwt>
</event>
<event>
 6    1  0.4259848E-002  0.2158981E+03  0.7546771E-02  0.1136979E+00
         21   -1    0    0  503  502  0.00000000000E+00  0.00000000000E+00  0.60317127173E+02  0.60317127173E+02  0.00000000000E+00 0. -1.
         21   -1    0    0  504  503 -0.00000000000E+00 -0.00000000000E+00 -0.10204239282E+04  0.10204239282E+04  0.00000000000E+00 0.  1.
         25    2    1    2    0    0  0.16537329025E+03  0.60313351058E+02 -0.18020900851E+03  0.28122458137E+03  0.12500381184E+03 0.  0.
          5    1    3    3  501    0  0.16644767664E+03  0.40633617739E+02 -0.99474063828E+02  0.19811870009E+03  0.10000000000E+00 0. -1.
         -5    1    3    3    0  501 -0.10743863984E+01  0.19679733319E+02 -0.80734944686E+02  0.83105881279E+02  0.10000000000E+00 0. -1.
         21    1    1    2  504  502 -0.16537329025E+03 -0.60313351058E+02 -0.77989779255E+03  0.79951647405E+03  0.00000000000E+00 0.  1.
<mgrwt>
<rscale>  1 0.21589807E+03</rscale>
<asrwt>0</asrwt>
<pdfrwt beam="1">  1       21 0.92795588E-02 0.21589807E+03</pdfrwt>
<pdfrwt beam="2">  1       21 0.15698828E+00 0.21589807E+03</pdfrwt>
<totfact> 0.24155925E+04</totfact>
</mgrwt>
</event>
<event>
 6    1  0.4259848E-002  0.1279131E+03  0.7546771E-02  0.1230586E+00
         21   -1    0    0  503  502  0.00000000000E+00  0.00000000000E+00  0.61801234417E+03  0.61801234417E+03  0.00000000000E+00 0.  1.
         21   -1    0    0  504  503 -0.00000000000E+00 -0.00000000000E+00 -0.12549842348E+02  0.12549842348E+02  0.00000000000E+00 0.  1.
         25    2    1    2    0    0 -0.20092484170E+02  0.18260376665E+02  0.57784766924E+03  0.59183586143E+03  0.12499843502E+03 0.  0.
          5    1    3    3  501    0 -0.19691043594E+02  0.35349004855E+02  0.52856949885E+02  0.66566932430E+02  0.10000000000E+00 0.  1.
         -5    1    3    3    0  501 -0.40144057590E+00 -0.17088628190E+02  0.52499071935E+03  0.52526892900E+03  0.10000000000E+00 0.  1.
         21    1    1    2  504  502  0.20092484170E+02 -0.18260376665E+02  0.27614832587E+02  0.38726325089E+02  0.00000000000E+00 0.  1.
<mgrwt>
<rscale>  1 0.12791309E+03</rscale>
<asrwt>0</asrwt>
<pdfrwt beam="1">  1       21 0.95078798E-01 0.12791309E+03</pdfrwt>
<pdfrwt beam="2">  1       21 0.19307455E-02 0.12791309E+03</pdfrwt>
<totfact> 0.12093427E+06</totfact>
</mgrwt>
</event>
<event>
 6    1  0.4259848E-002  0.1275880E+03  0.7546771E-02  0.1231079E+00
         21   -1    0    0  504  502  0.00000000000E+00  0.00000000000E+00  0.96588926917E+02  0.96588926917E+02  0.00000000000E+00 0.  1.
         21   -1    0    0  502  503 -0.00000000000E+00 -0.00000000000E+00 -0.76846956836E+02  0.76846956836E+02  0.00000000000E+00 0.  1.
         25    2    1    2    0    0  0.24897919922E+02 -0.57724330978E+01  0.47093193723E+02  0.13600171707E+03  0.12500188299E+03 0.  0.
          5    1    3    3  501    0 -0.43135405776E+01 -0.60767251637E+02  0.56102327691E+01  0.61178020690E+02  0.10000000000E+00 0.  1.
         -5    1    3    3    0  501  0.29211460500E+02  0.54994818540E+02  0.41482960954E+02  0.74823696382E+02  0.10000000000E+00 0.  1.
         21    1    1    2  504  503 -0.24897919922E+02  0.57724330978E+01 -0.27351223642E+02  0.37434166680E+02  0.00000000000E+00 0. -1.
<mgrwt>
<rscale>  1 0.12758800E+03</rscale>
<asrwt>0</asrwt>
<pdfrwt beam="1">  1       21 0.14859835E-01 0.12758800E+03</pdfrwt>
<pdfrwt beam="2">  1       21 0.11822609E-01 0.12758800E+03</pdfrwt>
<totfact> 0.23852617E+06</totfact>
</mgrwt>
</event>
<event>
 6    1  0.4259848E-002  0.1263077E+03  0.7546771E-02  0.1233040E+00
         21   -1    0    0  504  502  0.00000000000E+00  0.00000000000E+00  0.25680002169E+02  0.25680002169E+02  0.00000000000E+00 0. -1.
         21   -1    0    0  502  503 -0.00000000000E+00 -0.00000000000E+00 -0.29247915131E+03  0.29247915131E+03  0.00000000000E+00 0. -1.
         25    2    1    2    0    0  0.13306819451E+02 -0.12185663545E+02 -0.13402226883E+03  0.18416190804E+03  0.12501231136E+03 0.  0.
          5    1    3    3  501    0  0.29468848127E+02  0.63998082986E+01 -0.15117129995E+03  0.15414974046E+03  0.10000000000E+00 0.  1.
         -5    1    3    3    0  501 -0.16162028676E+02 -0.18585471844E+02  0.17149031118E+02  0.30012167580E+02  0.10000000000E+00 0.  1.
         21    1    1    2  504  503 -0.13306819451E+02  0.12185663545E+02 -0.13277688031E+03  0.13399724543E+03  0.00000000000E+00 0. -1.
<mgrwt>
<rscale>  1 0.12630772E+03</rscale>
<asrwt>0</asrwt>
<pdfrwt beam="1">  1       21 0.39507695E-02 0.12630772E+03</pdfrwt>
<pdfrwt beam="2">  1       21 0.44996793E-01 0.12630772E+03</pdfrwt>
<totfact> 0.18874115E+06</totfact>
</mgrwt>
</event>
<event>
 6    1  0.4259848E-002  0.1260752E+03  0.7546771E-02  0.1233398E+00
         21   -1    0    0  503  502  0.00000000000E+00  0.00000000000E+00  0.74972508492E+03  0.74972508492E+03  0.00000000000E+00 0. -1.
         21   -1    0    0  504  503 -0.00000000000E+00 -0.00000000000E+00 -0.88106947378E+01  0.88106947378E+01  0.00000000000E+00 0. -1.
         25    2    1    2    0    0  0.14731853492E+02  0.72598709160E+01  0.72423880588E+03  0.73513047375E+03  0.12500092902E+03 0.  0.
          5    1    3    3  501    0  0.37107115940E+02  0.64335349836E+01  0.70382177602E+03  0.70482865352E+03  0.10000000000E+00 0. -1.
         -5    1    3    3    0  501 -0.22375262448E+02  0.82633593239E+00  0.20417029865E+02  0.30301820229E+02  0.10000000000E+00 0. -1.
         21    1    1    2  504  502 -0.14731853492E+02 -0.72598709160E+01  0.16675584303E+02  0.23405305913E+02  0.00000000000E+00 0. -1.
<mgrwt>
<rscale>  1 0.12607524E+03</rscale>
<asrwt>0</asrwt>
<pdfrwt beam="1">  1       21 0.11534227E+00 0.12607524E+03</pdfrwt>
<pdfrwt beam="2">  1       21 0.13554921E-02 0.12607524E+03</pdfrwt>
<totfact> 0.13494081E+06</totfact>
</mgrwt>
</event>
<event>
 6    1  0.4259848E-002  0.1321753E+03  0.7546771E-02  0.1224263E+00
         21   -1    0    0  504  502  0.00000000000E+00  0.00000000000E+00  0.40020666490E+03  0.40020666490E+03  0.00000000000E+00 0. -1.
         21   -1    0    0  502  503 -0.00000000000E+00 -0.00000000000E+00 -0.21555759055E+02  0.21555759055E+02  0.00000000000E+00 0. -1.
         25    2    1    2    0    0 -0.12171414836E+02  0.41107742985E+02  0.33698334107E+03  0.36197801272E+03  0.12502927522E+03 0.  0.
          5    1    3    3  501    0  0.94845026788E+01  0.44791343167E+01  0.31291569460E+03  0.31309145687E+03  0.10000000000E+00 0. -1.
         -5    1    3    3    0  501 -0.21655917515E+02  0.36628608668E+02  0.24067646464E+02  0.48886555849E+02  0.10000000000E+00 0. -1.
         21    1    1    2  504  503  0.12171414836E+02 -0.41107742985E+02  0.41667564775E+02  0.59784411235E+02  0.00000000000E+00 0. -1.
<mgrwt>
<rscale>  1 0.13217530E+03</rscale>
<asrwt>0</asrwt>
<pdfrwt beam="1">  1       21 0.61570251E-01 0.13217530E+03</pdfrwt>
<pdfrwt beam="2">  1       21 0.33162709E-02 0.13217530E+03</pdfrwt>
<totfact> 0.13140868E+06</totfact>
</mgrwt>
</event>
<event>
 6    1  0.4259848E-002  0.1326036E+03  0.7546771E-02  0.1223643E+00
         21   -1    0    0  503  502  0.00000000000E+00  0.00000000000E+00  0.27891839570E+03  0.27891839570E+03  0.00000000000E+00 0.  1.
         21   -1    0    0  504  503 -0.00000000000E+00 -0.00000000000E+00 -0.36141513308E+02  0.36141513308E+02  0.00000000000E+00 0.  1.
         25    2    1    2    0    0 -0.13479145159E+01  0.44245992364E+02  0.23540510161E+03  0.27018376985E+03  0.12499673161E+03 0.  0.
          5    1    3    3  501    0 -0.47776037680E+02  0.16519421279E+02  0.19819761787E+03  0.20454277496E+03  0.10000000000E+00 0.  1.
         -5    1    3    3    0  501  0.46428123165E+02  0.27726571085E+02  0.37207483737E+02  0.65640994895E+02  0.10000000000E+00 0.  1.
         21    1    1    2  504  502  0.13479145159E+01 -0.44245992364E+02  0.73717807807E+01  0.44876139158E+02  0.00000000000E+00 0.  1.
<mgrwt>
<rscale>  1 0.13260357E+03</rscale>
<asrwt>0</asrwt>
<pdfrwt beam="1">  1       21 0.42910521E-01 0.13260357E+03</pdfrwt>
<pdfrwt beam="2">  1       21 0.55602330E-02 0.13260357E+03</pdfrwt>
<totfact> 0.11735593E+06</totfact>
</mgrwt>
</event>
<event>
 6    1  0.4259848E-002  0.1261296E+03  0.7546771E-02  0.1233314E+00
         21   -1    0    0  503  502  0.00000000000E+00  0.00000000000E+00  0.30742813734E+03  0.30742813734E+03  0.00000000000E+00 0.  1.
         21   -1    0    0  504  503 -0.00000000000E+00 -0.00000000000E+00 -0.23201853985E+02  0.23201853985E+02  0.00000000000E+00 0.  1.
         25    2    1    2    0    0 -0.72958703878E+01 -0.15171286506E+02  0.28707027739E+03  0.31355703138E+03  0.12500108044E+03 0.  0.
          5    1    3    3  501    0 -0.55163830508E+02 -0.42785974493E+00  0.62037125699E+02  0.83017144165E+02  0.10000000000E+00 0.  1.
         -5    1    3    3    0  501  0.47867960120E+02 -0.14743426761E+02  0.22503315169E+03  0.23053988722E+03  0.10000000000E+00 0.  1.
         21    1    1    2  504  502  0.72958703878E+01  0.15171286506E+02 -0.28439940391E+01  0.17072959938E+02  0.00000000000E+00 0.  1.
<mgrwt>
<rscale>  1 0.12612957E+03</rscale>
<asrwt>0</asrwt>
<pdfrwt beam="1">  1       21 0.47296634E-01 0.12612957E+03</pdfrwt>
<pdfrwt beam="2">  1       21 0.35695162E-02 0.12612957E+03</pdfrwt>
<totfact> 0.20169318E+06</totfact>
</mgrwt>
</event>
<event>
 6    1  0.4259848E-002  0.1300382E+03  0.7546771E-02  0.1227399E+00
         21   -1    0    0  504  502  0.00000000000E+00  0.00000000000E+00  0.18818226635E+02  0.18818226635E+02  0.00000000000E+00 0.  1.
         21   -1    0    0  502  503 -0.00000000000E+00 -0.00000000000E+00 -0.37249784552E+03  0.37249784552E+03  0.00000000000E+00 0.  1.
         25    2    1    2    0    0  0.35801731111E+02  0.13039975209E+01 -0.25319363944E+03  0.28463478783E+03  0.12500591598E+03 0.  0.
          5    1    3    3  501    0 -0.16622132668E+02  0.12421126549E+02  0.46631413324E+01  0.21268158507E+02  0.10000000000E+00 0.  1.
         -5    1    3    3    0  501  0.52423863778E+02 -0.11117129028E+02 -0.25785678077E+03  0.26336662932E+03  0.10000000000E+00 0.  1.
         21    1    1    2  504  503 -0.35801731111E+02 -0.13039975209E+01 -0.10048597944E+03  0.10668128432E+03  0.00000000000E+00 0.  1.
<mgrwt>
<rscale>  1 0.13003824E+03</rscale>
<asrwt>0</asrwt>
<pdfrwt beam="1">  1       21 0.28951119E-02 0.13003824E+03</pdfrwt>
<pdfrwt beam="2">  1       21 0.57307358E-01 0.13003824E+03</pdfrwt>
<totfact> 0.19121807E+06</totfact>
</mgrwt>
</event>
<event>
 6    1  0.4259848E-002  0.1271232E+03  0.7546771E-02  0.1231788E+00
         21   -1    0    0  504  502  0.00000000000E+00  0.00000000000E+00  0.60049862607E+03  0.60049862607E+03  0.00000000000E+00 0. -1.
         21   -1    0    0  502  503 -0.00000000000E+00 -0.00000000000E+00 -0.99997935419E+01  0.99997935419E+01  0.00000000000E+00 0. -1.
         25    2    1    2    0    0 -0.15355565007E+02 -0.17320040523E+02  0.54269993393E+03  0.55738992794E+03  0.12499814519E+03 0.  0.
          5    1    3    3  501    0 -0.45245351546E+02 -0.59379909785E+02  0.35225185097E+03  0.36007567543E+03  0.10000000000E+00 0. -1.
         -5    1    3    3    0  501  0.29889786539E+02  0.42059869261E+02  0.19044808297E+03  0.19731425252E+03  0.10000000000E+00 0. -1.
         21    1    1    2  504  503  0.15355565007E+02  0.17320040523E+02  0.47798898594E+02  0.53108491668E+02  0.00000000000E+00 0. -1.
<mgrwt>
<rscale>  1 0.12712322E+03</rscale>
<asrwt>0</asrwt>
<pdfrwt beam="1">  1       21 0.92384376E-01 0.12712322E+03</pdfrwt>
<pdfrwt beam="2">  1       21 0.15384302E-02 0.12712322E+03</pdfrwt>
<totfact> 0.18602261E+06</totfact>
</mgrwt>
</event>
<event>
 6    1  0.4259848E-002  0.1273442E+03  0.7546771E-02  0.1231450E+00
         21   -1    0    0  504  502  0.00000000000E+00  0.00000000000E+00  0.30769000367E+02  0.30769000367E+02  0.00000000000E+00 0.  1.
         21   -1    0    0  502  503 -0.00000000000E+00 -0.00000000000E+00 -0.30895952105E+03  0.30895952105E+03  0.00000000000E+00 0.  1.
         25    2    1    2    0    0 -0.35042269843E+01 -0.24069479806E+02 -0.10560004326E+03  0.16543253075E+03  0.12499973452E+03 0.  0.
          5    1    3    3  501    0 -0.51701568246E+02  0.25946578924E+02 -0.49993328373E+02  0.76456654379E+02  0.10000000000E+00 0. -1.
         -5    1    3    3    0  501  0.48197341262E+02 -0.50016058730E+02 -0.55606714883E+02  0.88975876370E+02  0.10000000000E+00 0. -1.
         21    1    1    2  504  503  0.35042269843E+01  0.24069479806E+02 -0.17259047743E+03  0.17429599067E+03  0.00000000000E+00 0.  1.
<mgrwt>
<rscale>  1 0.12734423E+03</rscale>
<asrwt>0</asrwt>
<pdfrwt beam="1">  1       21 0.47336920E-02 0.12734423E+03</pdfrwt>
<pdfrwt beam="2">  1       21 0.47532237E-01 0.12734423E+03</pdfrwt>
<totfact> 0.12488645E+06</totfact>
</mgrwt>
</event>
<event>
 6    1  0.4259848E-002  0.1326024E+03  0.7546771E-02  0.1223645E+00
         21   -1    0    0  504  502  0.00000000000E+00  0.00000000000E+00  0.64101839306E+01  0.64101839306E+01  0.00000000000E+00 0.  1.
         21   -1    0    0  502  503 -0.00000000000E+00 -0.00000000000E+00 -0.13919690984E+04  0.13919690984E+04  0.00000000000E+00 0.  1.
         25    2    1    2    0    0  0.37661340563E+02  0.23268716007E+02 -0.77885093594E+03  0.79005833009E+03  0.12499429915E+03 0.  0.
          5    1    3    3  501    0  0.31903210603E+00  0.58338439556E+02 -0.62886051740E+03  0.63156079331E+03  0.10000000000E+00 0.  1.
         -5    1    3    3    0  501  0.37342308457E+02 -0.35069723549E+02 -0.14999041854E+03  0.15849753678E+03  0.10000000000E+00 0.  1.
         21    1    1    2  504  503 -0.37661340563E+02 -0.23268716007E+02 -0.60670797856E+03  0.60832095227E+03  0.00000000000E+00 0.  1.
<mgrwt>
<rscale>  1 0.13260235E+03</rscale>
<asrwt>0</asrwt>
<pdfrwt beam="1">  1       21 0.98618142E-03 0.13260235E+03</pdfrwt>
<pdfrwt beam="2">  1       21 0.21414925E+00 0.13260235E+03</pdfrwt>
<totfact> 0.43091339E+05</totfact>
</mgrwt>
</event>
<event>
 6    1  0.4259848E-002  0.1279098E+03  0.7546771E-02  0.1230591E+00
         21   -1    0    0  504  502  0.00000000000E+00  0.00000000000E+00  0.10711622601E+04  0.10711622601E+04  0.00000000000E+00 0. -1.
         21   -1    0    0  502  503 -0.00000000000E+00 -0.00000000000E+00 -0.56244996352E+01  0.56244996352E+01  0.00000000000E+00 0. -1.
         25    2    1    2    0    0  0.19914441100E+00 -0.27130854109E+02  0.89882706987E+03  0.90788271223E+03  0.12499917896E+03 0.  0.
          5    1    3    3  501    0 -0.80592264603E+01 -0.40248922734E+02  0.88806152616E+03  0.88900968001E+03  0.10000000000E+00 0.  1.
         -5    1    3    3    0  501  0.82583708713E+01  0.13118068625E+02  0.10765543712E+02  0.18873032223E+02  0.10000000000E+00 0.  1.
         21    1    1    2  504  503 -0.19914441100E+00  0.27130854109E+02  0.16671069057E+03  0.16890404747E+03  0.00000000000E+00 0. -1.
<mgrwt>
<rscale>  1 0.12790980E+03</rscale>
<asrwt>0</asrwt>
<pdfrwt beam="1">  1       21 0.16479403E+00 0.12790980E+03</pdfrwt>
<pdfrwt beam="2">  1       21 0.86530849E-03 0.12790980E+03</pdfrwt>
<totfact> 0.11104629E+06</totfact>
</mgrwt>
</event>
<event>
 6    1  0.4259848E-002  0.1272069E+03  0.7546771E-02  0.1231660E+00
         21   -1    0    0  503  502  0.00000000000E+00  0.00000000000E+00  0.68557500825E+02  0.68557500825E+02  0.00000000000E+00 0. -1.
         21   -1    0    0  504  503 -0.00000000000E+00 -0.00000000000E+00 -0.10504010885E+03  0.10504010885E+03  0.00000000000E+00 0. -1.
         25    2    1    2    0    0  0.12479790220E+02 -0.19936337785E+02  0.34493656267E+01  0.12725362141E+03  0.12501353251E+03 0.  0.
          5    1    3    3  501    0  0.21375573974E+02 -0.59459752810E+02 -0.34286964971E+02  0.71888687106E+02  0.10000000000E+00 0.  1.
         -5    1    3    3    0  501 -0.88957837545E+01  0.39523415025E+02  0.37736330598E+02  0.55364934307E+02  0.10000000000E+00 0.  1.
         21    1    1    2  504  502 -0.12479790220E+02  0.19936337785E+02 -0.39931973647E+02  0.46343988256E+02  0.00000000000E+00 0. -1.
<mgrwt>
<rscale>  1 0.12720686E+03</rscale>
<asrwt>0</asrwt>
<pdfrwt beam="1">  1       21 0.10547308E-01 0.12720686E+03</pdfrwt>
<pdfrwt beam="2">  1       21 0.16160017E-01 0.12720686E+03</pdfrwt>
<totfact> 0.25061926E+06</totfact>
</mgrwt>
</event>
<event>
 6    1  0.4259848E-002  0.1512796E+03  0.7546771E-02  0.1198909E+00
         21   -1    0    0  503  502  0.00000000000E+00  0.00000000000E+00  0.13089764939E+03  0.13089764939E+03  0.00000000000E+00 0.  1.
         21   -1    0    0  504  503 -0.00000000000E+00 -0.00000000000E+00 -0.45915085581E+03  0.45915085581E+03  0.00000000000E+00 0. -1.
         25    2    1    2    0    0  0.49594352705E+02  0.69281264478E+02  0.81289550521E+02  0.17173670380E+03  0.12500404386E+03 0.  0.
          5    1    3    3  501    0  0.69191414366E+02  0.92037956665E+02  0.42631318115E+02  0.12278386121E+03  0.10000000000E+00 0. -1.
         -5    1    3    3    0  501 -0.19597061661E+02 -0.22756692187E+02  0.38658232406E+02  0.48952842592E+02  0.10000000000E+00 0. -1.
         21    1    1    2  504  502 -0.49594352705E+02 -0.69281264478E+02 -0.40954275694E+03  0.41831180140E+03  0.00000000000E+00 0. -1.
<mgrwt>
<rscale>  1 0.15127956E+03</rscale>
<asrwt>0</asrwt>
<pdfrwt beam="1">  1       21 0.20138100E-01 0.15127956E+03</pdfrwt>
<pdfrwt beam="2">  1       21 0.70638595E-01 0.15127956E+03</pdfrwt>
<totfact> 0.42291017E+04</totfact>
</mgrwt>
</event>
<event>
 6    1  0.4259848E-002  0.1262632E+03  0.7546771E-02  0.1233108E+00
         21   -1    0    0  504  502  0.00000000000E+00  0.00000000000E+00  0.29908735880E+02  0.29908735880E+02  0.00000000000E+00 0.  1.
         21   -1    0    0  502  503 -0.00000000000E+00 -0.00000000000E+00 -0.19480934391E+03  0.19480934391E+03  0.00000000000E+00 0.  1.
         25    2    1    2    0    0 -0.17161112761E+02 -0.62352578260E+01 -0.11208539554E+03  0.16883580262E+03  0.12493602411E+03 0.  0.
          5    1    3    3  501    0 -0.44121257600E+02  0.46369301244E+02 -0.39448566757E+02  0.75186414260E+02  0.10000000000E+00 0. -1.
         -5    1    3    3    0  501  0.26960144839E+02 -0.52604559069E+02 -0.72636828785E+02  0.93649388362E+02  0.10000000000E+00 0. -1.
         21    1    1    2  504  503  0.17161112761E+02  0.62352578260E+01 -0.52815212492E+02  0.55882277172E+02  0.00000000000E+00 0. -1.
<mgrwt>
<rscale>  1 0.12626319E+03</rscale>
<asrwt>0</asrwt>
<pdfrwt beam="1">  1       21 0.46013439E-02 0.12626319E+03</pdfrwt>
<pdfrwt beam="2">  1       21 0.29970669E-01 0.12626319E+03</pdfrwt>
<totfact> 0.32692286E+06</totfact>
</mgrwt>
</event>
<event>
 6    1  0.4259848E-002  0.1366775E+03  0.7546771E-02  0.1217871E+00
         21   -1    0    0  503  502  0.00000000000E+00  0.00000000000E+00  0.12515119453E+03  0.12515119453E+03  0.00000000000E+00 0. -1.
         21   -1    0    0  504  503 -0.00000000000E+00 -0.00000000000E+00 -0.23949754271E+03  0.23949754271E+03  0.00000000000E+00 0. -1.
         25    2    1    2    0    0  0.53086081381E+02  0.15437642095E+02  0.82864571600E+02  0.15983516419E+03  0.12499715858E+03 0.  0.
          5    1    3    3  501    0  0.29773166759E+02  0.66701083403E+02  0.71836760609E+02  0.10245001787E+03  0.10000000000E+00 0.  1.
         -5    1    3    3    0  501  0.23312914621E+02 -0.51263441308E+02  0.11027810990E+02  0.57385146319E+02  0.10000000000E+00 0.  1.
         21    1    1    2  504  502 -0.53086081381E+02 -0.15437642095E+02 -0.19721091977E+03  0.20481357306E+03  0.00000000000E+00 0. -1.
<mgrwt>
<rscale>  1 0.13667751E+03</rscale>
<asrwt>0</asrwt>
<pdfrwt beam="1">  1       21 0.19254030E-01 0.13667751E+03</pdfrwt>
<pdfrwt beam="2">  1       21 0.36845776E-01 0.13667751E+03</pdfrwt>
<totfact> 0.17893379E+05</totfact>
</mgrwt>
</event>
<event>
 6    1  0.4259848E-002  0.1260449E+03  0.7546771E-02  0.1233445E+00
         21   -1    0    0  503  502  0.00000000000E+00  0.00000000000E+00  0.88229126311E+02  0.88229126311E+02  0.00000000000E+00 0. -1.
         21   -1    0    0  504  503 -0.00000000000E+00 -0.00000000000E+00 -0.11888643548E+03  0.11888643548E+03  0.00000000000E+00 0. -1.
         25    2    1    2    0    0  0.15843323612E+02  0.33689221454E+01  0.41857876451E+02  0.13281339032E+03  0.12499981715E+03 0.  0.
          5    1    3    3  501    0 -0.33654681034E+02  0.34379897162E+02 -0.15899066044E+02  0.50669568633E+02  0.10000000000E+00 0.  1.
         -5    1    3    3    0  501  0.49498004646E+02 -0.31010975017E+02  0.57756942495E+02  0.82143821690E+02  0.10000000000E+00 0.  1.
         21    1    1    2  504  502 -0.15843323612E+02 -0.33689221454E+01 -0.72515185621E+02  0.74302171470E+02  0.00000000000E+00 0. -1.
<mgrwt>
<rscale>  1 0.12604489E+03</rscale>
<asrwt>0</asrwt>
<pdfrwt beam="1">  1       21 0.13573712E-01 0.12604489E+03</pdfrwt>
<pdfrwt beam="2">  1       21 0.18290221E-01 0.12604489E+03</pdfrwt>
<totfact> 0.12791704E+06</totfact>
</mgrwt>
</event>
<event>
 6    1  0.4259848E-002  0.1262059E+03  0.7546771E-02  0.1233197E+00
         21   -1    0    0  504  502  0.00000000000E+00  0.00000000000E+00  0.27988815889E+03  0.27988815889E+03  0.00000000000E+00 0.  1.
         21   -1    0    0  502  503 -0.00000000000E+00 -0.00000000000E+00 -0.34427810590E+02  0.34427810590E+02  0.00000000000E+00 0.  1.
         25    2    1    2    0    0 -0.90154803025E+01  0.14898846425E+02  0.26167618596E+03  0.29052084602E+03  0.12499872465E+03 0.  0.
          5    1    3    3  501    0 -0.64093674522E+02  0.89549884244E+01  0.95569542006E+02  0.11541983491E+03  0.10000000000E+00 0. -1.
         -5    1    3    3    0  501  0.55078194219E+02  0.59438580005E+01  0.16610664395E+03  0.17510101111E+03  0.10000000000E+00 0. -1.
         21    1    1    2  504  503  0.90154803025E+01 -0.14898846425E+02 -0.16215837654E+02  0.23795123465E+02  0.00000000000E+00 0.  1.
<mgrwt>
<rscale>  1 0.12620593E+03</rscale>
<asrwt>0</asrwt>
<pdfrwt beam="1">  1       21 0.43059715E-01 0.12620593E+03</pdfrwt>
<pdfrwt beam="2">  1       21 0.52965864E-02 0.12620593E+03</pdfrwt>
<totfact> 0.12640622E+06</totfact>
</mgrwt>
</event>
<event>
 6    1  0.4259848E-002  0.1335305E+03  0.7546771E-02  0.1222309E+00
         21   -1    0    0  503  502  0.00000000000E+00  0.00000000000E+00  0.54347692298E+03  0.54347692298E+03  0.00000000000E+00 0.  1.
         21   -1    0    0  504  503 -0.00000000000E+00 -0.00000000000E+00 -0.15686504569E+02  0.15686504569E+02  0.00000000000E+00 0.  1.
         25    2    1    2    0    0 -0.21026221867E+02  0.41994320150E+02  0.43699544122E+03  0.45694135159E+03  0.12499903284E+03 0.  0.
          5    1    3    3  501    0  0.88081140796E+01  0.78027264156E+02  0.34392711113E+03  0.35277713162E+03  0.10000000000E+00 0. -1.
         -5    1    3    3    0  501 -0.29834335947E+02 -0.36032944006E+02  0.93068330092E+02  0.10416421997E+03  0.10000000000E+00 0. -1.
         21    1    1    2  504  502  0.21026221867E+02 -0.41994320150E+02  0.90794977188E+02  0.10222207596E+03  0.00000000000E+00 0.  1.
<mgrwt>
<rscale>  1 0.13353046E+03</rscale>
<asrwt>0</asrwt>
<pdfrwt beam="1">  1       21 0.83611820E-01 0.13353046E+03</pdfrwt>
<pdfrwt beam="2">  1       21 0.24133088E-02 0.13353046E+03</pdfrwt>
<totfact> 0.11303404E+06</totfact>
</mgrwt>
</event>
<event>
 6    1  0.4259848E-002  0.1275849E+03  0.7546771E-02  0.1231084E+00
         21   -1    0    0  504  502  0.00000000000E+00  0.00000000000E+00  0.18288784215E+02  0.18288784215E+02  0.00000000000E+00 0. -1.
         21   -1    0    0  502  503 -0.00000000000E+00 -0.00000000000E+00 -0.42156689997E+03  0.42156689997E+03  0.00000000000E+00 0. -1.
         25    2    1    2    0    0 -0.18789592945E+02 -0.17300213090E+02 -0.21617262542E+03  0.25101498229E+03  0.12500228470E+03 0.  0.
          5    1    3    3  501    0 -0.25849206232E+02  0.29984376286E+02 -0.19456200977E+03  0.19854880995E+03  0.10000000000E+00 0.  1.
         -5    1    3    3    0  501  0.70596132873E+01 -0.47284589375E+02 -0.21610615642E+02  0.52466172345E+02  0.10000000000E+00 0.  1.
         21    1    1    2  504  503  0.18789592945E+02  0.17300213090E+02 -0.18710549034E+03  0.18884070190E+03  0.00000000000E+00 0. -1.
<mgrwt>
<rscale>  1 0.12758494E+03</rscale>
<asrwt>0</asrwt>
<pdfrwt beam="1">  1       21 0.28136591E-02 0.12758494E+03</pdfrwt>
<pdfrwt beam="2">  1       21 0.64856445E-01 0.12758494E+03</pdfrwt>
<totfact> 0.15388965E+06</totfact>
</mgrwt>
</event>
<event>
 6    1  0.4259848E-002  0.1278976E+03  0.7546771E-02  0.1230609E+00
         21   -1    0    0  504  502  0.00000000000E+00  0.00000000000E+00  0.10423732890E+03  0.10423732890E+03  0.00000000000E+00 0. -1.
         21   -1    0    0  502  503 -0.00000000000E+00 -0.00000000000E+00 -0.84494322710E+02  0.84494322710E+02  0.00000000000E+00 0. -1.
         25    2    1    2    0    0  0.24688515980E+02  0.11012285216E+02  0.59174433339E+02  0.14092338146E+03  0.12500797028E+03 0.  0.
          5    1    3    3  501    0 -0.19186703653E+02 -0.44996206418E+02  0.48670529154E+02  0.69004482442E+02  0.10000000000E+00 0. -1.
         -5    1    3    3    0  501  0.43875219633E+02  0.56008491634E+02  0.10503904185E+02  0.71918899019E+02  0.10000000000E+00 0. -1.
         21    1    1    2  504  503 -0.24688515980E+02 -0.11012285216E+02 -0.39431427153E+02  0.47808270145E+02  0.00000000000E+00 0. -1.
<mgrwt>
<rscale>  1 0.12789756E+03</rscale>
<asrwt>0</asrwt>
<pdfrwt beam="1">  1       21 0.16036512E-01 0.12789756E+03</pdfrwt>
<pdfrwt beam="2">  1       21 0.12999127E-01 0.12789756E+03</pdfrwt>
<totfact> 0.17564529E+06</totfact>
</mgrwt>
</event>
<event>
 6    1  0.4259848E-002  0.1366222E+03  0.7546771E-02  0.1217948E+00
         21   -1    0    0  503  502  0.00000000000E+00  0.00000000000E+00  0.29008010458E+03  0.29008010458E+03  0.00000000000E+00 0. -1.
         21   -1    0    0  504  503 -0.00000000000E+00 -0.00000000000E+00 -0.41906721539E+02  0.41906721539E+02  0.00000000000E+00 0. -1.
         25    2    1    2    0    0 -0.52478656633E+02 -0.16907195128E+02  0.24012025824E+03  0.27626685243E+03  0.12500309069E+03 0.  0.
          5    1    3    3  501    0 -0.19250745865E+02 -0.53373230912E+02  0.38182450009E+02  0.68390075911E+02  0.10000000000E+00 0.  1.
         -5    1    3    3    0  501 -0.33227910767E+02  0.36466035785E+02  0.20193780824E+03  0.20787677652E+03  0.10000000000E+00 0.  1.
         21    1    1    2  504  502  0.52478656633E+02  0.16907195128E+02  0.80531247941E+01  0.55719973690E+02  0.00000000000E+00 0. -1.
<mgrwt>
<rscale>  1 0.13662224E+03</rscale>
<asrwt>0</asrwt>
<pdfrwt beam="1">  1       21 0.44627707E-01 0.13662224E+03</pdfrwt>
<pdfrwt beam="2">  1       21 0.64471881E-02 0.13662224E+03</pdfrwt>
<totfact> 0.84318057E+05</totfact>
</mgrwt>
</event>
<event>
 6    1  0.4259848E-002  0.1259832E+03  0.7546771E-02  0.1233541E+00
         21   -1    0    0  504  502  0.00000000000E+00  0.00000000000E+00  0.14231946629E+02  0.14231946629E+02  0.00000000000E+00 0.  1.
         21   -1    0    0  502  503 -0.00000000000E+00 -0.00000000000E+00 -0.43758182094E+03  0.43758182094E+03  0.00000000000E+00 0.  1.
         25    2    1    2    0    0 -0.18391681127E+01  0.15562103162E+02 -0.27320482047E+03  0.30085318070E+03  0.12500480318E+03 0.  0.
          5    1    3    3  501    0  0.54573430518E+00  0.64284394218E+02 -0.85850169725E+02  0.10725223917E+03  0.10000000000E+00 0. -1.
         -5    1    3    3    0  501 -0.23849024179E+01 -0.48722291057E+02 -0.18735465074E+03  0.19360094153E+03  0.10000000000E+00 0. -1.
         21    1    1    2  504  503  0.18391681127E+01 -0.15562103162E+02 -0.15014505384E+03  0.15096058687E+03  0.00000000000E+00 0.  1.
<mgrwt>
<rscale>  1 0.12598318E+03</rscale>
<asrwt>0</asrwt>
<pdfrwt beam="1">  1       21 0.21895302E-02 0.12598318E+03</pdfrwt>
<pdfrwt beam="2">  1       21 0.67320283E-01 0.12598318E+03</pdfrwt>
<totfact> 0.21346724E+06</totfact>
</mgrwt>
</event>
<event>
 6    1  0.4259848E-002  0.1263410E+03  0.7546771E-02  0.1232988E+00
         21   -1    0    0  503  502  0.00000000000E+00  0.00000000000E+00  0.47684400155E+03  0.47684400155E+03  0.00000000000E+00 0.  1.
         21   -1    0    0  504  503 -0.00000000000E+00 -0.00000000000E+00 -0.18592489181E+02  0.18592489181E+02  0.00000000000E+00 0.  1.
         25    2    1    2    0    0 -0.17998040724E+02  0.36465097908E+01  0.45995752242E+03  0.47699368796E+03  0.12499931770E+03 0.  0.
          5    1    3    3  501    0 -0.18852887633E+02 -0.59247449282E+02  0.19498876801E+03  0.20466147969E+03  0.10000000000E+00 0. -1.
         -5    1    3    3    0  501  0.85484690945E+00  0.62893959073E+02  0.26496875441E+03  0.27233220828E+03  0.10000000000E+00 0. -1.
         21    1    1    2  504  502  0.17998040724E+02 -0.36465097908E+01 -0.17060100511E+01  0.18442802765E+02  0.00000000000E+00 0.  1.
<mgrwt>
<rscale>  1 0.12634103E+03</rscale>
<asrwt>0</asrwt>
<pdfrwt beam="1">  1       21 0.73360606E-01 0.12634103E+03</pdfrwt>
<pdfrwt beam="2">  1       21 0.28603833E-02 0.12634103E+03</pdfrwt>
<totfact> 0.11458999E+06</totfact>
</mgrwt>
</event>
<event>
 6    1  0.4259848E-002  0.1512442E+03  0.7546771E-02  0.1198952E+00
         21   -1    0    0  503  502  0.00000000000E+00  0.00000000000E+00  0.85627333659E+02  0.85627333659E+02  0.00000000000E+00 0.  1.
         21   -1    0    0  504  503 -0.00000000000E+00 -0.00000000000E+00 -0.29479526275E+03  0.29479526275E+03  0.00000000000E+00 0.  1.
         25    2    1    2    0    0 -0.85024710838E+02  0.44683273473E+01  0.35626971857E+01  0.15128620306E+03  0.12500262006E+03 0.  0.
          5    1    3    3  501    0 -0.93663733788E+02  0.19548160884E+02 -0.40514808858E+02  0.10390613725E+03  0.10000000000E+00 0.  1.
         -5    1    3    3    0  501  0.86390229509E+01 -0.15079833537E+02  0.44077506043E+02  0.47380065809E+02  0.10000000000E+00 0.  1.
         21    1    1    2  504  502  0.85024710838E+02 -0.44683273473E+01 -0.21273062627E+03  0.22913639335E+03  0.00000000000E+00 0.  1.
<mgrwt>
<rscale>  1 0.15124425E+03</rscale>
<asrwt>0</asrwt>
<pdfrwt beam="1">  1       21 0.13173436E-01 0.15124425E+03</pdfrwt>
<pdfrwt beam="2">  1       21 0.45353117E-01 0.15124425E+03</pdfrwt>
<totfact> 0.23398544E+05</totfact>
</mgrwt>
</event>
<event>
 6    1  0.4259848E-002  0.1262720E+03  0.7546771E-02  0.1233095E+00
         21   -1    0    0  503  502  0.00000000000E+00  0.00000000000E+00  0.36728683434E+02  0.36728683434E+02  0.00000000000E+00 0.  1.
         21   -1    0    0  504  503 -0.00000000000E+00 -0.00000000000E+00 -0.14220351493E+03  0.14220351493E+03  0.00000000000E+00 0.  1.
         25    2    1    2    0    0 -0.13106971193E+01  0.18176635918E+02 -0.90679648069E+02  0.15545869260E+03  0.12494998404E+03 0.  0.
          5    1    3    3  501    0 -0.42440993878E+02  0.34133865549E+02  0.16887264034E+00  0.54464642261E+02  0.10000000000E+00 0. -1.
         -5    1    3    3    0  501  0.41130296758E+02 -0.15957229631E+02 -0.90848520709E+02  0.10099405034E+03  0.10000000000E+00 0. -1.
         21    1    1    2  504  502  0.13106971193E+01 -0.18176635918E+02 -0.14795183428E+02  0.23473505765E+02  0.00000000000E+00 0. -1.
<mgrwt>
<rscale>  1 0.12627195E+03</rscale>
<asrwt>0</asrwt>
<pdfrwt beam="1">  1       21 0.56505667E-02 0.12627195E+03</pdfrwt>
<pdfrwt beam="2">  1       21 0.21877464E-01 0.12627195E+03</pdfrwt>
<totfact> 0.42023634E+06</totfact>
</mgrwt>
</event>
<event>
 6    1  0.4259848E-002  0.1299082E+03  0.7546771E-02  0.1227592E+00
         21   -1    0    0  504  502  0.00000000000E+00  0.00000000000E+00  0.22792557445E+02  0.22792557445E+02  0.00000000000E+00 0.  1.
         21   -1    0    0  502  503 -0.00000000000E+00 -0.00000000000E+00 -0.39957300262E+03  0.39957300262E+03  0.00000000000E+00 0.  1.
         25    2    1    2    0    0  0.97214456159E+01  0.34004629501E+02 -0.17743752181E+03  0.21990958355E+03  0.12500131782E+03 0.  0.
          5    1    3    3  501    0 -0.68730090547E+01 -0.46307601437E+02 -0.78532100246E+02  0.91427200402E+02  0.10000000000E+00 0. -1.
         -5    1    3    3    0  501  0.16594454671E+02  0.80312230938E+02 -0.98905421565E+02  0.12848238315E+03  0.10000000000E+00 0. -1.
         21    1    1    2  504  503 -0.97214456159E+01 -0.34004629501E+02 -0.19934292336E+03  0.20245597651E+03  0.00000000000E+00 0.  1.
<mgrwt>
<rscale>  1 0.12990824E+03</rscale>
<asrwt>0</asrwt>
<pdfrwt beam="1">  1       21 0.35065472E-02 0.12990824E+03</pdfrwt>
<pdfrwt beam="2">  1       21 0.61472771E-01 0.12990824E+03</pdfrwt>
<totfact> 0.12023703E+06</totfact>
</mgrwt>
</event>
<event>
 6    1  0.4259848E-002  0.1282018E+03  0.7546771E-02  0.1230149E+00
         21   -1    0    0  504  502  0.00000000000E+00  0.00000000000E+00  0.11827859098E+03  0.11827859098E+03  0.00000000000E+00 0. -1.
         21   -1    0    0  502  503 -0.00000000000E+00 -0.00000000000E+00 -0.57538462686E+02  0.57538462686E+02  0.00000000000E+00 0. -1.
         25    2    1    2    0    0  0.27886538999E+02  0.49277330221E+01  0.69943648480E+02  0.14604044550E+03  0.12503501969E+03 0.  0.
          5    1    3    3  501    0  0.55833323008E+02 -0.30891556855E+02  0.77065531412E+02  0.10005375743E+03  0.10000000000E+00 0. -1.
         -5    1    3    3    0  501 -0.27946784009E+02  0.35819289877E+02 -0.71218829326E+01  0.45986688077E+02  0.10000000000E+00 0. -1.
         21    1    1    2  504  503 -0.27886538999E+02 -0.49277330221E+01 -0.92035201845E+01  0.29776608166E+02  0.00000000000E+00 0. -1.
<mgrwt>
<rscale>  1 0.12820179E+03</rscale>
<asrwt>0</asrwt>
<pdfrwt beam="1">  1       21 0.18196706E-01 0.12820179E+03</pdfrwt>
<pdfrwt beam="2">  1       21 0.88520712E-02 0.12820179E+03</pdfrwt>
<totfact> 0.27414680E+06</totfact>
</mgrwt>
</event>
<event>
 6    1  0.4259848E-002  0.1276193E+03  0.7546771E-02  0.1231032E+00
         21   -1    0    0  504  502  0.00000000000E+00  0.00000000000E+00  0.18186122327E+02  0.18186122327E+02  0.00000000000E+00 0.  1.
         21   -1    0    0  502  503 -0.00000000000E+00 -0.00000000000E+00 -0.10475469843E+04  0.10475469843E+04  0.00000000000E+00 0. -1.
         25    2    1    2    0    0 -0.14019789251E+02 -0.21541571571E+02 -0.20840751170E+03  0.24437752155E+03  0.12500435318E+03 0.  0.
          5    1    3    3  501    0  0.14849244220E+02 -0.47910121997E+02 -0.23516884294E+02  0.55397957458E+02  0.10000000000E+00 0. -1.
         -5    1    3    3    0  501 -0.28869033471E+02  0.26368550425E+02 -0.18489062740E+03  0.18897956410E+03  0.10000000000E+00 0. -1.
         21    1    1    2  504  503  0.14019789251E+02  0.21541571571E+02 -0.82095335026E+03  0.82135558505E+03  0.00000000000E+00 0. -1.
<mgrwt>
<rscale>  1 0.12761929E+03</rscale>
<asrwt>0</asrwt>
<pdfrwt beam="1">  1       21 0.27978649E-02 0.12761929E+03</pdfrwt>
<pdfrwt beam="2">  1       21 0.16116108E+00 0.12761929E+03</pdfrwt>
<totfact> 0.18034443E+05</totfact>
</mgrwt>
</event>
<event>
 6    1  0.4259848E-002  0.1267507E+03  0.7546771E-02  0.1232358E+00
         21   -1    0    0  503  502  0.00000000000E+00  0.00000000000E+00  0.24974303622E+02  0.24974303622E+02  0.00000000000E+00 0.  1.
         21   -1    0    0  504  503 -0.00000000000E+00 -0.00000000000E+00 -0.23128069381E+03  0.23128069381E+03  0.00000000000E+00 0.  1.
         25    2    1    2    0    0 -0.31008412117E+01 -0.20802007094E+02 -0.15136832008E+03  0.19742872556E+03  0.12499357838E+03 0.  0.
          5    1    3    3  501    0  0.60467398740E+02 -0.23914247081E+01 -0.69390908678E+02  0.92071349668E+02  0.10000000000E+00 0. -1.
         -5    1    3    3    0  501 -0.63568239952E+02 -0.18410582386E+02 -0.81977411403E+02  0.10535737589E+03  0.10000000000E+00 0. -1.
         21    1    1    2  504  502  0.31008412117E+01  0.20802007094E+02 -0.54938070110E+02  0.58826271876E+02  0.00000000000E+00 0.  1.
<mgrwt>
<rscale>  1 0.12675067E+03</rscale>
<asrwt>0</asrwt>
<pdfrwt beam="1">  1       21 0.38422005E-02 0.12675067E+03</pdfrwt>
<pdfrwt beam="2">  1       21 0.35581645E-01 0.12675067E+03</pdfrwt>
<totfact> 0.31602486E+06</totfact>
</mgrwt>
</event>
<event>
 6    1  0.4259848E-002  0.1286450E+03  0.7546771E-02  0.1229480E+00
         21   -1    0    0  503  502  0.00000000000E+00  0.00000000000E+00  0.25249043215E+02  0.25249043215E+02  0.00000000000E+00 0. -1.
         21   -1    0    0  504  503 -0.00000000000E+00 -0.00000000000E+00 -0.35433944986E+03  0.35433944986E+03  0.00000000000E+00 0. -1.
         25    2    1    2    0    0 -0.12975114472E+02 -0.27459449467E+02 -0.14854886240E+03  0.19651030169E+03  0.12500863647E+03 0.  0.
          5    1    3    3  501    0  0.41911317677E+02  0.27515258278E+02 -0.47620030016E+02  0.69147127535E+02  0.10000000000E+00 0.  1.
         -5    1    3    3    0  501 -0.54886432149E+02 -0.54974707746E+02 -0.10092883238E+03  0.12736317416E+03  0.10000000000E+00 0.  1.
         21    1    1    2  504  502  0.12975114472E+02  0.27459449467E+02 -0.18054154424E+03  0.18307819138E+03  0.00000000000E+00 0. -1.
<mgrwt>
<rscale>  1 0.12864499E+03</rscale>
<asrwt>0</asrwt>
<pdfrwt beam="1">  1       21 0.38844683E-02 0.12864499E+03</pdfrwt>
<pdfrwt beam="2">  1       21 0.54513759E-01 0.12864499E+03</pdfrwt>
<totfact> 0.13079087E+06</totfact>
</mgrwt>
</event>
<event>
 6    1  0.4259848E-002  0.1454903E+03  0.7546771E-02  0.1206127E+00
         21   -1    0    0  504  502  0.00000000000E+00  0.00000000000E+00  0.24614193211E+03  0.24614193211E+03  0.00000000000E+00 0.  1.
         21   -1    0    0  502  503 -0.00000000000E+00 -0.00000000000E+00 -0.17593862531E+03  0.17593862531E+03  0.00000000000E+00 0.  1.
         25    2    1    2    0    0 -0.31960760254E+02 -0.67232777298E+02  0.21480657904E+03  0.25944033213E+03  0.12500273197E+03 0.  0.
          5    1    3    3  501    0  0.10644637873E+02 -0.18067864005E+02  0.18785446151E+03  0.18902133407E+03  0.10000000000E+00 0.  1.
         -5    1    3    3    0  501 -0.42605398126E+02 -0.49164913293E+02  0.26952117531E+02  0.70418998062E+02  0.10000000000E+00 0.  1.
         21    1    1    2  504  503  0.31960760254E+02  0.67232777298E+02 -0.14460327224E+03  0.16264022528E+03  0.00000000000E+00 0.  1.
<mgrwt>
<rscale>  1 0.14549027E+03</rscale>
<asrwt>0</asrwt>
<pdfrwt beam="1">  1       21 0.37867989E-01 0.14549027E+03</pdfrwt>
<pdfrwt beam="2">  1       21 0.27067481E-01 0.14549027E+03</pdfrwt>
<totfact> 0.89141627E+04</totfact>
</mgrwt>
</event>
<event>
 6    1  0.4259848E-002  0.1327529E+03  0.7546771E-02  0.1223427E+00
         21   -1    0    0  503  502  0.00000000000E+00  0.00000000000E+00  0.14097185069E+04  0.14097185069E+04  0.00000000000E+00 0. -1.
         21   -1    0    0  504  503 -0.00000000000E+00 -0.00000000000E+00 -0.59999885526E+01  0.59999885526E+01  0.00000000000E+00 0. -1.
         25    2    1    2    0    0 -0.26093961582E+02  0.36293319347E+02  0.86243248627E+03  0.87258990259E+03  0.12500097948E+03 0.  0.
          5    1    3    3  501    0 -0.49400767090E+01 -0.30623468106E+02  0.64440348136E+02  0.71517617582E+02  0.10000000000E+00 0.  1.
         -5    1    3    3    0  501 -0.21153884873E+02  0.66916787452E+02  0.79799213813E+03  0.80107228501E+03  0.10000000000E+00 0.  1.
         21    1    1    2  504  502  0.26093961582E+02 -0.36293319347E+02  0.54128603209E+03  0.54312859288E+03  0.00000000000E+00 0. -1.
<mgrwt>
<rscale>  1 0.13275295E+03</rscale>
<asrwt>0</asrwt>
<pdfrwt beam="1">  1       21 0.21687951E+00 0.13275295E+03</pdfrwt>
<pdfrwt beam="2">  1       21 0.92307628E-03 0.13275295E+03</pdfrwt>
<totfact> 0.46026210E+05</totfact>
</mgrwt>
</event>
<event>
 6    1  0.4259848E-002  0.2212122E+03  0.7546771E-02  0.1132983E+00
         21   -1    0    0  503  502  0.00000000000E+00  0.00000000000E+00  0.41584281146E+02  0.41584281146E+02  0.00000000000E+00 0. -1.
         21   -1    0    0  504  503 -0.00000000000E+00 -0.00000000000E+00 -0.14368822820E+04  0.14368822820E+04  0.00000000000E+00 0. -1.
         25    2    1    2    0    0 -0.18131749711E+03 -0.20838271043E+02 -0.32767193714E+03  0.39535268169E+03  0.12499830489E+03 0.  0.
          5    1    3    3  501    0 -0.18242880839E+03  0.16413530894E+02 -0.25906075183E+03  0.31727300117E+03  0.10000000000E+00 0. -1.
         -5    1    3    3    0  501  0.11113112843E+01 -0.37251801937E+02 -0.68611185309E+02  0.78079680519E+02  0.10000000000E+00 0. -1.
         21    1    1    2  504  502  0.18131749711E+03  0.20838271043E+02 -0.10676260637E+04  0.10831138814E+04  0.00000000000E+00 0. -1.
<mgrwt>
<rscale>  1 0.22121222E+03</rscale>
<asrwt>0</asrwt>
<pdfrwt beam="1">  1       21 0.63975818E-02 0.22121222E+03</pdfrwt>
<pdfrwt beam="2">  1       21 0.22105881E+00 0.22121222E+03</pdfrwt>
<totfact> 0.17114863E+04</totfact>
</mgrwt>
</event>
<event>
 6    1  0.4259848E-002  0.1315017E+03  0.7546771E-02  0.1225244E+00
         21   -1    0    0  503  502  0.00000000000E+00  0.00000000000E+00  0.77192101472E+03  0.77192101472E+03  0.00000000000E+00 0. -1.
         21   -1    0    0  504  503 -0.00000000000E+00 -0.00000000000E+00 -0.40631587742E+02  0.40631587742E+02  0.00000000000E+00 0. -1.
         25    2    1    2    0    0 -0.57670540253E+01 -0.40405823574E+02  0.75431409996E+03  0.76569083706E+03  0.12500722803E+03 0.  0.
          5    1    3    3  501    0  0.47195939866E+02  0.10754694352E+02  0.44991584322E+03  0.45251231604E+03  0.10000000000E+00 0. -1.
         -5    1    3    3    0  501 -0.52962993891E+02 -0.51160517927E+02  0.30439825674E+03  0.31317852101E+03  0.10000000000E+00 0. -1.
         21    1    1    2  504  502  0.57670540253E+01  0.40405823574E+02 -0.23024672984E+02  0.46861765405E+02  0.00000000000E+00 0. -1.
<mgrwt>
<rscale>  1 0.13150170E+03</rscale>
<asrwt>0</asrwt>
<pdfrwt beam="1">  1       21 0.11875707E+00 0.13150170E+03</pdfrwt>
<pdfrwt beam="2">  1       21 0.62510141E-02 0.13150170E+03</pdfrwt>
<totfact> 0.10234185E+05</totfact>
</mgrwt>
</event>
<event>
 6    1  0.4259848E-002  0.1265002E+03  0.7546771E-02  0.1232743E+00
         21   -1    0    0  503  502  0.00000000000E+00  0.00000000000E+00  0.14163979308E+02  0.14163979308E+02  0.00000000000E+00 0.  1.
         21   -1    0    0  504  503 -0.00000000000E+00 -0.00000000000E+00 -0.42289936386E+03  0.42289936386E+03  0.00000000000E+00 0.  1.
         25    2    1    2    0    0 -0.18842783309E+02  0.47523224732E+01 -0.28502230374E+03  0.31183330917E+03  0.12499865609E+03 0.  0.
          5    1    3    3  501    0 -0.54921121600E+02 -0.20223893853E+02 -0.24678676193E+03  0.25363172385E+03  0.10000000000E+00 0.  1.
         -5    1    3    3    0  501  0.36078338291E+02  0.24976216326E+02 -0.38235541813E+02  0.58201585318E+02  0.10000000000E+00 0.  1.
         21    1    1    2  504  502  0.18842783309E+02 -0.47523224732E+01 -0.12371308081E+03  0.12523003400E+03  0.00000000000E+00 0.  1.
<mgrwt>
<rscale>  1 0.12650019E+03</rscale>
<asrwt>0</asrwt>
<pdfrwt beam="1">  1       21 0.21790735E-02 0.12650019E+03</pdfrwt>
<pdfrwt beam="2">  1       21 0.65061447E-01 0.12650019E+03</pdfrwt>
<totfact> 0.23159055E+06</totfact>
</mgrwt>
</event>
<event>
 6    1  0.4259848E-002  0.1263410E+03  0.7546771E-02  0.1232988E+00
         21   -1    0    0  503  502  0.00000000000E+00  0.00000000000E+00  0.66790696116E+03  0.66790696116E+03  0.00000000000E+00 0.  1.
         21   -1    0    0  504  503 -0.00000000000E+00 -0.00000000000E+00 -0.19210408692E+02  0.19210408692E+02  0.00000000000E+00 0.  1.
         25    2    1    2    0    0  0.16131995525E+02  0.87207219207E+01  0.65549494723E+03  0.66755949569E+03  0.12500304868E+03 0.  0.
          5    1    3    3  501    0  0.91670264893E+01 -0.55129535518E+02  0.20391526882E+03  0.21143497090E+03  0.10000000000E+00 0. -1.
         -5    1    3    3    0  501  0.69649690359E+01  0.63850257439E+02  0.45157967840E+03  0.45612452479E+03  0.10000000000E+00 0. -1.
         21    1    1    2  504  502 -0.16131995525E+02 -0.87207219207E+01 -0.67983947569E+01  0.19557874161E+02  0.00000000000E+00 0.  1.
<mgrwt>
<rscale>  1 0.12634102E+03</rscale>
<asrwt>0</asrwt>
<pdfrwt beam="1">  1       21 0.10275490E+00 0.12634102E+03</pdfrwt>
<pdfrwt beam="2">  1       21 0.29554480E-02 0.12634102E+03</pdfrwt>
<totfact> 0.50530950E+05</totfact>
</mgrwt>
</event>
<event>
 6    1  0.4259848E-002  0.1444680E+03  0.7546771E-02  0.1207440E+00
         21   -1    0    0  503  502  0.00000000000E+00  0.00000000000E+00  0.89774858252E+03  0.89774858252E+03  0.00000000000E+00 0.  1.
         21   -1    0    0  504  503 -0.00000000000E+00 -0.00000000000E+00 -0.41972927091E+03  0.41972927091E+03  0.00000000000E+00 0.  1.
         25    2    1    2    0    0 -0.52771963655E+02  0.49609309663E+02  0.88874730891E+03  0.90041256894E+03  0.12500020588E+03 0.  0.
          5    1    3    3  501    0 -0.27344638094E+02  0.45443845389E+02  0.11958033199E+03  0.13081413577E+03  0.10000000000E+00 0. -1.
         -5    1    3    3    0  501 -0.25427325561E+02  0.41654642740E+01  0.76916697691E+03  0.76959843318E+03  0.10000000000E+00 0. -1.
         21    1    1    2  504  502  0.52771963655E+02 -0.49609309663E+02 -0.41072799730E+03  0.41706528448E+03  0.00000000000E+00 0.  1.
<mgrwt>
<rscale>  1 0.14446804E+03</rscale>
<asrwt>0</asrwt>
<pdfrwt beam="1">  1       21 0.13811517E+00 0.14446804E+03</pdfrwt>
<pdfrwt beam="2">  1       21 0.64573734E-01 0.14446804E+03</pdfrwt>
<totfact> 0.86733861E+02</totfact>
</mgrwt>
</event>
<event>
 6    1  0.4259848E-002  0.1311594E+03  0.7546771E-02  0.1225746E+00
         21   -1    0    0  504  502  0.00000000000E+00  0.00000000000E+00  0.13299321863E+03  0.13299321863E+03  0.00000000000E+00 0.  1.
         21   -1    0    0  502  503 -0.00000000000E+00 -0.00000000000E+00 -0.63991331777E+02  0.63991331777E+02  0.00000000000E+00 0.  1.
         25    2    1    2    0    0  0.11985787101E+02 -0.37837791463E+02  0.82631835082E+02  0.15501869471E+03  0.12500967157E+03 0.  0.
          5    1    3    3  501    0 -0.44333375200E+02  0.21527906833E+02  0.29091474287E+02  0.57229562338E+02  0.10000000000E+00 0. -1.
         -5    1    3    3    0  501  0.56319162302E+02 -0.59365698296E+02  0.53540360795E+02  0.97789132375E+02  0.10000000000E+00 0. -1.
         21    1    1    2  504  503 -0.11985787101E+02  0.37837791463E+02 -0.13629948230E+02  0.41965855692E+02  0.00000000000E+00 0.  1.
<mgrwt>
<rscale>  1 0.13115935E+03</rscale>
<asrwt>0</asrwt>
<pdfrwt beam="1">  1       21 0.20460495E-01 0.13115935E+03</pdfrwt>
<pdfrwt beam="2">  1       21 0.98448203E-02 0.13115935E+03</pdfrwt>
<totfact> 0.18367217E+06</totfact>
</mgrwt>
</event>
<event>
 6    1  0.4259848E-002  0.1259516E+03  0.7546771E-02  0.1233590E+00
         21   -1    0    0  503  502  0.00000000000E+00  0.00000000000E+00  0.16434473017E+04  0.16434473017E+04  0.00000000000E+00 0.  1.
         21   -1    0    0  504  503 -0.00000000000E+00 -0.00000000000E+00 -0.15756609234E+02  0.15756609234E+02  0.00000000000E+00 0. -1.
         25    2    1    2    0    0 -0.13536951817E+02  0.74642706603E+01  0.16365481079E+04  0.16413876765E+04  0.12499932316E+03 0.  0.
          5    1    3    3  501    0 -0.61830523945E+02  0.75562469761E+01  0.12885267706E+04  0.12900315341E+04  0.10000000000E+00 0.  1.
         -5    1    3    3    0  501  0.48293572128E+02 -0.91976315786E-01  0.34802133731E+03  0.35135614239E+03  0.10000000000E+00 0.  1.
         21    1    1    2  504  502  0.13536951817E+02 -0.74642706603E+01 -0.88574154186E+01  0.17816234420E+02  0.00000000000E+00 0. -1.
<mgrwt>
<rscale>  1 0.12595156E+03</rscale>
<asrwt>0</asrwt>
<pdfrwt beam="1">  1       21 0.25283791E+00 0.12595156E+03</pdfrwt>
<pdfrwt beam="2">  1       21 0.24240950E-02 0.12595156E+03</pdfrwt>
<totfact> 0.60904995E+04</totfact>
</mgrwt>
</event>
<event>
 6    1  0.4259848E-002  0.1320925E+03  0.7546771E-02  0.1224384E+00
         21   -1    0    0  504  502  0.00000000000E+00  0.00000000000E+00  0.40633306380E+02  0.40633306380E+02  0.00000000000E+00 0.  1.
         21   -1    0    0  502  503 -0.00000000000E+00 -0.00000000000E+00 -0.19581327598E+03  0.19581327598E+03  0.00000000000E+00 0.  1.
         25    2    1    2    0    0  0.31902628082E+00 -0.42707756048E+02 -0.95237752248E+02  0.16284547078E+03  0.12499745476E+03 0.  0.
          5    1    3    3  501    0  0.27938147507E+02 -0.66123530927E+02 -0.12948582904E+02  0.72942012775E+02  0.10000000000E+00 0. -1.
         -5    1    3    3    0  501 -0.27619121227E+02  0.23415774879E+02 -0.82289169344E+02  0.89903458008E+02  0.10000000000E+00 0. -1.
         21    1    1    2  504  503 -0.31902628082E+00  0.42707756048E+02 -0.59942217356E+02  0.73601111581E+02  0.00000000000E+00 0.  1.
<mgrwt>
<rscale>  1 0.13209246E+03</rscale>
<asrwt>0</asrwt>
<pdfrwt beam="1">  1       21 0.62512778E-02 0.13209246E+03</pdfrwt>
<pdfrwt beam="2">  1       21 0.30125120E-01 0.13209246E+03</pdfrwt>
<totfact> 0.19339099E+06</totfact>
</mgrwt>
</event>
<event>
 6    1  0.4259848E-002  0.1279834E+03  0.7546771E-02  0.1230479E+00
         21   -1    0    0  504  502  0.00000000000E+00  0.00000000000E+00  0.17677209507E+03  0.17677209507E+03  0.00000000000E+00 0.  1.
         21   -1    0    0  502  503 -0.00000000000E+00 -0.00000000000E+00 -0.35369121817E+02  0.35369121817E+02  0.00000000000E+00 0.  1.
         25    2    1    2    0    0  0.69143183751E+01 -0.26603690350E+02  0.12986237056E+03  0.18232931240E+03  0.12499671488E+03 0.  0.
          5    1    3    3  501    0  0.69509975528E+01  0.58243000004E+01 -0.23702282880E+02  0.25378082102E+02  0.10000000000E+00 0. -1.
         -5    1    3    3    0  501 -0.36679177711E-01 -0.32427990351E+02  0.15356465344E+03  0.15695123029E+03  0.10000000000E+00 0. -1.
         21    1    1    2  504  503 -0.69143183751E+01  0.26603690350E+02  0.11540602686E+02  0.29811904488E+02  0.00000000000E+00 0. -1.
<mgrwt>
<rscale>  1 0.12798337E+03</rscale>
<asrwt>0</asrwt>
<pdfrwt beam="1">  1       21 0.27195707E-01 0.12798337E+03</pdfrwt>
<pdfrwt beam="2">  1       21 0.54414034E-02 0.12798337E+03</pdfrwt>
<totfact> 0.29737304E+06</totfact>
</mgrwt>
</event>
<event>
 6    1  0.4259848E-002  0.1389514E+03  0.7546771E-02  0.1214747E+00
         21   -1    0    0  504  502  0.00000000000E+00  0.00000000000E+00  0.22059443561E+03  0.22059443561E+03  0.00000000000E+00 0.  1.
         21   -1    0    0  502  503 -0.00000000000E+00 -0.00000000000E+00 -0.10405205155E+03  0.10405205155E+03  0.00000000000E+00 0.  1.
         25    2    1    2    0    0 -0.60687333299E+02  0.66752975563E+00  0.18615292651E+03  0.23229376312E+03  0.12499632921E+03 0.  0.
          5    1    3    3  501    0 -0.97544281906E+02 -0.12561332911E+02  0.14741476527E+03  0.17721116510E+03  0.10000000000E+00 0. -1.
         -5    1    3    3    0  501  0.36856948608E+02  0.13228862666E+02  0.38738161236E+02  0.55082598015E+02  0.10000000000E+00 0. -1.
         21    1    1    2  504  503  0.60687333299E+02 -0.66752975563E+00 -0.69610542446E+02  0.92352724045E+02  0.00000000000E+00 0.  1.
<mgrwt>
<rscale>  1 0.13895136E+03</rscale>
<asrwt>0</asrwt>
<pdfrwt beam="1">  1       21 0.33937605E-01 0.13895136E+03</pdfrwt>
<pdfrwt beam="2">  1       21 0.16008008E-01 0.13895136E+03</pdfrwt>
<totfact> 0.29480850E+05</totfact>
</mgrwt>
</event>
<event>
 6    1  0.4259848E-002  0.1259956E+03  0.7546771E-02  0.1233522E+00
         21   -1    0    0  504  502  0.00000000000E+00  0.00000000000E+00  0.67380750131E+02  0.67380750131E+02  0.00000000000E+00 0.  1.
         21   -1    0    0  502  503 -0.00000000000E+00 -0.00000000000E+00 -0.75559729923E+02  0.75559729923E+02  0.00000000000E+00 0.  1.
         25    2    1    2    0    0 -0.15690198687E+02  0.18212238431E+01 -0.20927943007E+01  0.12601296266E+03  0.12500155111E+03 0.  0.
          5    1    3    3  501    0  0.41570955903E+02  0.11680782703E+02  0.36265499256E+02  0.56389551298E+02  0.10000000000E+00 0. -1.
         -5    1    3    3    0  501 -0.57261154589E+02 -0.98595588599E+01 -0.38358293557E+02  0.69623411367E+02  0.10000000000E+00 0. -1.
         21    1    1    2  504  503  0.15690198687E+02 -0.18212238431E+01 -0.60861854920E+01  0.16927517389E+02  0.00000000000E+00 0. -1.
<mgrwt>
<rscale>  1 0.12599558E+03</rscale>
<asrwt>0</asrwt>
<pdfrwt beam="1">  1       21 0.10366269E-01 0.12599558E+03</pdfrwt>
<pdfrwt beam="2">  1       21 0.11624574E-01 0.12599558E+03</pdfrwt>
<totfact> 0.46557844E+06</totfact>
</mgrwt>
</event>
<event>
 6    1  0.4259848E-002  0.1531226E+03  0.7546771E-02  0.1196688E+00
         21   -1    0    0  503  502  0.00000000000E+00  0.00000000000E+00  0.15226875360E+02  0.15226875360E+02  0.00000000000E+00 0.  1.
         21   -1    0    0  504  503 -0.00000000000E+00 -0.00000000000E+00 -0.13107090628E+04  0.13107090628E+04  0.00000000000E+00 0. -1.
         25    2    1    2    0    0 -0.88074824956E+02  0.80887746739E+01 -0.43977470246E+03  0.46566975672E+03  0.12499572128E+03 0.  0.
          5    1    3    3  501    0  0.51640580500E+01 -0.36278077925E+02 -0.47267702325E+02  0.59808127513E+02  0.10000000000E+00 0. -1.
         -5    1    3    3    0  501 -0.93238883006E+02  0.44366852599E+02 -0.39250700013E+03  0.40586162921E+03  0.10000000000E+00 0. -1.
         21    1    1    2  504  502  0.88074824956E+02 -0.80887746739E+01 -0.85570748495E+03  0.86026618140E+03  0.00000000000E+00 0. -1.
<mgrwt>
<rscale>  1 0.15312261E+03</rscale>
<asrwt>0</asrwt>
<pdfrwt beam="1">  1       21 0.23425962E-02 0.15312261E+03</pdfrwt>
<pdfrwt beam="2">  1       21 0.20164755E+00 0.15312261E+03</pdfrwt>
<totfact> 0.12745041E+05</totfact>
</mgrwt>
</event>
<event>
 6    1  0.4259848E-002  0.1260009E+03  0.7546771E-02  0.1233513E+00
         21   -1    0    0  504  502  0.00000000000E+00  0.00000000000E+00  0.42079746706E+03  0.42079746706E+03  0.00000000000E+00 0.  1.
         21   -1    0    0  502  503 -0.00000000000E+00 -0.00000000000E+00 -0.39394612858E+02  0.39394612858E+02  0.00000000000E+00 0.  1.
         25    2    1    2    0    0 -0.15178859710E+02 -0.46182025394E+01  0.40921417282E+03  0.42817341318E+03  0.12499802773E+03 0.  0.
          5    1    3    3  501    0  0.19254837693E+01  0.36579792970E+01 -0.88023647602E+01  0.97252211108E+01  0.10000000000E+00 0.  1.
         -5    1    3    3    0  501 -0.17104343479E+02 -0.82761818364E+01  0.41801653758E+03  0.41844819207E+03  0.10000000000E+00 0.  1.
         21    1    1    2  504  503  0.15178859710E+02  0.46182025394E+01 -0.27811318617E+02  0.32018666743E+02  0.00000000000E+00 0.  1.
<mgrwt>
<rscale>  1 0.12600092E+03</rscale>
<asrwt>0</asrwt>
<pdfrwt beam="1">  1       21 0.64738069E-01 0.12600092E+03</pdfrwt>
<pdfrwt beam="2">  1       21 0.60607100E-02 0.12600092E+03</pdfrwt>
<totfact> 0.43096919E+05</totfact>
</mgrwt>
</event>
<event>
 6    1  0.4259848E-002  0.1261345E+03  0.7546771E-02  0.1233307E+00
         21   -1    0    0  504  502  0.00000000000E+00  0.00000000000E+00  0.15874408228E+02  0.15874408228E+02  0.00000000000E+00 0.  1.
         21   -1    0    0  502  503 -0.00000000000E+00 -0.00000000000E+00 -0.50907888236E+03  0.50907888236E+03  0.00000000000E+00 0.  1.
         25    2    1    2    0    0 -0.10646235073E+02  0.12985174347E+02 -0.23941927917E+03  0.27061319887E+03  0.12501181980E+03 0.  0.
          5    1    3    3  501    0  0.48715469709E+02 -0.20635234369E+02 -0.14321771770E+03  0.15267722342E+03  0.10000000000E+00 0. -1.
         -5    1    3    3    0  501 -0.59361704782E+02  0.33620408715E+02 -0.96201561466E+02  0.11793597545E+03  0.10000000000E+00 0. -1.
         21    1    1    2  504  503  0.10646235073E+02 -0.12985174347E+02 -0.25378519496E+03  0.25434009172E+03  0.00000000000E+00 0.  1.
<mgrwt>
<rscale>  1 0.12613450E+03</rscale>
<asrwt>0</asrwt>
<pdfrwt beam="1">  1       21 0.24422167E-02 0.12613450E+03</pdfrwt>
<pdfrwt beam="2">  1       21 0.78319827E-01 0.12613450E+03</pdfrwt>
<totfact> 0.12830820E+06</totfact>
</mgrwt>
</event>
<event>
 6    1  0.4259848E-002  0.1260730E+03  0.7546771E-02  0.1233402E+00
         21   -1    0    0  504  502  0.00000000000E+00  0.00000000000E+00  0.18810880399E+03  0.18810880399E+03  0.00000000000E+00 0.  1.
         21   -1    0    0  502  503 -0.00000000000E+00 -0.00000000000E+00 -0.13557695424E+03  0.13557695424E+03  0.00000000000E+00 0.  1.
         25    2    1    2    0    0 -0.16208920753E+02 -0.25331133215E+01  0.16633036957E+03  0.20871076577E+03  0.12500098453E+03 0.  0.
          5    1    3    3  501    0 -0.67365855965E+02  0.38000230075E+01  0.58945231301E+02  0.89594358181E+02  0.10000000000E+00 0. -1.
         -5    1    3    3    0  501  0.51156935211E+02 -0.63331363289E+01  0.10738513827E+03  0.11911640759E+03  0.10000000000E+00 0. -1.
         21    1    1    2  504  503  0.16208920753E+02  0.25331133215E+01 -0.11379851983E+03  0.11497499246E+03  0.00000000000E+00 0.  1.
<mgrwt>
<rscale>  1 0.12607296E+03</rscale>
<asrwt>0</asrwt>
<pdfrwt beam="1">  1       21 0.28939816E-01 0.12607296E+03</pdfrwt>
<pdfrwt beam="2">  1       21 0.20857993E-01 0.12607296E+03</pdfrwt>
<totfact> 0.24774346E+05</totfact>
</mgrwt>
</event>
<event>
 6    1  0.4259848E-002  0.1308544E+03  0.7546771E-02  0.1226193E+00
         21   -1    0    0  504  502  0.00000000000E+00  0.00000000000E+00  0.42485608721E+02  0.42485608721E+02  0.00000000000E+00 0. -1.
         21   -1    0    0  502  503 -0.00000000000E+00 -0.00000000000E+00 -0.19538906036E+03  0.19538906036E+03  0.00000000000E+00 0. -1.
         25    2    1    2    0    0 -0.10478480031E+02  0.37258899937E+02 -0.74843631792E+02  0.15074626015E+03  0.12499936624E+03 0.  0.
          5    1    3    3  501    0  0.47057510762E+02 -0.18628049073E+02 -0.30612454232E+02  0.59148507043E+02  0.10000000000E+00 0.  1.
         -5    1    3    3    0  501 -0.57535990792E+02  0.55886949010E+02 -0.44231177560E+02  0.91597753108E+02  0.10000000000E+00 0.  1.
         21    1    1    2  504  503  0.10478480031E+02 -0.37258899937E+02 -0.78059819850E+02  0.87128408933E+02  0.00000000000E+00 0. -1.
<mgrwt>
<rscale>  1 0.13085437E+03</rscale>
<asrwt>0</asrwt>
<pdfrwt beam="1">  1       21 0.65362474E-02 0.13085437E+03</pdfrwt>
<pdfrwt beam="2">  1       21 0.30059856E-01 0.13085437E+03</pdfrwt>
<totfact> 0.17996402E+06</totfact>
</mgrwt>
</event>
<event>
 6    1  0.4259848E-002  0.1347940E+03  0.7546771E-02  0.1220511E+00
         21   -1    0    0  503  502  0.00000000000E+00  0.00000000000E+00  0.82267194606E+01  0.82267194606E+01  0.00000000000E+00 0. -1.
         21   -1    0    0  504  503 -0.00000000000E+00 -0.00000000000E+00 -0.19672651279E+04  0.19672651279E+04  0.00000000000E+00 0. -1.
         25    2    1    2    0    0 -0.49709663312E+02  0.85417387159E+01 -0.57708729009E+03  0.59262059325E+03  0.12500166094E+03 0.  0.
          5    1    3    3  501    0 -0.86586405783E+02 -0.93493118142E+01 -0.29551607579E+03  0.30808176893E+03  0.10000000000E+00 0.  1.
         -5    1    3    3    0  501  0.36876742471E+02  0.17891050530E+02 -0.28157121430E+03  0.28453882432E+03  0.10000000000E+00 0.  1.
         21    1    1    2  504  502  0.49709663312E+02 -0.85417387159E+01 -0.13819511183E+04  0.13828712541E+04  0.00000000000E+00 0. -1.
<mgrwt>
<rscale>  1 0.13479402E+03</rscale>
<asrwt>0</asrwt>
<pdfrwt beam="1">  1       21 0.12656483E-02 0.13479402E+03</pdfrwt>
<pdfrwt beam="2">  1       21 0.30265639E+00 0.13479402E+03</pdfrwt>
<totfact> 0.89655768E+04</totfact>
</mgrwt>
</event>
<event>
 6    1  0.4259848E-002  0.1281354E+03  0.7546771E-02  0.1230249E+00
         21   -1    0    0  504  502  0.00000000000E+00  0.00000000000E+00  0.37307999726E+03  0.37307999726E+03  0.00000000000E+00 0.  1.
         21   -1    0    0  502  503 -0.00000000000E+00 -0.00000000000E+00 -0.24157423843E+02  0.24157423843E+02  0.00000000000E+00 0.  1.
         25    2    1    2    0    0 -0.27271202715E+02  0.70873939008E+01  0.34593376374E+03  0.36890223745E+03  0.12499896898E+03 0.  0.
          5    1    3    3  501    0 -0.48494423258E+02 -0.38337700215E+02  0.27608530635E+03  0.28292153458E+03  0.10000000000E+00 0. -1.
         -5    1    3    3    0  501  0.21223220543E+02  0.45425094116E+02  0.69848457389E+02  0.85980702866E+02  0.10000000000E+00 0. -1.
         21    1    1    2  504  503  0.27271202715E+02 -0.70873939008E+01  0.29888096782E+01  0.28335183661E+02  0.00000000000E+00 0.  1.
<mgrwt>
<rscale>  1 0.12813544E+03</rscale>
<asrwt>0</asrwt>
<pdfrwt beam="1">  1       21 0.57396918E-01 0.12813544E+03</pdfrwt>
<pdfrwt beam="2">  1       21 0.37165270E-02 0.12813544E+03</pdfrwt>
<totfact> 0.12629711E+06</totfact>
</mgrwt>
</event>
<event>
 6    1  0.4259848E-002  0.1486317E+03  0.7546771E-02  0.1202164E+00
         21   -1    0    0  503  502  0.00000000000E+00  0.00000000000E+00  0.42938048311E+03  0.42938048311E+03  0.00000000000E+00 0.  1.
         21   -1    0    0  504  503 -0.00000000000E+00 -0.00000000000E+00 -0.30546401018E+02  0.30546401018E+02  0.00000000000E+00 0.  1.
         25    2    1    2    0    0  0.70487929076E+02  0.38701437759E+02  0.26027909260E+03  0.29972752538E+03  0.12500013598E+03 0.  0.
          5    1    3    3  501    0 -0.36015188483E+02  0.52518958517E+01  0.76162073997E+02  0.84411774812E+02  0.10000000000E+00 0.  1.
         -5    1    3    3    0  501  0.10650311756E+03  0.33449541907E+02  0.18411701860E+03  0.21531575057E+03  0.10000000000E+00 0.  1.
         21    1    1    2  504  502 -0.70487929076E+02 -0.38701437759E+02  0.13855498949E+03  0.16019935875E+03  0.00000000000E+00 0.  1.
<mgrwt>
<rscale>  1 0.14863170E+03</rscale>
<asrwt>0</asrwt>
<pdfrwt beam="1">  1       21 0.66058531E-01 0.14863170E+03</pdfrwt>
<pdfrwt beam="2">  1       21 0.46994466E-02 0.14863170E+03</pdfrwt>
<totfact> 0.63236665E+05</totfact>
</mgrwt>
</event>
<event>
 6    1  0.4259848E-002  0.1264416E+03  0.7546771E-02  0.1232833E+00
         21   -1    0    0  504  502  0.00000000000E+00  0.00000000000E+00  0.71632104496E+02  0.71632104496E+02  0.00000000000E+00 0. -1.
         21   -1    0    0  502  503 -0.00000000000E+00 -0.00000000000E+00 -0.12453923635E+03  0.12453923635E+03  0.00000000000E+00 0.  1.
         25    2    1    2    0    0 -0.19020032763E+02 -0.63795379555E+00  0.13435225466E+02  0.12715339386E+03  0.12500124661E+03 0.  0.
          5    1    3    3  501    0 -0.64622275432E+02 -0.25190459543E+02  0.25634543946E+02  0.73944151746E+02  0.10000000000E+00 0. -1.
         -5    1    3    3    0  501  0.45602242669E+02  0.24552505748E+02 -0.12199318480E+02  0.53209242114E+02  0.10000000000E+00 0. -1.
         21    1    1    2  504  503  0.19020032763E+02  0.63795379555E+00 -0.66342357319E+02  0.69017946985E+02  0.00000000000E+00 0.  1.
<mgrwt>
<rscale>  1 0.12644161E+03</rscale>
<asrwt>0</asrwt>
<pdfrwt beam="1">  1       21 0.11020324E-01 0.12644161E+03</pdfrwt>
<pdfrwt beam="2">  1       21 0.19159882E-01 0.12644161E+03</pdfrwt>
<totfact> 0.16998162E+06</totfact>
</mgrwt>
</event>
<event>
 6    1  0.4259848E-002  0.1277015E+03  0.7546771E-02  0.1230907E+00
         21   -1    0    0  504  502  0.00000000000E+00  0.00000000000E+00  0.33248317265E+02  0.33248317265E+02  0.00000000000E+00 0.  1.
         21   -1    0    0  502  503 -0.00000000000E+00 -0.00000000000E+00 -0.20894805059E+03  0.20894805059E+03  0.00000000000E+00 0.  1.
         25    2    1    2    0    0  0.21619953090E+02  0.14603589631E+02 -0.17429257844E+03  0.21606846540E+03  0.12500796630E+03 0.  0.
          5    1    3    3  501    0 -0.79087405761E+01 -0.53506452758E+01  0.18066969885E+02  0.20435336631E+02  0.10000000000E+00 0. -1.
         -5    1    3    3    0  501  0.29528693666E+02  0.19954234907E+02 -0.19235954833E+03  0.19563312877E+03  0.10000000000E+00 0. -1.
         21    1    1    2  504  503 -0.21619953090E+02 -0.14603589631E+02 -0.14071548828E+01  0.26127902453E+02  0.00000000000E+00 0.  1.
<mgrwt>
<rscale>  1 0.12770152E+03</rscale>
<asrwt>0</asrwt>
<pdfrwt beam="1">  1       21 0.51151256E-02 0.12770152E+03</pdfrwt>
<pdfrwt beam="2">  1       21 0.32145855E-01 0.12770152E+03</pdfrwt>
<totfact> 0.23914018E+06</totfact>
</mgrwt>
</event>
<event>
 6    1  0.4259848E-002  0.1259151E+03  0.7546771E-02  0.1233646E+00
         21   -1    0    0  504  502  0.00000000000E+00  0.00000000000E+00  0.21592967301E+03  0.21592967301E+03  0.00000000000E+00 0.  1.
         21   -1    0    0  502  503 -0.00000000000E+00 -0.00000000000E+00 -0.62323910153E+02  0.62323910153E+02  0.00000000000E+00 0.  1.
         25    2    1    2    0    0 -0.15078791980E+02 -0.29937939514E+01  0.19611088342E+03  0.23305382605E+03  0.12497309500E+03 0.  0.
          5    1    3    3  501    0  0.67263948555E+01  0.52753457593E+02  0.42128185836E+02  0.67845159868E+02  0.10000000000E+00 0.  1.
         -5    1    3    3    0  501 -0.21805186835E+02 -0.55747251544E+02  0.15398269758E+03  0.16520866618E+03  0.10000000000E+00 0.  1.
         21    1    1    2  504  503  0.15078791980E+02  0.29937939514E+01 -0.42505120556E+02  0.45199757116E+02  0.00000000000E+00 0.  1.
<mgrwt>
<rscale>  1 0.12591508E+03</rscale>
<asrwt>0</asrwt>
<pdfrwt beam="1">  1       21 0.33219949E-01 0.12591508E+03</pdfrwt>
<pdfrwt beam="2">  1       21 0.95882940E-02 0.12591508E+03</pdfrwt>
<totfact> 0.76552853E+05</totfact>
</mgrwt>
</event>
<event>
 6    1  0.4259848E-002  0.1394970E+03  0.7546771E-02  0.1214007E+00
         21   -1    0    0  503  502  0.00000000000E+00  0.00000000000E+00  0.19411786665E+03  0.19411786665E+03  0.00000000000E+00 0.  1.
         21   -1    0    0  504  503 -0.00000000000E+00 -0.00000000000E+00 -0.75924119474E+02  0.75924119474E+02  0.00000000000E+00 0.  1.
         25    2    1    2    0    0  0.60593371815E+02 -0.12820990043E+02  0.14619596865E+03  0.20207097097E+03  0.12499392611E+03 0.  0.
          5    1    3    3  501    0  0.49957970493E+02  0.52061027558E+02  0.61195932901E+02  0.94610261652E+02  0.10000000000E+00 0.  1.
         -5    1    3    3    0  501  0.10635401321E+02 -0.64882017601E+02  0.85000035749E+02  0.10746070932E+03  0.10000000000E+00 0.  1.
         21    1    1    2  504  502 -0.60593371815E+02  0.12820990043E+02 -0.28002221476E+02  0.67971015155E+02  0.00000000000E+00 0.  1.
<mgrwt>
<rscale>  1 0.13949701E+03</rscale>
<asrwt>0</asrwt>
<pdfrwt beam="1">  1       21 0.29864287E-01 0.13949701E+03</pdfrwt>
<pdfrwt beam="2">  1       21 0.11680634E-01 0.13949701E+03</pdfrwt>
<totfact> 0.66531397E+05</totfact>
</mgrwt>
</event>
<event>
 6    1  0.4259848E-002  0.1370074E+03  0.7546771E-02  0.1217413E+00
         21   -1    0    0  503  502  0.00000000000E+00  0.00000000000E+00  0.18499263532E+03  0.18499263532E+03  0.00000000000E+00 0. -1.
         21   -1    0    0  504  503 -0.00000000000E+00 -0.00000000000E+00 -0.33060403224E+03  0.33060403224E+03  0.00000000000E+00 0.  1.
         25    2    1    2    0    0  0.51924379884E+02  0.21185969945E+02  0.15668784764E+03  0.20813964648E+03  0.12500417708E+03 0.  0.
          5    1    3    3  501    0 -0.32422250694E+02  0.12293425066E+02  0.59534791660E+01  0.35182162442E+02  0.10000000000E+00 0.  1.
         -5    1    3    3    0  501  0.84346630578E+02  0.88925448788E+01  0.15073436847E+03  0.17295748403E+03  0.10000000000E+00 0.  1.
         21    1    1    2  504  502 -0.51924379884E+02 -0.21185969945E+02 -0.30229924456E+03  0.30745702108E+03  0.00000000000E+00 0.  1.
<mgrwt>
<rscale>  1 0.13700741E+03</rscale>
<asrwt>0</asrwt>
<pdfrwt beam="1">  1       21 0.28460405E-01 0.13700741E+03</pdfrwt>
<pdfrwt beam="2">  1       21 0.50862159E-01 0.13700741E+03</pdfrwt>
<totfact> 0.44659817E+04</totfact>
</mgrwt>
</event>
<event>
 6    1  0.4259848E-002  0.1311731E+03  0.7546771E-02  0.1225725E+00
         21   -1    0    0  504  502  0.00000000000E+00  0.00000000000E+00  0.11431316038E+03  0.11431316038E+03  0.00000000000E+00 0. -1.
         21   -1    0    0  502  503 -0.00000000000E+00 -0.00000000000E+00 -0.12829839133E+03  0.12829839133E+03  0.00000000000E+00 0.  1.
         25    2    1    2    0    0  0.11273148769E+02  0.38178370590E+02  0.70717181344E+02  0.14902111142E+03  0.12498679949E+03 0.  0.
          5    1    3    3  501    0  0.48284309561E+02 -0.12669715713E+02  0.70185359671E+02  0.86127178975E+02  0.10000000000E+00 0. -1.
         -5    1    3    3    0  501 -0.37011160791E+02  0.50848086302E+02  0.53182167367E+00  0.62893932442E+02  0.10000000000E+00 0. -1.
         21    1    1    2  504  503 -0.11273148769E+02 -0.38178370590E+02 -0.84702412299E+02  0.93590440288E+02  0.00000000000E+00 0.  1.
<mgrwt>
<rscale>  1 0.13117306E+03</rscale>
<asrwt>0</asrwt>
<pdfrwt beam="1">  1       21 0.17586640E-01 0.13117306E+03</pdfrwt>
<pdfrwt beam="2">  1       21 0.19738214E-01 0.13117306E+03</pdfrwt>
<totfact> 0.69652165E+05</totfact>
</mgrwt>
</event>
<event>
 6    1  0.4259848E-002  0.1269324E+03  0.7546771E-02  0.1232080E+00
         21   -1    0    0  504  502  0.00000000000E+00  0.00000000000E+00  0.58341890233E+03  0.58341890233E+03  0.00000000000E+00 0.  1.
         21   -1    0    0  502  503 -0.00000000000E+00 -0.00000000000E+00 -0.13925417571E+02  0.13925417571E+02  0.00000000000E+00 0.  1.
         25    2    1    2    0    0 -0.62784838366E+01  0.21156369884E+02  0.55839906379E+03  0.57264416762E+03  0.12499926770E+03 0.  0.
          5    1    3    3  501    0 -0.37491297482E+01  0.73906676821E+02  0.33801838427E+03  0.34602411904E+03  0.10000000000E+00 0.  1.
         -5    1    3    3    0  501 -0.25293540884E+01 -0.52750306937E+02  0.22038067952E+03  0.22662004858E+03  0.10000000000E+00 0.  1.
         21    1    1    2  504  503  0.62784838366E+01 -0.21156369884E+02  0.11094420971E+02  0.24700152280E+02  0.00000000000E+00 0. -1.
<mgrwt>
<rscale>  1 0.12693238E+03</rscale>
<asrwt>0</asrwt>
<pdfrwt beam="1">  1       21 0.89756735E-01 0.12693238E+03</pdfrwt>
<pdfrwt beam="2">  1       21 0.21423724E-02 0.12693238E+03</pdfrwt>
<totfact> 0.11671156E+06</totfact>
</mgrwt>
</event>
<event>
 6    1  0.4259848E-002  0.1426251E+03  0.7546771E-02  0.1209840E+00
         21   -1    0    0  503  502  0.00000000000E+00  0.00000000000E+00  0.25064252311E+03  0.25064252311E+03  0.00000000000E+00 0. -1.
         21   -1    0    0  504  503 -0.00000000000E+00 -0.00000000000E+00 -0.73659862273E+02  0.73659862273E+02  0.00000000000E+00 0. -1.
         25    2    1    2    0    0  0.23591269160E+02 -0.64518545209E+02  0.20531537841E+03  0.24999267174E+03  0.12499096230E+03 0.  0.
          5    1    3    3  501    0 -0.20893211040E+02 -0.80313706754E+02  0.76758422669E+02  0.11304283794E+03  0.10000000000E+00 0.  1.
         -5    1    3    3    0  501  0.44484480200E+02  0.15795161545E+02  0.12855695574E+03  0.13694983380E+03  0.10000000000E+00 0.  1.
         21    1    1    2  504  502 -0.23591269160E+02  0.64518545209E+02 -0.28332717574E+02  0.74309713642E+02  0.00000000000E+00 0. -1.
<mgrwt>
<rscale>  1 0.14262514E+03</rscale>
<asrwt>0</asrwt>
<pdfrwt beam="1">  1       21 0.38560388E-01 0.14262514E+03</pdfrwt>
<pdfrwt beam="2">  1       21 0.11332287E-01 0.14262514E+03</pdfrwt>
<totfact> 0.42503823E+05</totfact>
</mgrwt>
</event>
<event>
 6    1  0.4259848E-002  0.1302349E+03  0.7546771E-02  0.1227108E+00
         21   -1    0    0  503  502  0.00000000000E+00  0.00000000000E+00  0.20286525707E+04  0.20286525707E+04  0.00000000000E+00 0.  1.
         21   -1    0    0  504  503 -0.00000000000E+00 -0.00000000000E+00 -0.37917214948E+01  0.37917214948E+01  0.00000000000E+00 0.  1.
         25    2    1    2    0    0 -0.36089909014E+02 -0.60729588060E+01  0.17918810461E+04  0.17966075881E+04  0.12498711832E+03 0.  0.
          5    1    3    3  501    0 -0.36407143593E+02  0.18535436268E+02  0.17226134630E+04  0.17230978485E+04  0.10000000000E+00 0.  1.
         -5    1    3    3    0  501  0.31723457887E+00 -0.24608395074E+02  0.69267583100E+02  0.73509739588E+02  0.10000000000E+00 0.  1.
         21    1    1    2  504  502  0.36089909014E+02  0.60729588060E+01  0.23297980307E+03  0.23583670409E+03  0.00000000000E+00 0.  1.
<mgrwt>
<rscale>  1 0.13023495E+03</rscale>
<asrwt>0</asrwt>
<pdfrwt beam="1">  1       21 0.31209953E+00 0.13023495E+03</pdfrwt>
<pdfrwt beam="2">  1       21 0.58334339E-03 0.13023495E+03</pdfrwt>
<totfact> 0.26880729E+05</totfact>
</mgrwt>
</event>
<event>
 6    1  0.4259848E-002  0.1307732E+03  0.7546771E-02  0.1226313E+00
         21   -1    0    0  504  502  0.00000000000E+00  0.00000000000E+00  0.12267540622E+04  0.12267540622E+04  0.00000000000E+00 0.  1.
         21   -1    0    0  502  503 -0.00000000000E+00 -0.00000000000E+00 -0.16165684839E+02  0.16165684839E+02  0.00000000000E+00 0.  1.
         25    2    1    2    0    0  0.37492707093E+02  0.83578507613E+01  0.11938958569E+04  0.12010366121E+04  0.12500427843E+03 0.  0.
          5    1    3    3  501    0 -0.44501714955E+02  0.17953831401E+02  0.40494794714E+03  0.40778130486E+03  0.10000000000E+00 0.  1.
         -5    1    3    3    0  501  0.81994422048E+02 -0.95959806396E+01  0.78894790976E+03  0.79325530721E+03  0.10000000000E+00 0.  1.
         21    1    1    2  504  503 -0.37492707093E+02 -0.83578507613E+01  0.16692520421E+02  0.41883134941E+02  0.00000000000E+00 0.  1.
<mgrwt>
<rscale>  1 0.13077319E+03</rscale>
<asrwt>0</asrwt>
<pdfrwt beam="1">  1       21 0.18873132E+00 0.13077319E+03</pdfrwt>
<pdfrwt beam="2">  1       21 0.24870294E-02 0.13077319E+03</pdfrwt>
<totfact> 0.14168064E+05</totfact>
</mgrwt>
</event>
<event>
 6    1  0.4259848E-002  0.1270832E+03  0.7546771E-02  0.1231849E+00
         21   -1    0    0  504  502  0.00000000000E+00  0.00000000000E+00  0.38404777001E+03  0.38404777001E+03  0.00000000000E+00 0.  1.
         21   -1    0    0  502  503 -0.00000000000E+00 -0.00000000000E+00 -0.14656303200E+02  0.14656303200E+02  0.00000000000E+00 0.  1.
         25    2    1    2    0    0  0.21949351436E+01  0.22853997741E+02  0.31426246062E+03  0.33898531337E+03  0.12499210205E+03 0.  0.
          5    1    3    3  501    0 -0.22135388361E+02 -0.13483560352E+02  0.46906262005E+01  0.26339965676E+02  0.10000000000E+00 0. -1.
         -5    1    3    3    0  501  0.24330323504E+02  0.36337558094E+02  0.30957183442E+03  0.31264534770E+03  0.10000000000E+00 0. -1.
         21    1    1    2  504  503 -0.21949351436E+01 -0.22853997741E+02  0.55129006191E+02  0.59718759838E+02  0.00000000000E+00 0. -1.
<mgrwt>
<rscale>  1 0.12708323E+03</rscale>
<asrwt>0</asrwt>
<pdfrwt beam="1">  1       21 0.59084265E-01 0.12708323E+03</pdfrwt>
<pdfrwt beam="2">  1       21 0.22548162E-02 0.12708323E+03</pdfrwt>
<totfact> 0.26920067E+06</totfact>
</mgrwt>
</event>
<event>
 6    1  0.4259848E-002  0.1277040E+03  0.7546771E-02  0.1230903E+00
         21   -1    0    0  503  502  0.00000000000E+00  0.00000000000E+00  0.77169034117E+02  0.77169034117E+02  0.00000000000E+00 0. -1.
         21   -1    0    0  504  503 -0.00000000000E+00 -0.00000000000E+00 -0.11795732827E+03  0.11795732827E+03  0.00000000000E+00 0. -1.
         25    2    1    2    0    0 -0.22620796070E+02  0.13082600138E+02  0.19718996930E+02  0.12921743192E+03  0.12500180411E+03 0.  0.
          5    1    3    3  501    0  0.37467714552E+02 -0.14460560912E+02  0.43280196909E+02  0.59043398446E+02  0.10000000000E+00 0.  1.
         -5    1    3    3    0  501 -0.60088510622E+02  0.27543161050E+02 -0.23561199979E+02  0.70174033473E+02  0.10000000000E+00 0.  1.
         21    1    1    2  504  502  0.22620796070E+02 -0.13082600138E+02 -0.60507291080E+02  0.65908930465E+02  0.00000000000E+00 0. -1.
<mgrwt>
<rscale>  1 0.12770398E+03</rscale>
<asrwt>0</asrwt>
<pdfrwt beam="1">  1       21 0.11872159E-01 0.12770398E+03</pdfrwt>
<pdfrwt beam="2">  1       21 0.18147281E-01 0.12770398E+03</pdfrwt>
<totfact> 0.16471439E+06</totfact>
</mgrwt>
</event>
<event>
 6    1  0.4259848E-002  0.1259799E+03  0.7546771E-02  0.1233546E+00
         21   -1    0    0  504  502  0.00000000000E+00  0.00000000000E+00  0.84686796067E+02  0.84686796067E+02  0.00000000000E+00 0.  1.
         21   -1    0    0  502  503 -0.00000000000E+00 -0.00000000000E+00 -0.79457186140E+02  0.79457186140E+02  0.00000000000E+00 0.  1.
         25    2    1    2    0    0  0.69076458937E+01 -0.14079245721E+02  0.34777682573E+02  0.13069208646E+03  0.12499997411E+03 0.  0.
          5    1    3    3  501    0 -0.23888833221E+02 -0.52303230266E+02  0.53128215038E+02  0.78287428633E+02  0.10000000000E+00 0. -1.
         -5    1    3    3    0  501  0.30796479115E+02  0.38223984544E+02 -0.18350532466E+02  0.52404657828E+02  0.10000000000E+00 0. -1.
         21    1    1    2  504  503 -0.69076458937E+01  0.14079245721E+02 -0.29548072646E+02  0.33451895746E+02  0.00000000000E+00 0.  1.
<mgrwt>
<rscale>  1 0.12597990E+03</rscale>
<asrwt>0</asrwt>
<pdfrwt beam="1">  1       21 0.13028738E-01 0.12597990E+03</pdfrwt>
<pdfrwt beam="2">  1       21 0.12224182E-01 0.12597990E+03</pdfrwt>
<totfact> 0.28441741E+06</totfact>
</mgrwt>
</event>
<event>
 6    1  0.4259848E-002  0.1259461E+03  0.7546771E-02  0.1233598E+00
         21   -1    0    0  504  502  0.00000000000E+00  0.00000000000E+00  0.79321304744E+03  0.79321304744E+03  0.00000000000E+00 0. -1.
         21   -1    0    0  502  503 -0.00000000000E+00 -0.00000000000E+00 -0.65735866115E+02  0.65735866115E+02  0.00000000000E+00 0.  1.
         25    2    1    2    0    0  0.39449813426E+01  0.14930628714E+02  0.78722568617E+03  0.79723691810E+03  0.12499574417E+03 0.  0.
          5    1    3    3  501    0 -0.28540575501E+02  0.49256913113E+02  0.19531089052E+03  0.20343834912E+03  0.10000000000E+00 0.  1.
         -5    1    3    3    0  501  0.32485556843E+02 -0.34326284400E+02  0.59191479565E+03  0.59379856897E+03  0.10000000000E+00 0.  1.
         21    1    1    2  504  503 -0.39449813426E+01 -0.14930628714E+02 -0.59748504847E+02  0.61711995455E+02  0.00000000000E+00 0.  1.
<mgrwt>
<rscale>  1 0.12594611E+03</rscale>
<asrwt>0</asrwt>
<pdfrwt beam="1">  1       21 0.12203277E+00 0.12594611E+03</pdfrwt>
<pdfrwt beam="2">  1       21 0.10113211E-01 0.12594611E+03</pdfrwt>
<totfact> 0.41907908E+04</totfact>
</mgrwt>
</event>
<event>
 6    1  0.4259848E-002  0.1304238E+03  0.7546771E-02  0.1226828E+00
         21   -1    0    0  504  502  0.00000000000E+00  0.00000000000E+00  0.13429622893E+04  0.13429622893E+04  0.00000000000E+00 0. -1.
         21   -1    0    0  502  503 -0.00000000000E+00 -0.00000000000E+00 -0.77980229237E+01  0.77980229237E+01  0.00000000000E+00 0. -1.
         25    2    1    2    0    0 -0.36965892569E+02 -0.42581705179E+01  0.12615697757E+04  0.12682936021E+04  0.12500301120E+03 0.  0.
          5    1    3    3  501    0  0.20685959473E+02 -0.51064777324E+02  0.45875534196E+03  0.46205193884E+03  0.10000000000E+00 0. -1.
         -5    1    3    3    0  501 -0.57651852041E+02  0.46806606806E+02  0.80281443374E+03  0.80624166322E+03  0.10000000000E+00 0. -1.
         21    1    1    2  504  503  0.36965892569E+02  0.42581705179E+01  0.73594490701E+02  0.82466710199E+02  0.00000000000E+00 0. -1.
<mgrwt>
<rscale>  1 0.13042378E+03</rscale>
<asrwt>0</asrwt>
<pdfrwt beam="1">  1       21 0.20660940E+00 0.13042378E+03</pdfrwt>
<pdfrwt beam="2">  1       21 0.11996969E-02 0.13042378E+03</pdfrwt>
<totfact> 0.35202006E+05</totfact>
</mgrwt>
</event>
<event>
 6    1  0.4259848E-002  0.1457539E+03  0.7546771E-02  0.1205790E+00
         21   -1    0    0  503  502  0.00000000000E+00  0.00000000000E+00  0.24648218594E+02  0.24648218594E+02  0.00000000000E+00 0.  1.
         21   -1    0    0  504  503 -0.00000000000E+00 -0.00000000000E+00 -0.56609721435E+03  0.56609721435E+03  0.00000000000E+00 0.  1.
         25    2    1    2    0    0  0.55761875969E+01  0.74741760293E+02 -0.24599407556E+03  0.28593231894E+03  0.12500712462E+03 0.  0.
          5    1    3    3  501    0  0.37288406734E+02  0.48417232405E+02 -0.23564181575E+03  0.24343732048E+03  0.10000000000E+00 0. -1.
         -5    1    3    3    0  501 -0.31712219137E+02  0.26324527888E+02 -0.10352259803E+02  0.42494998460E+02  0.10000000000E+00 0. -1.
         21    1    1    2  504  502 -0.55761875969E+01 -0.74741760293E+02 -0.29545492020E+03  0.30481311401E+03  0.00000000000E+00 0.  1.
<mgrwt>
<rscale>  1 0.14575392E+03</rscale>
<asrwt>0</asrwt>
<pdfrwt beam="1">  1       21 0.37920335E-02 0.14575392E+03</pdfrwt>
<pdfrwt beam="2">  1       21 0.87091882E-01 0.14575392E+03</pdfrwt>
<totfact> 0.48987259E+05</totfact>
</mgrwt>
</event>
<event>
 6    1  0.4259848E-002  0.1261710E+03  0.7546771E-02  0.1233251E+00
         21   -1    0    0  503  502  0.00000000000E+00  0.00000000000E+00  0.41465769402E+03  0.41465769402E+03  0.00000000000E+00 0. -1.
         21   -1    0    0  504  503 -0.00000000000E+00 -0.00000000000E+00 -0.12385065825E+02  0.12385065825E+02  0.00000000000E+00 0. -1.
         25    2    1    2    0    0  0.11649012639E+02  0.12590248573E+02  0.35486755915E+03  0.37662991995E+03  0.12499959285E+03 0.  0.
          5    1    3    3  501    0  0.21129277042E+02 -0.53113538107E+02  0.12662630342E+03  0.13893064815E+03  0.10000000000E+00 0.  1.
         -5    1    3    3    0  501 -0.94802644027E+01  0.65703786681E+02  0.22824125573E+03  0.23769927180E+03  0.10000000000E+00 0.  1.
         21    1    1    2  504  502 -0.11649012639E+02 -0.12590248573E+02  0.47405069042E+02  0.50412839887E+02  0.00000000000E+00 0. -1.
<mgrwt>
<rscale>  1 0.12617096E+03</rscale>
<asrwt>0</asrwt>
<pdfrwt beam="1">  1       21 0.63793481E-01 0.12617096E+03</pdfrwt>
<pdfrwt beam="2">  1       21 0.19053951E-02 0.12617096E+03</pdfrwt>
<totfact> 0.29999982E+06</totfact>
</mgrwt>
</event>
<event>
 6    1  0.4259848E-002  0.1305472E+03  0.7546771E-02  0.1226646E+00
         21   -1    0    0  503  502  0.00000000000E+00  0.00000000000E+00  0.80216004481E+03  0.80216004481E+03  0.00000000000E+00 0. -1.
         21   -1    0    0  504  503 -0.00000000000E+00 -0.00000000000E+00 -0.95576066998E+01  0.95576066998E+01  0.00000000000E+00 0. -1.
         25    2    1    2    0    0 -0.36805858270E+02 -0.79092148717E+01  0.69402589315E+03  0.70619721700E+03  0.12500136820E+03 0.  0.
          5    1    3    3  501    0 -0.63765742033E+02  0.38301203549E+02  0.47143205808E+03  0.47726433707E+03  0.10000000000E+00 0.  1.
         -5    1    3    3    0  501  0.26959883762E+02 -0.46210418421E+02  0.22259383507E+03  0.22893287993E+03  0.10000000000E+00 0.  1.
         21    1    1    2  504  502  0.36805858270E+02  0.79092148717E+01  0.98576544957E+02  0.10552043451E+03  0.00000000000E+00 0. -1.
<mgrwt>
<rscale>  1 0.13054719E+03</rscale>
<asrwt>0</asrwt>
<pdfrwt beam="1">  1       21 0.12340918E+00 0.13054719E+03</pdfrwt>
<pdfrwt beam="2">  1       21 0.14704017E-02 0.13054719E+03</pdfrwt>
<totfact> 0.10052677E+06</totfact>
</mgrwt>
</event>
<event>
 6    1  0.4259848E-002  0.1435928E+03  0.7546771E-02  0.1208575E+00
         21   -1    0    0  504  502  0.00000000000E+00  0.00000000000E+00  0.86447907269E+03  0.86447907269E+03  0.00000000000E+00 0. -1.
         21   -1    0    0  502  503 -0.00000000000E+00 -0.00000000000E+00 -0.22195202834E+02  0.22195202834E+02  0.00000000000E+00 0. -1.
         25    2    1    2    0    0 -0.68454632536E+02  0.17570483100E+02  0.23575811457E+03  0.27604488677E+03  0.12499652928E+03 0.  0.
          5    1    3    3  501    0 -0.42389116113E+01 -0.45151033252E+02  0.12800490328E+03  0.13580077113E+03  0.10000000000E+00 0.  1.
         -5    1    3    3    0  501 -0.64215720924E+02  0.62721516352E+02  0.10775321129E+03  0.14024411564E+03  0.10000000000E+00 0.  1.
         21    1    1    2  504  503  0.68454632536E+02 -0.17570483100E+02  0.60652575528E+03  0.61062938875E+03  0.00000000000E+00 0. -1.
<mgrwt>
<rscale>  1 0.14359280E+03</rscale>
<asrwt>0</asrwt>
<pdfrwt beam="1">  1       21 0.13299675E+00 0.14359280E+03</pdfrwt>
<pdfrwt beam="2">  1       21 0.34146472E-02 0.14359280E+03</pdfrwt>
<totfact> 0.21197364E+05</totfact>
</mgrwt>
</event>
<event>
 6    1  0.4259848E-002  0.1264402E+03  0.7546771E-02  0.1232835E+00
         21   -1    0    0  503  502  0.00000000000E+00  0.00000000000E+00  0.61745187449E+01  0.61745187449E+01  0.00000000000E+00 0.  1.
         21   -1    0    0  504  503 -0.00000000000E+00 -0.00000000000E+00 -0.12494497272E+04  0.12494497272E+04  0.00000000000E+00 0.  1.
         25    2    1    2    0    0 -0.11935424847E+01 -0.19092159889E+02 -0.65809471456E+03  0.67013116696E+03  0.12498476898E+03 0.  0.
          5    1    3    3  501    0  0.53816804442E+02  0.31751341477E+01 -0.46520564923E+03  0.46831894686E+03  0.10000000000E+00 0.  1.
         -5    1    3    3    0  501 -0.55010346927E+02 -0.22267294037E+02 -0.19288906534E+03  0.20181222009E+03  0.10000000000E+00 0.  1.
         21    1    1    2  504  502  0.11935424847E+01  0.19092159889E+02 -0.58518049392E+03  0.58549307901E+03  0.00000000000E+00 0.  1.
<mgrwt>
<rscale>  1 0.12644021E+03</rscale>
<asrwt>0</asrwt>
<pdfrwt beam="1">  1       21 0.94992620E-03 0.12644021E+03</pdfrwt>
<pdfrwt beam="2">  1       21 0.19222299E+00 0.12644021E+03</pdfrwt>
<totfact> 0.62805365E+05</totfact>
</mgrwt>
</event>
<event>
 6    1  0.4259848E-002  0.1262270E+03  0.7546771E-02  0.1233164E+00
         21   -1    0    0  504  502  0.00000000000E+00  0.00000000000E+00  0.33145386991E+02  0.33145386991E+02  0.00000000000E+00 0.  1.
         21   -1    0    0  502  503 -0.00000000000E+00 -0.00000000000E+00 -0.16358918128E+03  0.16358918128E+03  0.00000000000E+00 0.  1.
         25    2    1    2    0    0  0.78211620713E+01 -0.15814640902E+02 -0.97999503297E+02  0.15980347756E+03  0.12498790082E+03 0.  0.
          5    1    3    3  501    0  0.39859609182E+01  0.37383387059E+02  0.10387539257E+02  0.39004057279E+02  0.10000000000E+00 0.  1.
         -5    1    3    3    0  501  0.38352011531E+01 -0.53198027961E+02 -0.10838704255E+03  0.12079942028E+03  0.10000000000E+00 0.  1.
         21    1    1    2  504  503 -0.78211620713E+01  0.15814640902E+02 -0.32444290994E+02  0.36931090711E+02  0.00000000000E+00 0.  1.
<mgrwt>
<rscale>  1 0.12622697E+03</rscale>
<asrwt>0</asrwt>
<pdfrwt beam="1">  1       21 0.50992903E-02 0.12622697E+03</pdfrwt>
<pdfrwt beam="2">  1       21 0.25167567E-01 0.12622697E+03</pdfrwt>
<totfact> 0.38407225E+06</totfact>
</mgrwt>
</event>
<event>
 6    1  0.4259848E-002  0.1675692E+03  0.7546771E-02  0.1180407E+00
         21   -1    0    0  504  502  0.00000000000E+00  0.00000000000E+00  0.51119454643E+02  0.51119454643E+02  0.00000000000E+00 0. -1.
         21   -1    0    0  502  503 -0.00000000000E+00 -0.00000000000E+00 -0.57340009169E+03  0.57340009169E+03  0.00000000000E+00 0. -1.
         25    2    1    2    0    0 -0.25189056865E+02  0.10871131752E+03 -0.11755464836E+03  0.20469128971E+03  0.12500715815E+03 0.  0.
          5    1    3    3  501    0 -0.27298887176E+02  0.55848512353E+02  0.13278956802E+02  0.63565920640E+02  0.10000000000E+00 0.  1.
         -5    1    3    3    0  501  0.21098303108E+01  0.52862805171E+02 -0.13083360517E+03  0.14112536907E+03  0.10000000000E+00 0.  1.
         21    1    1    2  504  503  0.25189056865E+02 -0.10871131752E+03 -0.40472598868E+03  0.41982825662E+03  0.00000000000E+00 0. -1.
<mgrwt>
<rscale>  1 0.16756918E+03</rscale>
<asrwt>0</asrwt>
<pdfrwt beam="1">  1       21 0.78645314E-02 0.16756918E+03</pdfrwt>
<pdfrwt beam="2">  1       21 0.88215400E-01 0.16756918E+03</pdfrwt>
<totfact> 0.13729152E+05</totfact>
</mgrwt>
</event>
<event>
 6    1  0.4259848E-002  0.1266336E+03  0.7546771E-02  0.1232538E+00
         21   -1    0    0  503  502  0.00000000000E+00  0.00000000000E+00  0.82116328222E+03  0.82116328222E+03  0.00000000000E+00 0. -1.
         21   -1    0    0  504  503 -0.00000000000E+00 -0.00000000000E+00 -0.67189516308E+01  0.67189516308E+01  0.00000000000E+00 0. -1.
         25    2    1    2    0    0 -0.19794296903E+02  0.49891715309E+01  0.73659586911E+03  0.74740186992E+03  0.12497749701E+03 0.  0.
          5    1    3    3  501    0  0.17798231196E+02  0.44659866058E+02  0.13456180278E+03  0.14289216017E+03  0.10000000000E+00 0. -1.
         -5    1    3    3    0  501 -0.37592528099E+02 -0.39670694527E+02  0.60203406632E+03  0.60450970975E+03  0.10000000000E+00 0. -1.
         21    1    1    2  504  502  0.19794296903E+02 -0.49891715309E+01  0.77848461479E+02  0.80480363923E+02  0.00000000000E+00 0. -1.
<mgrwt>
<rscale>  1 0.12663365E+03</rscale>
<asrwt>0</asrwt>
<pdfrwt beam="1">  1       21 0.12633273E+00 0.12663365E+03</pdfrwt>
<pdfrwt beam="2">  1       21 0.10336855E-02 0.12663365E+03</pdfrwt>
<totfact> 0.16597147E+06</totfact>
</mgrwt>
</event>
<event>
 6    1  0.4259848E-002  0.1270899E+03  0.7546771E-02  0.1231839E+00
         21   -1    0    0  504  502  0.00000000000E+00  0.00000000000E+00  0.11261459757E+03  0.11261459757E+03  0.00000000000E+00 0.  1.
         21   -1    0    0  502  503 -0.00000000000E+00 -0.00000000000E+00 -0.11870810393E+03  0.11870810393E+03  0.00000000000E+00 0.  1.
         25    2    1    2    0    0  0.94407162327E+01  0.20716559522E+02  0.74676426979E+02  0.14740556920E+03  0.12503411584E+03 0.  0.
          5    1    3    3  501    0  0.46881731468E+02  0.22698214844E+00  0.90470253799E+02  0.10189614855E+03  0.10000000000E+00 0.  1.
         -5    1    3    3    0  501 -0.37441015236E+02  0.20489577373E+02 -0.15793826820E+02  0.45509420656E+02  0.10000000000E+00 0.  1.
         21    1    1    2  504  503 -0.94407162327E+01 -0.20716559522E+02 -0.80769933337E+02  0.83917132295E+02  0.00000000000E+00 0.  1.
<mgrwt>
<rscale>  1 0.12708986E+03</rscale>
<asrwt>0</asrwt>
<pdfrwt beam="1">  1       21 0.17325323E-01 0.12708986E+03</pdfrwt>
<pdfrwt beam="2">  1       21 0.18262785E-01 0.12708986E+03</pdfrwt>
<totfact> 0.82573345E+05</totfact>
</mgrwt>
</event>
<event>
 6    1  0.4259848E-002  0.1277420E+03  0.7546771E-02  0.1230845E+00
         21   -1    0    0  504  502  0.00000000000E+00  0.00000000000E+00  0.24669306607E+03  0.24669306607E+03  0.00000000000E+00 0.  1.
         21   -1    0    0  502  503 -0.00000000000E+00 -0.00000000000E+00 -0.10503982048E+03  0.10503982048E+03  0.00000000000E+00 0. -1.
         25    2    1    2    0    0 -0.13220453337E+02 -0.22894382215E+02  0.22804539484E+03  0.26138612914E+03  0.12497629084E+03 0.  0.
          5    1    3    3  501    0  0.22559042060E+02 -0.50974913396E+02  0.20074058326E+03  0.20833661210E+03  0.10000000000E+00 0.  1.
         -5    1    3    3    0  501 -0.35779495397E+02  0.28080531181E+02  0.27304811585E+02  0.53049517038E+02  0.10000000000E+00 0.  1.
         21    1    1    2  504  503  0.13220453337E+02  0.22894382215E+02 -0.86392149255E+02  0.90346757420E+02  0.00000000000E+00 0. -1.
<mgrwt>
<rscale>  1 0.12774195E+03</rscale>
<asrwt>0</asrwt>
<pdfrwt beam="1">  1       21 0.37952779E-01 0.12774195E+03</pdfrwt>
<pdfrwt beam="2">  1       21 0.16159972E-01 0.12774195E+03</pdfrwt>
<totfact> 0.23298622E+05</totfact>
</mgrwt>
</event>
<event>
 6    1  0.4259848E-002  0.1258834E+03  0.7546771E-02  0.1233695E+00
         21   -1    0    0  503  502  0.00000000000E+00  0.00000000000E+00  0.35206987568E+02  0.35206987568E+02  0.00000000000E+00 0. -1.
         21   -1    0    0  504  503 -0.00000000000E+00 -0.00000000000E+00 -0.33297653025E+03  0.33297653025E+03  0.00000000000E+00 0. -1.
         25    2    1    2    0    0  0.12439103928E+02 -0.84719567588E+01 -0.78405806190E+02  0.14830410940E+03  0.12498053074E+03 0.  0.
          5    1    3    3  501    0 -0.57188649130E+01  0.27140395220E+01 -0.11000180124E+03  0.11018383594E+03  0.10000000000E+00 0. -1.
         -5    1    3    3    0  501  0.18157968841E+02 -0.11185996281E+02  0.31595995052E+02  0.38120273459E+02  0.10000000000E+00 0. -1.
         21    1    1    2  504  502 -0.12439103928E+02  0.84719567588E+01 -0.21936373649E+03  0.21987940842E+03  0.00000000000E+00 0. -1.
<mgrwt>
<rscale>  1 0.12588343E+03</rscale>
<asrwt>0</asrwt>
<pdfrwt beam="1">  1       21 0.54164598E-02 0.12588343E+03</pdfrwt>
<pdfrwt beam="2">  1       21 0.51227157E-01 0.12588343E+03</pdfrwt>
<totfact> 0.85362756E+05</totfact>
</mgrwt>
</event>
<event>
 6    1  0.4259848E-002  0.1291589E+03  0.7546771E-02  0.1228709E+00
         21   -1    0    0  504  502  0.00000000000E+00  0.00000000000E+00  0.17940893147E+03  0.17940893147E+03  0.00000000000E+00 0. -1.
         21   -1    0    0  502  503 -0.00000000000E+00 -0.00000000000E+00 -0.89970849934E+02  0.89970849934E+02  0.00000000000E+00 0. -1.
         25    2    1    2    0    0  0.31001735210E+02  0.97700738139E+01  0.15164409482E+03  0.19919324411E+03  0.12500182030E+03 0.  0.
          5    1    3    3  501    0  0.36832756122E+02  0.62561835754E+02  0.64362445329E+02  0.97021490326E+02  0.10000000000E+00 0. -1.
         -5    1    3    3    0  501 -0.58310209116E+01 -0.52791761941E+02  0.87281649493E+02  0.10217175379E+03  0.10000000000E+00 0. -1.
         21    1    1    2  504  503 -0.31001735210E+02 -0.97700738139E+01 -0.62206013284E+02  0.70186537292E+02  0.00000000000E+00 0. -1.
<mgrwt>
<rscale>  1 0.12915888E+03</rscale>
<asrwt>0</asrwt>
<pdfrwt beam="1">  1       21 0.27601374E-01 0.12915888E+03</pdfrwt>
<pdfrwt beam="2">  1       21 0.13841669E-01 0.12915888E+03</pdfrwt>
<totfact> 0.57233678E+05</totfact>
</mgrwt>
</event>
<event>
 6    1  0.4259848E-002  0.1259935E+03  0.7546771E-02  0.1233525E+00
         21   -1    0    0  504  502  0.00000000000E+00  0.00000000000E+00  0.90822809549E+02  0.90822809549E+02  0.00000000000E+00 0.  1.
         21   -1    0    0  502  503 -0.00000000000E+00 -0.00000000000E+00 -0.20869115881E+03  0.20869115881E+03  0.00000000000E+00 0. -1.
         25    2    1    2    0    0 -0.12049814015E+02 -0.10301018795E+02  0.46561433033E+02  0.13432177026E+03  0.12499224742E+03 0.  0.
          5    1    3    3  501    0 -0.68018629719E+02 -0.11993130590E+02  0.17572532978E+02  0.71268317543E+02  0.10000000000E+00 0.  1.
         -5    1    3    3    0  501  0.55968815704E+02  0.16921117948E+01  0.28988900055E+02  0.63053452721E+02  0.10000000000E+00 0.  1.
         21    1    1    2  504  503  0.12049814015E+02  0.10301018795E+02 -0.16442978230E+03  0.16519219810E+03  0.00000000000E+00 0. -1.
<mgrwt>
<rscale>  1 0.12599354E+03</rscale>
<asrwt>0</asrwt>
<pdfrwt beam="1">  1       21 0.13972740E-01 0.12599354E+03</pdfrwt>
<pdfrwt beam="2">  1       21 0.32106332E-01 0.12599354E+03</pdfrwt>
<totfact> 0.42063330E+05</totfact>
</mgrwt>
</event>
<event>
 6    1  0.4259848E-002  0.1558040E+03  0.7546771E-02  0.1193517E+00
         21   -1    0    0  503  502  0.00000000000E+00  0.00000000000E+00  0.32825433013E+02  0.32825433013E+02  0.00000000000E+00 0.  1.
         21   -1    0    0  504  503 -0.00000000000E+00 -0.00000000000E+00 -0.73499488763E+03  0.73499488763E+03  0.00000000000E+00 0.  1.
         25    2    1    2    0    0 -0.84539202678E+02  0.38773806179E+02 -0.18280021048E+03  0.24018910797E+03  0.12499842319E+03 0.  0.
          5    1    3    3  501    0 -0.28881778362E+02 -0.40309685512E+02 -0.26066553425E+02  0.56022344425E+02  0.10000000000E+00 0. -1.
         -5    1    3    3    0  501 -0.55657424316E+02  0.79083491691E+02 -0.15673365706E+03  0.18416676354E+03  0.10000000000E+00 0. -1.
         21    1    1    2  504  502  0.84539202678E+02 -0.38773806179E+02 -0.51936924413E+03  0.52763121267E+03  0.00000000000E+00 0.  1.
<mgrwt>
<rscale>  1 0.15580401E+03</rscale>
<asrwt>0</asrwt>
<pdfrwt beam="1">  1       21 0.50500663E-02 0.15580401E+03</pdfrwt>
<pdfrwt beam="2">  1       21 0.11307614E+00 0.15580401E+03</pdfrwt>
<totfact> 0.16379866E+05</totfact>
</mgrwt>
</event>
<event>
 6    1  0.4259848E-002  0.1275345E+03  0.7546771E-02  0.1231161E+00
         21   -1    0    0  503  502  0.00000000000E+00  0.00000000000E+00  0.59367380302E+02  0.59367380302E+02  0.00000000000E+00 0.  1.
         21   -1    0    0  504  503 -0.00000000000E+00 -0.00000000000E+00 -0.99359236381E+02  0.99359236381E+02  0.00000000000E+00 0.  1.
         25    2    1    2    0    0 -0.23093831667E+02 -0.10104673902E+02 -0.26973485690E+02  0.13035572556E+03  0.12501846567E+03 0.  0.
          5    1    3    3  501    0  0.20830826230E+02 -0.23941403199E+02 -0.63887031142E+02  0.71334962373E+02  0.10000000000E+00 0. -1.
         -5    1    3    3    0  501 -0.43924657897E+02  0.13836729297E+02  0.36913545452E+02  0.59020763184E+02  0.10000000000E+00 0. -1.
         21    1    1    2  504  502  0.23093831667E+02  0.10104673902E+02 -0.13018370388E+02  0.28370891126E+02  0.00000000000E+00 0. -1.
<mgrwt>
<rscale>  1 0.12753449E+03</rscale>
<asrwt>0</asrwt>
<pdfrwt beam="1">  1       21 0.91334432E-02 0.12753449E+03</pdfrwt>
<pdfrwt beam="2">  1       21 0.15286036E-01 0.12753449E+03</pdfrwt>
<totfact> 0.35638507E+06</totfact>
</mgrwt>
</event>
<event>
 6    1  0.4259848E-002  0.1351785E+03  0.7546771E-02  0.1219968E+00
         21   -1    0    0  503  502  0.00000000000E+00  0.00000000000E+00  0.46510493789E+02  0.46510493789E+02  0.00000000000E+00 0. -1.
         21   -1    0    0  504  503 -0.00000000000E+00 -0.00000000000E+00 -0.68434313219E+03  0.68434313219E+03  0.00000000000E+00 0. -1.
         25    2    1    2    0    0 -0.37559649808E+02  0.35195207851E+02 -0.55301754116E+02  0.14605309495E+03  0.12499517025E+03 0.  0.
          5    1    3    3  501    0 -0.13351432955E+01 -0.27285200405E+02  0.25716004444E+02  0.37517831139E+02  0.10000000000E+00 0. -1.
         -5    1    3    3    0  501 -0.36224506513E+02  0.62480408256E+02 -0.81017758560E+02  0.10853526381E+03  0.10000000000E+00 0. -1.
         21    1    1    2  504  502  0.37559649808E+02 -0.35195207851E+02 -0.58253088428E+03  0.58480053103E+03  0.00000000000E+00 0. -1.
<mgrwt>
<rscale>  1 0.13517848E+03</rscale>
<asrwt>0</asrwt>
<pdfrwt beam="1">  1       21 0.71554610E-02 0.13517848E+03</pdfrwt>
<pdfrwt beam="2">  1       21 0.10528355E+00 0.13517848E+03</pdfrwt>
<totfact> 0.10827738E+05</totfact>
</mgrwt>
</event>
<event>
 6    1  0.4259848E-002  0.1261286E+03  0.7546771E-02  0.1233316E+00
         21   -1    0    0  503  502  0.00000000000E+00  0.00000000000E+00  0.73924112507E+02  0.73924112507E+02  0.00000000000E+00 0.  1.
         21   -1    0    0  504  503 -0.00000000000E+00 -0.00000000000E+00 -0.13294658565E+03  0.13294658565E+03  0.00000000000E+00 0.  1.
         25    2    1    2    0    0  0.16521048714E+02 -0.31711319084E+01  0.18558639986E+02  0.12748663022E+03  0.12500166654E+03 0.  0.
          5    1    3    3  501    0 -0.34559415343E+02  0.42180123586E+02  0.22671130793E+02  0.59055111430E+02  0.10000000000E+00 0.  1.
         -5    1    3    3    0  501  0.51080464057E+02 -0.45351255494E+02 -0.41124908072E+01  0.68431518789E+02  0.10000000000E+00 0.  1.
         21    1    1    2  504  502 -0.16521048714E+02  0.31711319084E+01 -0.77581113127E+02  0.79384067937E+02  0.00000000000E+00 0.  1.
<mgrwt>
<rscale>  1 0.12612858E+03</rscale>
<asrwt>0</asrwt>
<pdfrwt beam="1">  1       21 0.11372940E-01 0.12612858E+03</pdfrwt>
<pdfrwt beam="2">  1       21 0.20453321E-01 0.12612858E+03</pdfrwt>
<totfact> 0.14252791E+06</totfact>
</mgrwt>
</event>
<event>
 6    1  0.4259848E-002  0.2023925E+03  0.7546771E-02  0.1147736E+00
         21   -1    0    0  504  502  0.00000000000E+00  0.00000000000E+00  0.21484875688E+03  0.21484875688E+03  0.00000000000E+00 0. -1.
         21   -1    0    0  502  503 -0.00000000000E+00 -0.00000000000E+00 -0.17097549751E+03  0.17097549751E+03  0.00000000000E+00 0.  1.
         25    2    1    2    0    0  0.25815887103E+02  0.15706855455E+03 -0.39384628581E+02  0.20618888270E+03  0.12500286206E+03 0.  0.
          5    1    3    3  501    0 -0.13894037723E+02  0.14455363815E+03 -0.63028989432E+02  0.15830812391E+03  0.10000000000E+00 0.  1.
         -5    1    3    3    0  501  0.39709924826E+02  0.12514916405E+02  0.23644360851E+02  0.47880758791E+02  0.10000000000E+00 0.  1.
         21    1    1    2  504  503 -0.25815887103E+02 -0.15706855455E+03  0.83257887954E+02  0.17963537169E+03  0.00000000000E+00 0. -1.
<mgrwt>
<rscale>  1 0.20239246E+03</rscale>
<asrwt>0</asrwt>
<pdfrwt beam="1">  1       21 0.33053655E-01 0.20239246E+03</pdfrwt>
<pdfrwt beam="2">  1       21 0.26303923E-01 0.20239246E+03</pdfrwt>
<totfact> 0.12065288E+05</totfact>
</mgrwt>
</event>
<event>
 6    1  0.4259848E-002  0.1263652E+03  0.7546771E-02  0.1232951E+00
         21   -1    0    0  504  502  0.00000000000E+00  0.00000000000E+00  0.11880783068E+02  0.11880783068E+02  0.00000000000E+00 0. -1.
         21   -1    0    0  502  503 -0.00000000000E+00 -0.00000000000E+00 -0.45958218988E+03  0.45958218988E+03  0.00000000000E+00 0. -1.
         25    2    1    2    0    0 -0.14483280425E+02 -0.11610136438E+02 -0.35241804864E+03  0.37438836749E+03  0.12499443198E+03 0.  0.
          5    1    3    3  501    0 -0.43543794229E+02 -0.34863260727E+02 -0.69898189626E+02  0.89427489495E+02  0.10000000000E+00 0.  1.
         -5    1    3    3    0  501  0.29060513804E+02  0.23253124289E+02 -0.28251985901E+03  0.28496087800E+03  0.10000000000E+00 0.  1.
         21    1    1    2  504  503  0.14483280425E+02  0.11610136438E+02 -0.95283358170E+02  0.97074605455E+02  0.00000000000E+00 0.  1.
<mgrwt>
<rscale>  1 0.12636522E+03</rscale>
<asrwt>0</asrwt>
<pdfrwt beam="1">  1       21 0.18278127E-02 0.12636522E+03</pdfrwt>
<pdfrwt beam="2">  1       21 0.70704957E-01 0.12636522E+03</pdfrwt>
<totfact> 0.25676373E+06</totfact>
</mgrwt>
</event>
<event>
 6    1  0.4259848E-002  0.1335698E+03  0.7546771E-02  0.1222253E+00
         21   -1    0    0  504  502  0.00000000000E+00  0.00000000000E+00  0.25802781584E+03  0.25802781584E+03  0.00000000000E+00 0.  1.
         21   -1    0    0  502  503 -0.00000000000E+00 -0.00000000000E+00 -0.64086729291E+03  0.64086729291E+03  0.00000000000E+00 0.  1.
         25    2    1    2    0    0 -0.47036580756E+02 -0.15908759317E+01  0.23979421194E+03  0.27448524214E+03  0.12500365298E+03 0.  0.
          5    1    3    3  501    0 -0.18244060902E+02 -0.39664623338E+02  0.21743182364E+03  0.22177181073E+03  0.10000000000E+00 0.  1.
         -5    1    3    3    0  501 -0.28792519854E+02  0.38073747407E+02  0.22362388303E+02  0.52713431417E+02  0.10000000000E+00 0.  1.
         21    1    1    2  504  503  0.47036580756E+02  0.15908759317E+01 -0.62263368902E+03  0.62440986660E+03  0.00000000000E+00 0.  1.
<mgrwt>
<rscale>  1 0.13356977E+03</rscale>
<asrwt>0</asrwt>
<pdfrwt beam="1">  1       21 0.39696588E-01 0.13356977E+03</pdfrwt>
<pdfrwt beam="2">  1       21 0.98594966E-01 0.13356977E+03</pdfrwt>
<totfact> 0.54680818E+03</totfact>
</mgrwt>
</event>
<event>
 6    1  0.4259848E-002  0.1270862E+03  0.7546771E-02  0.1231845E+00
         21   -1    0    0  504  502  0.00000000000E+00  0.00000000000E+00  0.10259326171E+03  0.10259326171E+03  0.00000000000E+00 0.  1.
         21   -1    0    0  502  503 -0.00000000000E+00 -0.00000000000E+00 -0.12181542750E+03  0.12181542750E+03  0.00000000000E+00 0.  1.
         25    2    1    2    0    0 -0.19967481020E+02 -0.11388498414E+02  0.60993135622E+02  0.14096473930E+03  0.12498998736E+03 0.  0.
          5    1    3    3  501    0  0.12020244667E+02  0.14647422788E+02  0.89074932917E+02  0.91068034734E+02  0.10000000000E+00 0.  1.
         -5    1    3    3    0  501 -0.31987725686E+02 -0.26035921202E+02 -0.28081797295E+02  0.49896704568E+02  0.10000000000E+00 0.  1.
         21    1    1    2  504  503  0.19967481020E+02  0.11388498414E+02 -0.80215301420E+02  0.83443949908E+02  0.00000000000E+00 0.  1.
<mgrwt>
<rscale>  1 0.12708617E+03</rscale>
<asrwt>0</asrwt>
<pdfrwt beam="1">  1       21 0.15783579E-01 0.12708617E+03</pdfrwt>
<pdfrwt beam="2">  1       21 0.18740835E-01 0.12708617E+03</pdfrwt>
<totfact> 0.93278389E+05</totfact>
</mgrwt>
</event>
<event>
 6    1  0.4259848E-002  0.1393036E+03  0.7546771E-02  0.1214269E+00
         21   -1    0    0  503  502  0.00000000000E+00  0.00000000000E+00  0.61003794980E+03  0.61003794980E+03  0.00000000000E+00 0. -1.
         21   -1    0    0  504  503 -0.00000000000E+00 -0.00000000000E+00 -0.74616697434E+02  0.74616697434E+02  0.00000000000E+00 0.  1.
         25    2    1    2    0    0  0.33120231906E+02 -0.51795079467E+02  0.58768085579E+03  0.60396545237E+03  0.12500319749E+03 0.  0.
          5    1    3    3  501    0 -0.39463695977E+02  0.35850038942E+01  0.28719492379E+03  0.28991579778E+03  0.10000000000E+00 0. -1.
         -5    1    3    3    0  501  0.72583927883E+02 -0.55380083361E+02  0.30048593200E+03  0.31404965459E+03  0.10000000000E+00 0. -1.
         21    1    1    2  504  502 -0.33120231906E+02  0.51795079467E+02 -0.52259603418E+02  0.80689194865E+02  0.00000000000E+00 0.  1.
<mgrwt>
<rscale>  1 0.13930355E+03</rscale>
<asrwt>0</asrwt>
<pdfrwt beam="1">  1       21 0.93851989E-01 0.13930355E+03</pdfrwt>
<pdfrwt beam="2">  1       21 0.11479492E-01 0.13930355E+03</pdfrwt>
<totfact> 0.62125455E+04</totfact>
</mgrwt>
</event>
<event>
 6    1  0.4259848E-002  0.1758403E+03  0.7546771E-02  0.1171891E+00
         21   -1    0    0  504  502  0.00000000000E+00  0.00000000000E+00  0.13835383095E+04  0.13835383095E+04  0.00000000000E+00 0.  1.
         21   -1    0    0  502  503 -0.00000000000E+00 -0.00000000000E+00 -0.14713015487E+03  0.14713015487E+03  0.00000000000E+00 0.  1.
         25    2    1    2    0    0 -0.75112560659E+02 -0.98269210073E+02  0.13507972131E+04  0.13621941603E+04  0.12498433944E+03 0.  0.
          5    1    3    3  501    0 -0.10661327359E+03 -0.82581541490E+02  0.90274699498E+03  0.91276407031E+03  0.10000000000E+00 0. -1.
         -5    1    3    3    0  501  0.31500712933E+02 -0.15687668583E+02  0.44805021813E+03  0.44943009004E+03  0.10000000000E+00 0. -1.
         21    1    1    2  504  503  0.75112560659E+02  0.98269210073E+02 -0.11438905849E+03  0.16847430403E+03  0.00000000000E+00 0.  1.
<mgrwt>
<rscale>  1 0.17584032E+03</rscale>
<asrwt>0</asrwt>
<pdfrwt beam="1">  1       21 0.21285204E+00 0.17584032E+03</pdfrwt>
<pdfrwt beam="2">  1       21 0.22635409E-01 0.17584032E+03</pdfrwt>
<totfact> 0.20755659E+03</totfact>
</mgrwt>
</event>
<event>
 6    1  0.4259848E-002  0.1260604E+03  0.7546771E-02  0.1233421E+00
         21   -1    0    0  504  502  0.00000000000E+00  0.00000000000E+00  0.86958531494E+02  0.86958531494E+02  0.00000000000E+00 0.  1.
         21   -1    0    0  502  503 -0.00000000000E+00 -0.00000000000E+00 -0.65756805190E+02  0.65756805190E+02  0.00000000000E+00 0.  1.
         25    2    1    2    0    0  0.14055518700E+02 -0.81979766720E+01  0.35597043288E+02  0.13099001555E+03  0.12500588088E+03 0.  0.
          5    1    3    3  501    0 -0.48910935037E+02  0.24583210945E+02  0.10811660402E+02  0.55798887330E+02  0.10000000000E+00 0. -1.
         -5    1    3    3    0  501  0.62966453738E+02 -0.32781187617E+02  0.24785382885E+02  0.75191128218E+02  0.10000000000E+00 0. -1.
         21    1    1    2  504  503 -0.14055518700E+02  0.81979766720E+01 -0.14395316983E+02  0.21725321137E+02  0.00000000000E+00 0. -1.
<mgrwt>
<rscale>  1 0.12606044E+03</rscale>
<asrwt>0</asrwt>
<pdfrwt beam="1">  1       21 0.13378236E-01 0.12606044E+03</pdfrwt>
<pdfrwt beam="2">  1       21 0.10116432E-01 0.12606044E+03</pdfrwt>
<totfact> 0.37862008E+06</totfact>
</mgrwt>
</event>
<event>
 6    1  0.4259848E-002  0.1260891E+03  0.7546771E-02  0.1233377E+00
         21   -1    0    0  503  502  0.00000000000E+00  0.00000000000E+00  0.79157295538E+02  0.79157295538E+02  0.00000000000E+00 0. -1.
         21   -1    0    0  504  503 -0.00000000000E+00 -0.00000000000E+00 -0.65067386078E+02  0.65067386078E+02  0.00000000000E+00 0. -1.
         25    2    1    2    0    0  0.16256371872E+02 -0.10985630128E+01  0.18264196196E+02  0.12740501643E+03  0.12503191945E+03 0.  0.
          5    1    3    3  501    0  0.15705095996E+02 -0.86191784672E+01 -0.52895420487E+02  0.55846895940E+02  0.10000000000E+00 0. -1.
         -5    1    3    3    0  501  0.55127587548E+00  0.75206154544E+01  0.71159616683E+02  0.71558120492E+02  0.10000000000E+00 0. -1.
         21    1    1    2  504  502 -0.16256371872E+02  0.10985630128E+01 -0.41742867360E+01  0.16819665183E+02  0.00000000000E+00 0. -1.
<mgrwt>
<rscale>  1 0.12608908E+03</rscale>
<asrwt>0</asrwt>
<pdfrwt beam="1">  1       21 0.12178045E-01 0.12608908E+03</pdfrwt>
<pdfrwt beam="2">  1       21 0.10010367E-01 0.12608908E+03</pdfrwt>
<totfact> 0.45585515E+06</totfact>
</mgrwt>
</event>
<event>
 6    1  0.4259848E-002  0.1299339E+03  0.7546771E-02  0.1227554E+00
         21   -1    0    0  504  502  0.00000000000E+00  0.00000000000E+00  0.61510002934E+02  0.61510002934E+02  0.00000000000E+00 0.  1.
         21   -1    0    0  502  503 -0.00000000000E+00 -0.00000000000E+00 -0.13556332734E+03  0.13556332734E+03  0.00000000000E+00 0.  1.
         25    2    1    2    0    0  0.32099889976E+02 -0.14881135282E+02 -0.18549401877E+02  0.13125132377E+03  0.12502391195E+03 0.  0.
          5    1    3    3  501    0  0.16072799001E+02 -0.53579737719E+02 -0.52968442139E+02  0.77037581895E+02  0.10000000000E+00 0.  1.
         -5    1    3    3    0  501  0.16027090976E+02  0.38698602436E+02  0.34419040262E+02  0.54213741876E+02  0.10000000000E+00 0.  1.
         21    1    1    2  504  503 -0.32099889976E+02  0.14881135282E+02 -0.55503922533E+02  0.65822006505E+02  0.00000000000E+00 0.  1.
<mgrwt>
<rscale>  1 0.12993394E+03</rscale>
<asrwt>0</asrwt>
<pdfrwt beam="1">  1       21 0.94630774E-02 0.12993394E+03</pdfrwt>
<pdfrwt beam="2">  1       21 0.20855896E-01 0.12993394E+03</pdfrwt>
<totfact> 0.18988843E+06</totfact>
</mgrwt>
</event>
<event>
 6    1  0.4259848E-002  0.1624465E+03  0.7546771E-02  0.1185962E+00
         21   -1    0    0  504  502  0.00000000000E+00  0.00000000000E+00  0.11784627111E+03  0.11784627111E+03  0.00000000000E+00 0. -1.
         21   -1    0    0  502  503 -0.00000000000E+00 -0.00000000000E+00 -0.15158164331E+03  0.15158164331E+03  0.00000000000E+00 0. -1.
         25    2    1    2    0    0 -0.66269814607E+02  0.79836269595E+02 -0.32488204471E+02  0.16566340363E+03  0.12499344624E+03 0.  0.
          5    1    3    3  501    0  0.24026725278E+02  0.17455881416E+02 -0.46344143547E+02  0.55043446155E+02  0.10000000000E+00 0.  1.
         -5    1    3    3    0  501 -0.90296539885E+02  0.62380388179E+02  0.13855939076E+02  0.11061995748E+03  0.10000000000E+00 0.  1.
         21    1    1    2  504  503  0.66269814607E+02 -0.79836269595E+02 -0.12471677232E+01  0.10376451078E+03  0.00000000000E+00 0. -1.
<mgrwt>
<rscale>  1 0.16244654E+03</rscale>
<asrwt>0</asrwt>
<pdfrwt beam="1">  1       21 0.18130196E-01 0.16244654E+03</pdfrwt>
<pdfrwt beam="2">  1       21 0.23320253E-01 0.16244654E+03</pdfrwt>
<totfact> 0.48145943E+05</totfact>
</mgrwt>
</event>
<event>
 6    1  0.4259848E-002  0.1260798E+03  0.7546771E-02  0.1233391E+00
         21   -1    0    0  504  502  0.00000000000E+00  0.00000000000E+00  0.10659579273E+02  0.10659579273E+02  0.00000000000E+00 0. -1.
         21   -1    0    0  502  503 -0.00000000000E+00 -0.00000000000E+00 -0.57701586482E+03  0.57701586482E+03  0.00000000000E+00 0. -1.
         25    2    1    2    0    0 -0.58239600236E+01  0.15366748808E+02 -0.37526164055E+03  0.39587549929E+03  0.12500422630E+03 0.  0.
          5    1    3    3  501    0 -0.30153393198E+02 -0.16288539825E+02 -0.34255277379E+03  0.34426291767E+03  0.10000000000E+00 0. -1.
         -5    1    3    3    0  501  0.24329433175E+02  0.31655288632E+02 -0.32708866760E+02  0.51612581622E+02  0.10000000000E+00 0. -1.
         21    1    1    2  504  503  0.58239600236E+01 -0.15366748808E+02 -0.19109464500E+03  0.19179994480E+03  0.00000000000E+00 0. -1.
<mgrwt>
<rscale>  1 0.12607978E+03</rscale>
<asrwt>0</asrwt>
<pdfrwt beam="1">  1       21 0.16399353E-02 0.12607978E+03</pdfrwt>
<pdfrwt beam="2">  1       21 0.88771669E-01 0.12607978E+03</pdfrwt>
<totfact> 0.18397974E+06</totfact>
</mgrwt>
</event>
<event>
 6    1  0.4259848E-002  0.1259771E+03  0.7546771E-02  0.1233550E+00
         21   -1    0    0  503  502  0.00000000000E+00  0.00000000000E+00  0.41570042755E+02  0.41570042755E+02  0.00000000000E+00 0. -1.
         21   -1    0    0  504  503 -0.00000000000E+00 -0.00000000000E+00 -0.12680526473E+03  0.12680526473E+03  0.00000000000E+00 0. -1.
         25    2    1    2    0    0 -0.15624469907E+02 -0.13700779806E+01 -0.62170000355E+02  0.14048255535E+03  0.12499695292E+03 0.  0.
          5    1    3    3  501    0  0.42497076679E+02 -0.20794531053E+02 -0.63498718378E+02  0.79186559993E+02  0.10000000000E+00 0.  1.
         -5    1    3    3    0  501 -0.58121546586E+02  0.19424453072E+02  0.13287180229E+01  0.61295995353E+02  0.10000000000E+00 0.  1.
         21    1    1    2  504  502  0.15624469907E+02  0.13700779806E+01 -0.23065221623E+02  0.27892752142E+02  0.00000000000E+00 0. -1.
<mgrwt>
<rscale>  1 0.12597714E+03</rscale>
<asrwt>0</asrwt>
<pdfrwt beam="1">  1       21 0.63953912E-02 0.12597714E+03</pdfrwt>
<pdfrwt beam="2">  1       21 0.19508502E-01 0.12597714E+03</pdfrwt>
<totfact> 0.42126809E+06</totfact>
</mgrwt>
</event>
<event>
 6    1  0.4259848E-002  0.1606435E+03  0.7546771E-02  0.1187972E+00
         21   -1    0    0  503  502  0.00000000000E+00  0.00000000000E+00  0.12044792737E+04  0.12044792737E+04  0.00000000000E+00 0. -1.
         21   -1    0    0  504  503 -0.00000000000E+00 -0.00000000000E+00 -0.29218552567E+03  0.29218552567E+03  0.00000000000E+00 0. -1.
         25    2    1    2    0    0 -0.31452738773E+02 -0.95876720607E+02  0.11902076634E+04  0.12009998459E+04  0.12499890951E+03 0.  0.
          5    1    3    3  501    0 -0.49227751763E+02 -0.11335476423E+03  0.11136429407E+04  0.11204790419E+04  0.10000000000E+00 0. -1.
         -5    1    3    3    0  501  0.17775012990E+02  0.17478043624E+02  0.76564722765E+02  0.80520803944E+02  0.10000000000E+00 0. -1.
         21    1    1    2  504  502  0.31452738773E+02  0.95876720607E+02 -0.27791391542E+03  0.29566495348E+03  0.00000000000E+00 0. -1.
<mgrwt>
<rscale>  1 0.16064354E+03</rscale>
<asrwt>0</asrwt>
<pdfrwt beam="1">  1       21 0.18530450E+00 0.16064354E+03</pdfrwt>
<pdfrwt beam="2">  1       21 0.44951620E-01 0.16064354E+03</pdfrwt>
<totfact> 0.82755034E+02</totfact>
</mgrwt>
</event>
<event>
 6    1  0.4259848E-002  0.1259730E+03  0.7546771E-02  0.1233556E+00
         21   -1    0    0  504  502  0.00000000000E+00  0.00000000000E+00  0.11400412490E+03  0.11400412490E+03  0.00000000000E+00 0.  1.
         21   -1    0    0  502  503 -0.00000000000E+00 -0.00000000000E+00 -0.10286599352E+03  0.10286599352E+03  0.00000000000E+00 0.  1.
         25    2    1    2    0    0 -0.14500001016E+02  0.57684235543E+01  0.78030107865E+02  0.14818197347E+03  0.12500269912E+03 0.  0.
          5    1    3    3  501    0 -0.46938545538E+02 -0.13574553359E+02 -0.12203628189E+02  0.50363023113E+02  0.10000000000E+00 0.  1.
         -5    1    3    3    0  501  0.32438544523E+02  0.19342976913E+02  0.90233736054E+02  0.97818950357E+02  0.10000000000E+00 0.  1.
         21    1    1    2  504  503  0.14500001016E+02 -0.57684235543E+01 -0.66891976485E+02  0.68688144959E+02  0.00000000000E+00 0.  1.
<mgrwt>
<rscale>  1 0.12597301E+03</rscale>
<asrwt>0</asrwt>
<pdfrwt beam="1">  1       21 0.17539096E-01 0.12597301E+03</pdfrwt>
<pdfrwt beam="2">  1       21 0.15825537E-01 0.12597301E+03</pdfrwt>
<totfact> 0.10479580E+06</totfact>
</mgrwt>
</event>
<event>
 6    1  0.4259848E-002  0.1263903E+03  0.7546771E-02  0.1232912E+00
         21   -1    0    0  504  502  0.00000000000E+00  0.00000000000E+00  0.10148068093E+03  0.10148068093E+03  0.00000000000E+00 0. -1.
         21   -1    0    0  502  503 -0.00000000000E+00 -0.00000000000E+00 -0.52584034540E+03  0.52584034540E+03  0.00000000000E+00 0.  1.
         25    2    1    2    0    0 -0.17720407341E+02  0.60085128434E+01  0.61877234167E+02  0.14072423569E+03  0.12499761333E+03 0.  0.
          5    1    3    3  501    0  0.48649084008E+02 -0.17931739799E+02  0.43842738348E+02  0.67900488752E+02  0.10000000000E+00 0. -1.
         -5    1    3    3    0  501 -0.66369491349E+02  0.23940252642E+02  0.18034495819E+02  0.72823746937E+02  0.10000000000E+00 0. -1.
         21    1    1    2  504  503  0.17720407341E+02 -0.60085128434E+01 -0.48623689864E+03  0.48659679064E+03  0.00000000000E+00 0.  1.
<mgrwt>
<rscale>  1 0.12639034E+03</rscale>
<asrwt>0</asrwt>
<pdfrwt beam="1">  1       21 0.15612413E-01 0.12639034E+03</pdfrwt>
<pdfrwt beam="2">  1       21 0.80898514E-01 0.12639034E+03</pdfrwt>
<totfact> 0.50605420E+04</totfact>
</mgrwt>
</event>
<event>
 6    1  0.4259848E-002  0.1264390E+03  0.7546771E-02  0.1232837E+00
         21   -1    0    0  503  502  0.00000000000E+00  0.00000000000E+00  0.44018506860E+03  0.44018506860E+03  0.00000000000E+00 0. -1.
         21   -1    0    0  504  503 -0.00000000000E+00 -0.00000000000E+00 -0.66336678437E+02  0.66336678437E+02  0.00000000000E+00 0.  1.
         25    2    1    2    0    0 -0.80584910665E+01  0.17246584827E+02  0.42948951410E+03  0.44771427610E+03  0.12499778531E+03 0.  0.
          5    1    3    3  501    0  0.41649420725E+02  0.39066856943E+01  0.35331471163E+03  0.35578256266E+03  0.10000000000E+00 0.  1.
         -5    1    3    3    0  501 -0.49707911792E+02  0.13339899133E+02  0.76174802469E+02  0.91931713433E+02  0.10000000000E+00 0.  1.
         21    1    1    2  504  502  0.80584910665E+01 -0.17246584827E+02 -0.55641123933E+02  0.58807470945E+02  0.00000000000E+00 0.  1.
<mgrwt>
<rscale>  1 0.12643904E+03</rscale>
<asrwt>0</asrwt>
<pdfrwt beam="1">  1       21 0.67720778E-01 0.12643904E+03</pdfrwt>
<pdfrwt beam="2">  1       21 0.10205643E-01 0.12643904E+03</pdfrwt>
<totfact> 0.15938479E+05</totfact>
</mgrwt>
</event>
<event>
 6    1  0.4259848E-002  0.1262086E+03  0.7546771E-02  0.1233192E+00
         21   -1    0    0  504  502  0.00000000000E+00  0.00000000000E+00  0.14250663543E+03  0.14250663543E+03  0.00000000000E+00 0. -1.
         21   -1    0    0  502  503 -0.00000000000E+00 -0.00000000000E+00 -0.40030149282E+02  0.40030149282E+02  0.00000000000E+00 0. -1.
         25    2    1    2    0    0 -0.16392986476E+01  0.17359275202E+02  0.10591765059E+03  0.16476395859E+03  0.12499832642E+03 0.  0.
          5    1    3    3  501    0  0.11527432117E+02  0.45094314351E+02  0.12166134474E+03  0.13026078336E+03  0.10000000000E+00 0. -1.
         -5    1    3    3    0  501 -0.13166730765E+02 -0.27735039149E+02 -0.15743694149E+02  0.34503175232E+02  0.10000000000E+00 0. -1.
         21    1    1    2  504  503  0.16392986476E+01 -0.17359275202E+02 -0.34411644422E+01  0.17772826120E+02  0.00000000000E+00 0. -1.
<mgrwt>
<rscale>  1 0.12620861E+03</rscale>
<asrwt>0</asrwt>
<pdfrwt beam="1">  1       21 0.21924097E-01 0.12620861E+03</pdfrwt>
<pdfrwt beam="2">  1       21 0.61584846E-02 0.12620861E+03</pdfrwt>
<totfact> 0.36180273E+06</totfact>
</mgrwt>
</event>
<event>
 6    1  0.4259848E-002  0.1260681E+03  0.7546771E-02  0.1233409E+00
         21   -1    0    0  504  502  0.00000000000E+00  0.00000000000E+00  0.22503442831E+03  0.22503442831E+03  0.00000000000E+00 0.  1.
         21   -1    0    0  502  503 -0.00000000000E+00 -0.00000000000E+00 -0.59034281322E+02  0.59034281322E+02  0.00000000000E+00 0.  1.
         25    2    1    2    0    0 -0.16379723547E+02 -0.39009121418E+00  0.20562249997E+03  0.24119239484E+03  0.12499884528E+03 0.  0.
          5    1    3    3  501    0  0.42752618141E+02 -0.35678189475E+02  0.73611567392E+02  0.92300554798E+02  0.10000000000E+00 0.  1.
         -5    1    3    3    0  501 -0.59132341688E+02  0.35288098261E+02  0.13201093258E+03  0.14889184005E+03  0.10000000000E+00 0.  1.
         21    1    1    2  504  503  0.16379723547E+02  0.39009121418E+00 -0.39622352977E+02  0.42876314791E+02  0.00000000000E+00 0.  1.
<mgrwt>
<rscale>  1 0.12606807E+03</rscale>
<asrwt>0</asrwt>
<pdfrwt beam="1">  1       21 0.34620681E-01 0.12606807E+03</pdfrwt>
<pdfrwt beam="2">  1       21 0.90821973E-02 0.12606807E+03</pdfrwt>
<totfact> 0.77602151E+05</totfact>
</mgrwt>
</event>
<event>
 6    1  0.4259848E-002  0.1416255E+03  0.7546771E-02  0.1211158E+00
         21   -1    0    0  504  502  0.00000000000E+00  0.00000000000E+00  0.96837245173E+02  0.96837245173E+02  0.00000000000E+00 0.  1.
         21   -1    0    0  502  503 -0.00000000000E+00 -0.00000000000E+00 -0.12328396007E+03  0.12328396007E+03  0.00000000000E+00 0.  1.
         25    2    1    2    0    0  0.59062313592E+02  0.30736898179E+02  0.13839891288E+02  0.14230009991E+03  0.12499864818E+03 0.  0.
          5    1    3    3  501    0  0.79180582516E+01  0.36012887862E+02 -0.48861531651E+02  0.61213421845E+02  0.10000000000E+00 0.  1.
         -5    1    3    3    0  501  0.51144255341E+02 -0.52759896824E+01  0.62701422939E+02  0.81086678068E+02  0.10000000000E+00 0.  1.
         21    1    1    2  504  503 -0.59062313592E+02 -0.30736898179E+02 -0.40286606182E+02  0.77821105326E+02  0.00000000000E+00 0.  1.
<mgrwt>
<rscale>  1 0.14162548E+03</rscale>
<asrwt>0</asrwt>
<pdfrwt beam="1">  1       21 0.14898038E-01 0.14162548E+03</pdfrwt>
<pdfrwt beam="2">  1       21 0.18966763E-01 0.14162548E+03</pdfrwt>
<totfact> 0.10135626E+06</totfact>
</mgrwt>
</event>
<event>
 6    1  0.4259848E-002  0.1271329E+03  0.7546771E-02  0.1231773E+00
         21   -1    0    0  504  502  0.00000000000E+00  0.00000000000E+00  0.78622143121E+02  0.78622143121E+02  0.00000000000E+00 0. -1.
         21   -1    0    0  502  503 -0.00000000000E+00 -0.00000000000E+00 -0.71900891764E+02  0.71900891764E+02  0.00000000000E+00 0. -1.
         25    2    1    2    0    0  0.22277478717E+02  0.62174599180E+01  0.77732367230E+01  0.12737029123E+03  0.12501129954E+03 0.  0.
          5    1    3    3  501    0  0.10101653953E+02 -0.21092513450E+02  0.61547869528E+02  0.65841383488E+02  0.10000000000E+00 0.  1.
         -5    1    3    3    0  501  0.12175824764E+02  0.27309973368E+02 -0.53774632805E+02  0.61528907737E+02  0.10000000000E+00 0.  1.
         21    1    1    2  504  503 -0.22277478717E+02 -0.62174599180E+01 -0.10519853657E+01  0.23152743661E+02  0.00000000000E+00 0. -1.
<mgrwt>
<rscale>  1 0.12713287E+03</rscale>
<asrwt>0</asrwt>
<pdfrwt beam="1">  1       21 0.12095714E-01 0.12713287E+03</pdfrwt>
<pdfrwt beam="2">  1       21 0.11061676E-01 0.12713287E+03</pdfrwt>
<totfact> 0.38736869E+06</totfact>
</mgrwt>
</event>
<event>
 6    1  0.4259848E-002  0.1260882E+03  0.7546771E-02  0.1233378E+00
         21   -1    0    0  504  502  0.00000000000E+00  0.00000000000E+00  0.28944067927E+03  0.28944067927E+03  0.00000000000E+00 0. -1.
         21   -1    0    0  502  503 -0.00000000000E+00 -0.00000000000E+00 -0.34343501962E+02  0.34343501962E+02  0.00000000000E+00 0. -1.
         25    2    1    2    0    0  0.11878770563E+02  0.11532776954E+02  0.27219712517E+03  0.29998253525E+03  0.12499654543E+03 0.  0.
          5    1    3    3  501    0 -0.56541566931E+02  0.10900097022E+00  0.13022108540E+03  0.14196655154E+03  0.10000000000E+00 0. -1.
         -5    1    3    3    0  501  0.68420337494E+02  0.11423775984E+02  0.14197603977E+03  0.15801598372E+03  0.10000000000E+00 0. -1.
         21    1    1    2  504  503 -0.11878770563E+02 -0.11532776954E+02 -0.17099947865E+02  0.23801645980E+02  0.00000000000E+00 0. -1.
<mgrwt>
<rscale>  1 0.12608825E+03</rscale>
<asrwt>0</asrwt>
<pdfrwt beam="1">  1       21 0.44529333E-01 0.12608825E+03</pdfrwt>
<pdfrwt beam="2">  1       21 0.52836159E-02 0.12608825E+03</pdfrwt>
<totfact> 0.11859609E+06</totfact>
</mgrwt>
</event>
<event>
 6    1  0.4259848E-002  0.1311340E+03  0.7546771E-02  0.1225783E+00
         21   -1    0    0  504  502  0.00000000000E+00  0.00000000000E+00  0.52371329514E+03  0.52371329514E+03  0.00000000000E+00 0. -1.
         21   -1    0    0  502  503 -0.00000000000E+00 -0.00000000000E+00 -0.32571683795E+02  0.32571683795E+02  0.00000000000E+00 0. -1.
         25    2    1    2    0    0  0.32813935147E+02  0.22218729600E+02  0.49894985061E+03  0.51589444929E+03  0.12500281234E+03 0.  0.
          5    1    3    3  501    0  0.75548980259E+02  0.25695979979E+02  0.22773529501E+03  0.24131163751E+03  0.10000000000E+00 0.  1.
         -5    1    3    3    0  501 -0.42735045112E+02 -0.34772503783E+01  0.27121455561E+03  0.27458281178E+03  0.10000000000E+00 0.  1.
         21    1    1    2  504  503 -0.32813935147E+02 -0.22218729600E+02 -0.78082392683E+01  0.40390529650E+02  0.00000000000E+00 0. -1.
<mgrwt>
<rscale>  1 0.13113401E+03</rscale>
<asrwt>0</asrwt>
<pdfrwt beam="1">  1       21 0.80571270E-01 0.13113401E+03</pdfrwt>
<pdfrwt beam="2">  1       21 0.50110286E-02 0.13113401E+03</pdfrwt>
<totfact> 0.36741707E+05</totfact>
</mgrwt>
</event>
<event>
 6    1  0.4259848E-002  0.1270387E+03  0.7546771E-02  0.1231917E+00
         21   -1    0    0  503  502  0.00000000000E+00  0.00000000000E+00  0.48598147343E+02  0.48598147343E+02  0.00000000000E+00 0.  1.
         21   -1    0    0  504  503 -0.00000000000E+00 -0.00000000000E+00 -0.12952873020E+03  0.12952873020E+03  0.00000000000E+00 0.  1.
         25    2    1    2    0    0 -0.24990793702E+01  0.22353030029E+02 -0.43166754515E+02  0.13417224093E+03  0.12503166875E+03 0.  0.
          5    1    3    3  501    0 -0.57866609055E+02  0.22518443617E+02 -0.48157692951E+02  0.78579883793E+02  0.10000000000E+00 0. -1.
         -5    1    3    3    0  501  0.55367529685E+02 -0.16541358818E+00  0.49909384357E+01  0.55592357133E+02  0.10000000000E+00 0. -1.
         21    1    1    2  504  502  0.24990793702E+01 -0.22353030029E+02 -0.37763828340E+02  0.43954636616E+02  0.00000000000E+00 0.  1.
<mgrwt>
<rscale>  1 0.12703866E+03</rscale>
<asrwt>0</asrwt>
<pdfrwt beam="1">  1       21 0.74766381E-02 0.12703866E+03</pdfrwt>
<pdfrwt beam="2">  1       21 0.19927497E-01 0.12703866E+03</pdfrwt>
<totfact> 0.31029100E+06</totfact>
</mgrwt>
</event>
<event>
 6    1  0.4259848E-002  0.1259466E+03  0.7546771E-02  0.1233597E+00
         21   -1    0    0  503  502  0.00000000000E+00  0.00000000000E+00  0.38970757298E+02  0.38970757298E+02  0.00000000000E+00 0. -1.
         21   -1    0    0  504  503 -0.00000000000E+00 -0.00000000000E+00 -0.13059816680E+03  0.13059816680E+03  0.00000000000E+00 0. -1.
         25    2    1    2    0    0  0.96690501420E+01  0.11870911649E+02 -0.73436702980E+02  0.14579265699E+03  0.12501256102E+03 0.  0.
          5    1    3    3  501    0  0.35248547311E+02 -0.46070963370E+02 -0.54727183646E+02  0.79750036885E+02  0.10000000000E+00 0.  1.
         -5    1    3    3    0  501 -0.25579497169E+02  0.57941875019E+02 -0.18709519334E+02  0.66042620101E+02  0.10000000000E+00 0.  1.
         21    1    1    2  504  502 -0.96690501420E+01 -0.11870911649E+02 -0.18190706523E+02  0.23776267113E+02  0.00000000000E+00 0. -1.
<mgrwt>
<rscale>  1 0.12594661E+03</rscale>
<asrwt>0</asrwt>
<pdfrwt beam="1">  1       21 0.59955011E-02 0.12594661E+03</pdfrwt>
<pdfrwt beam="2">  1       21 0.20092026E-01 0.12594661E+03</pdfrwt>
<totfact> 0.44517578E+06</totfact>
</mgrwt>
</event>
<event>
 6    1  0.4259848E-002  0.1406691E+03  0.7546771E-02  0.1212431E+00
         21   -1    0    0  504  502  0.00000000000E+00  0.00000000000E+00  0.16086442535E+03  0.16086442535E+03  0.00000000000E+00 0. -1.
         21   -1    0    0  502  503 -0.00000000000E+00 -0.00000000000E+00 -0.31089063665E+03  0.31089063665E+03  0.00000000000E+00 0. -1.
         25    2    1    2    0    0 -0.49957416801E+02 -0.40829864199E+02  0.12565855850E+03  0.18862097079E+03  0.12499990397E+03 0.  0.
          5    1    3    3  501    0  0.12259949974E+02  0.31203422921E+02  0.34268291322E+01  0.33700343221E+02  0.10000000000E+00 0. -1.
         -5    1    3    3    0  501 -0.62217366774E+02 -0.72033287120E+02  0.12223172937E+03  0.15492062757E+03  0.10000000000E+00 0. -1.
         21    1    1    2  504  503  0.49957416801E+02  0.40829864199E+02 -0.27568476981E+03  0.28313409121E+03  0.00000000000E+00 0. -1.
<mgrwt>
<rscale>  1 0.14066911E+03</rscale>
<asrwt>0</asrwt>
<pdfrwt beam="1">  1       21 0.24748374E-01 0.14066911E+03</pdfrwt>
<pdfrwt beam="2">  1       21 0.47829328E-01 0.14066911E+03</pdfrwt>
<totfact> 0.66049649E+04</totfact>
</mgrwt>
</event>
<event>
 6    1  0.4259848E-002  0.1421383E+03  0.7546771E-02  0.1210480E+00
         21   -1    0    0  504  502  0.00000000000E+00  0.00000000000E+00  0.19457610168E+04  0.19457610168E+04  0.00000000000E+00 0.  1.
         21   -1    0    0  502  503 -0.00000000000E+00 -0.00000000000E+00 -0.58325785053E+01  0.58325785053E+01  0.00000000000E+00 0.  1.
         25    2    1    2    0    0 -0.60719847886E+02 -0.29871197042E+02  0.14629687482E+04  0.14698574286E+04  0.12499645535E+03 0.  0.
          5    1    3    3  501    0  0.26128002985E+02 -0.41712503606E+02  0.73185787382E+03  0.73351111987E+03  0.10000000000E+00 0.  1.
         -5    1    3    3    0  501 -0.86847850870E+02  0.11841306564E+02  0.73111087437E+03  0.73634630872E+03  0.10000000000E+00 0.  1.
         21    1    1    2  504  503  0.60719847886E+02  0.29871197042E+02  0.47695969010E+03  0.48173616671E+03  0.00000000000E+00 0.  1.
<mgrwt>
<rscale>  1 0.14213832E+03</rscale>
<asrwt>0</asrwt>
<pdfrwt beam="1">  1       21 0.29934733E+00 0.14213832E+03</pdfrwt>
<pdfrwt beam="2">  1       21 0.89732132E-03 0.14213832E+03</pdfrwt>
<totfact> 0.16008800E+05</totfact>
</mgrwt>
</event>
<event>
 6    1  0.4259848E-002  0.1293290E+03  0.7546771E-02  0.1228455E+00
         21   -1    0    0  504  502  0.00000000000E+00  0.00000000000E+00  0.12503699754E+03  0.12503699754E+03  0.00000000000E+00 0.  1.
         21   -1    0    0  502  503 -0.00000000000E+00 -0.00000000000E+00 -0.52802293743E+02  0.52802293743E+02  0.00000000000E+00 0.  1.
         25    2    1    2    0    0  0.32719417690E+02  0.54531123357E+01  0.56749781081E+02  0.14123219416E+03  0.12500279312E+03 0.  0.
          5    1    3    3  501    0 -0.26992459717E+02 -0.19485175258E+02  0.67849575729E+02  0.75576715085E+02  0.10000000000E+00 0.  1.
         -5    1    3    3    0  501  0.59711877406E+02  0.24938287593E+02 -0.11099794648E+02  0.65655479076E+02  0.10000000000E+00 0.  1.
         21    1    1    2  504  503 -0.32719417690E+02 -0.54531123357E+01  0.15484922714E+02  0.36607097121E+02  0.00000000000E+00 0.  1.
<mgrwt>
<rscale>  1 0.12932902E+03</rscale>
<asrwt>0</asrwt>
<pdfrwt beam="1">  1       21 0.19236461E-01 0.12932902E+03</pdfrwt>
<pdfrwt beam="2">  1       21 0.81234298E-02 0.12932902E+03</pdfrwt>
<totfact> 0.28729887E+06</totfact>
</mgrwt>
</event>
<event>
 6    1  0.4259848E-002  0.1260416E+03  0.7546771E-02  0.1233450E+00
         21   -1    0    0  504  502  0.00000000000E+00  0.00000000000E+00  0.85091505542E+02  0.85091505542E+02  0.00000000000E+00 0. -1.
         21   -1    0    0  502  503 -0.00000000000E+00 -0.00000000000E+00 -0.88423521597E+02  0.88423521597E+02  0.00000000000E+00 0. -1.
         25    2    1    2    0    0 -0.80008408264E+01  0.14047697375E+02  0.35923483161E+02  0.13106098759E+03  0.12500053828E+03 0.  0.
          5    1    3    3  501    0  0.55166382606E+01 -0.51790252162E+02 -0.50783367057E+01  0.52330326011E+02  0.10000000000E+00 0.  1.
         -5    1    3    3    0  501 -0.13517479087E+02  0.65837949537E+02  0.41001819867E+02  0.78730661578E+02  0.10000000000E+00 0.  1.
         21    1    1    2  504  503  0.80008408264E+01 -0.14047697375E+02 -0.39255499215E+02  0.42454039550E+02  0.00000000000E+00 0. -1.
<mgrwt>
<rscale>  1 0.12604160E+03</rscale>
<asrwt>0</asrwt>
<pdfrwt beam="1">  1       21 0.13091001E-01 0.12604160E+03</pdfrwt>
<pdfrwt beam="2">  1       21 0.13603619E-01 0.12604160E+03</pdfrwt>
<totfact> 0.23313575E+06</totfact>
</mgrwt>
</event>
<event>
 6    1  0.4259848E-002  0.1312624E+03  0.7546771E-02  0.1225594E+00
         21   -1    0    0  503  502  0.00000000000E+00  0.00000000000E+00  0.26298706442E+02  0.26298706442E+02  0.00000000000E+00 0.  1.
         21   -1    0    0  504  503 -0.00000000000E+00 -0.00000000000E+00 -0.84742054337E+03  0.84742054337E+03  0.00000000000E+00 0.  1.
         25    2    1    2    0    0  0.31647404840E+02  0.24566656483E+02 -0.14184147771E+03  0.19325846089E+03  0.12499899624E+03 0.  0.
          5    1    3    3  501    0  0.22153966932E+02  0.16056906324E+02 -0.16476854364E+03  0.16702486481E+03  0.10000000000E+00 0.  1.
         -5    1    3    3    0  501  0.94934379082E+01  0.85097501594E+01  0.22927065930E+02  0.26233596079E+02  0.10000000000E+00 0.  1.
         21    1    1    2  504  502 -0.31647404840E+02 -0.24566656483E+02 -0.67928035922E+03  0.68046078893E+03  0.00000000000E+00 0.  1.
<mgrwt>
<rscale>  1 0.13126244E+03</rscale>
<asrwt>0</asrwt>
<pdfrwt beam="1">  1       21 0.40459543E-02 0.13126244E+03</pdfrwt>
<pdfrwt beam="2">  1       21 0.13037241E+00 0.13126244E+03</pdfrwt>
<totfact> 0.16894563E+05</totfact>
</mgrwt>
</event>
<event>
 6    1  0.4259848E-002  0.1281566E+03  0.7546771E-02  0.1230217E+00
         21   -1    0    0  503  502  0.00000000000E+00  0.00000000000E+00  0.21034116290E+03  0.21034116290E+03  0.00000000000E+00 0.  1.
         21   -1    0    0  504  503 -0.00000000000E+00 -0.00000000000E+00 -0.30605655373E+02  0.30605655373E+02  0.00000000000E+00 0.  1.
         25    2    1    2    0    0 -0.12975594077E+02 -0.25118510254E+02  0.16542443028E+03  0.20925908356E+03  0.12499926528E+03 0.  0.
          5    1    3    3  501    0 -0.40484796642E+02  0.26090923850E+02  0.13565003846E+03  0.14394685825E+03  0.10000000000E+00 0. -1.
         -5    1    3    3    0  501  0.27509202565E+02 -0.51209434103E+02  0.29774391821E+02  0.65312225312E+02  0.10000000000E+00 0. -1.
         21    1    1    2  504  502  0.12975594077E+02  0.25118510254E+02  0.14311077248E+02  0.31687734710E+02  0.00000000000E+00 0.  1.
<mgrwt>
<rscale>  1 0.12815663E+03</rscale>
<asrwt>0</asrwt>
<pdfrwt beam="1">  1       21 0.32360178E-01 0.12815663E+03</pdfrwt>
<pdfrwt beam="2">  1       21 0.47085625E-02 0.12815663E+03</pdfrwt>
<totfact> 0.27128955E+06</totfact>
</mgrwt>
</event>
<event>
 6    1  0.4259848E-002  0.1264829E+03  0.7546771E-02  0.1232770E+00
         21   -1    0    0  503  502  0.00000000000E+00  0.00000000000E+00  0.52949657434E+03  0.52949657434E+03  0.00000000000E+00 0. -1.
         21   -1    0    0  504  503 -0.00000000000E+00 -0.00000000000E+00 -0.10866519186E+02  0.10866519186E+02  0.00000000000E+00 0. -1.
         25    2    1    2    0    0 -0.47788713674E+01 -0.18710328714E+02  0.48823468903E+03  0.50435209113E+03  0.12500002495E+03 0.  0.
          5    1    3    3  501    0  0.37747036159E+01  0.52427872281E+02  0.25494161152E+03  0.26030398665E+03  0.10000000000E+00 0. -1.
         -5    1    3    3    0  501 -0.85535749833E+01 -0.71138200995E+02  0.23329307751E+03  0.24404810448E+03  0.10000000000E+00 0. -1.
         21    1    1    2  504  502  0.47788713674E+01  0.18710328714E+02  0.30395366121E+02  0.36011002399E+02  0.00000000000E+00 0.  1.
<mgrwt>
<rscale>  1 0.12648289E+03</rscale>
<asrwt>0</asrwt>
<pdfrwt beam="1">  1       21 0.81460991E-01 0.12648289E+03</pdfrwt>
<pdfrwt beam="2">  1       21 0.16717726E-02 0.12648289E+03</pdfrwt>
<totfact> 0.21664467E+06</totfact>
</mgrwt>
</event>
<event>
 6    1  0.4259848E-002  0.1343719E+03  0.7546771E-02  0.1221109E+00
         21   -1    0    0  504  502  0.00000000000E+00  0.00000000000E+00  0.66697090079E+03  0.66697090079E+03  0.00000000000E+00 0. -1.
         21   -1    0    0  502  503 -0.00000000000E+00 -0.00000000000E+00 -0.15041471325E+02  0.15041471325E+02  0.00000000000E+00 0.  1.
         25    2    1    2    0    0 -0.49007090475E+02 -0.55307108951E+01  0.57604567525E+03  0.59151028466E+03  0.12499405268E+03 0.  0.
          5    1    3    3  501    0 -0.15654676340E+02 -0.44435732953E+02  0.80129218667E+02  0.92953240603E+02  0.10000000000E+00 0.  1.
         -5    1    3    3    0  501 -0.33352414135E+02  0.38905022057E+02  0.49591645658E+03  0.49855704406E+03  0.10000000000E+00 0.  1.
         21    1    1    2  504  503  0.49007090475E+02  0.55307108951E+01  0.75883754219E+02  0.90502087458E+02  0.00000000000E+00 0.  1.
<mgrwt>
<rscale>  1 0.13437186E+03</rscale>
<asrwt>0</asrwt>
<pdfrwt beam="1">  1       21 0.10261088E+00 0.13437186E+03</pdfrwt>
<pdfrwt beam="2">  1       21 0.23140730E-02 0.13437186E+03</pdfrwt>
<totfact> 0.75487953E+05</totfact>
</mgrwt>
</event>
<event>
 6    1  0.4259848E-002  0.1276322E+03  0.7546771E-02  0.1231012E+00
         21   -1    0    0  504  502  0.00000000000E+00  0.00000000000E+00  0.58094217440E+02  0.58094217440E+02  0.00000000000E+00 0.  1.
         21   -1    0    0  502  503 -0.00000000000E+00 -0.00000000000E+00 -0.14630354473E+03  0.14630354473E+03  0.00000000000E+00 0.  1.
         25    2    1    2    0    0  0.14585873111E+02 -0.21246654828E+02 -0.17112685722E+02  0.12877434993E+03  0.12500328457E+03 0.  0.
          5    1    3    3  501    0  0.26343103039E+02 -0.58305675601E+02  0.27462692769E+02  0.69625572738E+02  0.10000000000E+00 0.  1.
         -5    1    3    3    0  501 -0.11757229928E+02  0.37059020773E+02 -0.44575378491E+02  0.59148777197E+02  0.10000000000E+00 0.  1.
         21    1    1    2  504  503 -0.14585873111E+02  0.21246654828E+02 -0.71096641571E+02  0.75623412237E+02  0.00000000000E+00 0.  1.
<mgrwt>
<rscale>  1 0.12763224E+03</rscale>
<asrwt>0</asrwt>
<pdfrwt beam="1">  1       21 0.89375719E-02 0.12763224E+03</pdfrwt>
<pdfrwt beam="2">  1       21 0.22508238E-01 0.12763224E+03</pdfrwt>
<totfact> 0.18187539E+06</totfact>
</mgrwt>
</event>
<event>
 6    1  0.4259848E-002  0.1285008E+03  0.7546771E-02  0.1229697E+00
         21   -1    0    0  504  502  0.00000000000E+00  0.00000000000E+00  0.16522312129E+02  0.16522312129E+02  0.00000000000E+00 0.  1.
         21   -1    0    0  502  503 -0.00000000000E+00 -0.00000000000E+00 -0.38072885327E+03  0.38072885327E+03  0.00000000000E+00 0.  1.
         25    2    1    2    0    0 -0.29989887870E+02 -0.13498880415E+01 -0.28943331144E+03  0.31667665670E+03  0.12494497811E+03 0.  0.
          5    1    3    3  501    0 -0.24360656555E+02 -0.60867684367E+02 -0.11622444745E+03  0.13344080626E+03  0.10000000000E+00 0.  1.
         -5    1    3    3    0  501 -0.56292313148E+01  0.59517796326E+02 -0.17320886399E+03  0.18323585045E+03  0.10000000000E+00 0.  1.
         21    1    1    2  504  503  0.29989887870E+02  0.13498880415E+01 -0.74773229696E+02  0.80574508695E+02  0.00000000000E+00 0.  1.
<mgrwt>
<rscale>  1 0.12850083E+03</rscale>
<asrwt>0</asrwt>
<pdfrwt beam="1">  1       21 0.25418941E-02 0.12850083E+03</pdfrwt>
<pdfrwt beam="2">  1       21 0.58573670E-01 0.12850083E+03</pdfrwt>
<totfact> 0.22575487E+06</totfact>
</mgrwt>
</event>
<event>
 6    1  0.4259848E-002  0.1274228E+03  0.7546771E-02  0.1231331E+00
         21   -1    0    0  503  502  0.00000000000E+00  0.00000000000E+00  0.21895924181E+03  0.21895924181E+03  0.00000000000E+00 0. -1.
         21   -1    0    0  504  503 -0.00000000000E+00 -0.00000000000E+00 -0.20915624674E+03  0.20915624674E+03  0.00000000000E+00 0.  1.
         25    2    1    2    0    0 -0.22324842761E+02  0.10677871969E+02  0.19954913017E+03  0.23676238213E+03  0.12499661869E+03 0.  0.
          5    1    3    3  501    0 -0.40272348154E+02  0.12891466909E+02  0.21110719697E+03  0.21530051221E+03  0.10000000000E+00 0. -1.
         -5    1    3    3    0  501  0.17947505392E+02 -0.22135949401E+01 -0.11558066796E+02  0.21461869919E+02  0.10000000000E+00 0. -1.
         21    1    1    2  504  502  0.22324842761E+02 -0.10677871969E+02 -0.18974613510E+03  0.19135310643E+03  0.00000000000E+00 0.  1.
<mgrwt>
<rscale>  1 0.12742280E+03</rscale>
<asrwt>0</asrwt>
<pdfrwt beam="1">  1       21 0.33686037E-01 0.12742280E+03</pdfrwt>
<pdfrwt beam="2">  1       21 0.32177884E-01 0.12742280E+03</pdfrwt>
<totfact> 0.81059202E+04</totfact>
</mgrwt>
</event>
<event>
 6    1  0.4259848E-002  0.1549351E+03  0.7546771E-02  0.1194537E+00
         21   -1    0    0  503  502  0.00000000000E+00  0.00000000000E+00  0.19604473149E+03  0.19604473149E+03  0.00000000000E+00 0. -1.
         21   -1    0    0  504  503 -0.00000000000E+00 -0.00000000000E+00 -0.78246707361E+02  0.78246707361E+02  0.00000000000E+00 0. -1.
         25    2    1    2    0    0  0.89890784413E+02  0.17335692032E+02  0.60721605517E+02  0.16640910989E+03  0.12499599649E+03 0.  0.
          5    1    3    3  501    0  0.74187160111E+02 -0.17996957705E+02 -0.18241075524E+02  0.78488037613E+02  0.10000000000E+00 0.  1.
         -5    1    3    3    0  501  0.15703624301E+02  0.35332649737E+02  0.78962681041E+02  0.87921072279E+02  0.10000000000E+00 0.  1.
         21    1    1    2  504  502 -0.89890784413E+02 -0.17335692032E+02  0.57076418617E+02  0.10788232896E+03  0.00000000000E+00 0. -1.
<mgrwt>
<rscale>  1 0.15493508E+03</rscale>
<asrwt>0</asrwt>
<pdfrwt beam="1">  1       21 0.30160728E-01 0.15493508E+03</pdfrwt>
<pdfrwt beam="2">  1       21 0.12037955E-01 0.15493508E+03</pdfrwt>
<totfact> 0.61829825E+05</totfact>
</mgrwt>
</event>
<event>
 6    1  0.4259848E-002  0.1262310E+03  0.7546771E-02  0.1233158E+00
         21   -1    0    0  503  502  0.00000000000E+00  0.00000000000E+00  0.38901612926E+02  0.38901612926E+02  0.00000000000E+00 0. -1.
         21   -1    0    0  504  503 -0.00000000000E+00 -0.00000000000E+00 -0.13308597288E+03  0.13308597288E+03  0.00000000000E+00 0. -1.
         25    2    1    2    0    0  0.15426364185E+02  0.83987897829E+01 -0.80412684643E+02  0.14966783172E+03  0.12500299043E+03 0.  0.
          5    1    3    3  501    0 -0.23687217835E+02  0.57778484826E+02 -0.31665865879E+02  0.70015531558E+02  0.10000000000E+00 0.  1.
         -5    1    3    3    0  501  0.39113582020E+02 -0.49379695043E+02 -0.48746818764E+02  0.79652300159E+02  0.10000000000E+00 0.  1.
         21    1    1    2  504  502 -0.15426364185E+02 -0.83987897829E+01 -0.13771675315E+02  0.22319754093E+02  0.00000000000E+00 0. -1.
<mgrwt>
<rscale>  1 0.12623098E+03</rscale>
<asrwt>0</asrwt>
<pdfrwt beam="1">  1       21 0.59848635E-02 0.12623098E+03</pdfrwt>
<pdfrwt beam="2">  1       21 0.20474765E-01 0.12623098E+03</pdfrwt>
<totfact> 0.43124305E+06</totfact>
</mgrwt>
</event>
<event>
 6    1  0.4259848E-002  0.1323235E+03  0.7546771E-02  0.1224048E+00
         21   -1    0    0  504  502  0.00000000000E+00  0.00000000000E+00  0.14614002676E+02  0.14614002676E+02  0.00000000000E+00 0. -1.
         21   -1    0    0  502  503 -0.00000000000E+00 -0.00000000000E+00 -0.12300789692E+04  0.12300789692E+04  0.00000000000E+00 0. -1.
         25    2    1    2    0    0  0.33599343306E+02  0.27515304159E+02 -0.29632193298E+03  0.32452455036E+03  0.12499395181E+03 0.  0.
          5    1    3    3  501    0  0.60328884497E+01 -0.35836792129E+02 -0.21394730428E+03  0.21701182092E+03  0.10000000000E+00 0.  1.
         -5    1    3    3    0  501  0.27566454857E+02  0.63352096289E+02 -0.82374628697E+02  0.10751272943E+03  0.10000000000E+00 0.  1.
         21    1    1    2  504  503 -0.33599343306E+02 -0.27515304159E+02 -0.91914303358E+03  0.92016842155E+03  0.00000000000E+00 0. -1.
<mgrwt>
<rscale>  1 0.13232345E+03</rscale>
<asrwt>0</asrwt>
<pdfrwt beam="1">  1       21 0.22483083E-02 0.13232345E+03</pdfrwt>
<pdfrwt beam="2">  1       21 0.18924290E+00 0.13232345E+03</pdfrwt>
<totfact> 0.16550263E+05</totfact>
</mgrwt>
</event>
<event>
 6    1  0.4259848E-002  0.1260406E+03  0.7546771E-02  0.1233452E+00
         21   -1    0    0  504  502  0.00000000000E+00  0.00000000000E+00  0.25988534999E+02  0.25988534999E+02  0.00000000000E+00 0. -1.
         21   -1    0    0  502  503 -0.00000000000E+00 -0.00000000000E+00 -0.19963285557E+03  0.19963285557E+03  0.00000000000E+00 0. -1.
         25    2    1    2    0    0  0.15544995385E+02 -0.30848233898E-02 -0.13892155999E+03  0.18757777096E+03  0.12507826924E+03 0.  0.
          5    1    3    3  501    0 -0.53842204979E+02 -0.86856349789E+01 -0.75749612649E+02  0.93340436620E+02  0.10000000000E+00 0.  1.
         -5    1    3    3    0  501  0.69387200364E+02  0.86825501556E+01 -0.63171947345E+02  0.94237334337E+02  0.10000000000E+00 0.  1.
         21    1    1    2  504  503 -0.15544995385E+02  0.30848233898E-02 -0.34722760578E+02  0.38043619612E+02  0.00000000000E+00 0. -1.
<mgrwt>
<rscale>  1 0.12604055E+03</rscale>
<asrwt>0</asrwt>
<pdfrwt beam="1">  1       21 0.39982361E-02 0.12604055E+03</pdfrwt>
<pdfrwt beam="2">  1       21 0.30712747E-01 0.12604055E+03</pdfrwt>
<totfact> 0.39405673E+06</totfact>
</mgrwt>
</event>
<event>
 6    1  0.4259848E-002  0.1397831E+03  0.7546771E-02  0.1213621E+00
         21   -1    0    0  503  502  0.00000000000E+00  0.00000000000E+00  0.28063244267E+03  0.28063244267E+03  0.00000000000E+00 0. -1.
         21   -1    0    0  504  503 -0.00000000000E+00 -0.00000000000E+00 -0.11587215936E+03  0.11587215936E+03  0.00000000000E+00 0. -1.
         25    2    1    2    0    0  0.54060102530E+02  0.31500966212E+02  0.25257754482E+03  0.28867753226E+03  0.12499798369E+03 0.  0.
          5    1    3    3  501    0 -0.11826590866E+02  0.26852410088E+01 -0.10442258522E+02  0.16004047420E+02  0.10000000000E+00 0.  1.
         -5    1    3    3    0  501  0.65886693395E+02  0.28815725203E+02  0.26301980334E+03  0.27267348484E+03  0.10000000000E+00 0.  1.
         21    1    1    2  504  502 -0.54060102530E+02 -0.31500966212E+02 -0.87817261507E+02  0.10782706978E+03  0.00000000000E+00 0. -1.
<mgrwt>
<rscale>  1 0.13978305E+03</rscale>
<asrwt>0</asrwt>
<pdfrwt beam="1">  1       21 0.43174222E-01 0.13978305E+03</pdfrwt>
<pdfrwt beam="2">  1       21 0.17826486E-01 0.13978305E+03</pdfrwt>
<totfact> 0.14996520E+05</totfact>
</mgrwt>
</event>
<event>
 6    1  0.4259848E-002  0.1286631E+03  0.7546771E-02  0.1229453E+00
         21   -1    0    0  504  502  0.00000000000E+00  0.00000000000E+00  0.38408978372E+03  0.38408978372E+03  0.00000000000E+00 0. -1.
         21   -1    0    0  502  503 -0.00000000000E+00 -0.00000000000E+00 -0.77769259651E+02  0.77769259651E+02  0.00000000000E+00 0.  1.
         25    2    1    2    0    0  0.21884149768E+02  0.21300931482E+02  0.36973071836E+03  0.39147794908E+03  0.12498613850E+03 0.  0.
          5    1    3    3  501    0  0.54000131596E+02 -0.23360282471E+02  0.28088405425E+03  0.28698010199E+03  0.10000000000E+00 0.  1.
         -5    1    3    3    0  501 -0.32115981828E+02  0.44661213952E+02  0.88846664119E+02  0.10449784709E+03  0.10000000000E+00 0.  1.
         21    1    1    2  504  503 -0.21884149768E+02 -0.21300931482E+02 -0.63410194297E+02  0.70381094293E+02  0.00000000000E+00 0.  1.
<mgrwt>
<rscale>  1 0.12866305E+03</rscale>
<asrwt>0</asrwt>
<pdfrwt beam="1">  1       21 0.59090735E-01 0.12866305E+03</pdfrwt>
<pdfrwt beam="2">  1       21 0.11964502E-01 0.12866305E+03</pdfrwt>
<totfact> 0.16120017E+05</totfact>
</mgrwt>
</event>
<event>
 6    1  0.4259848E-002  0.1262746E+03  0.7546771E-02  0.1233091E+00
         21   -1    0    0  503  502  0.00000000000E+00  0.00000000000E+00  0.10658173655E+04  0.10658173655E+04  0.00000000000E+00 0. -1.
         21   -1    0    0  504  503 -0.00000000000E+00 -0.00000000000E+00 -0.36636401314E+02  0.36636401314E+02  0.00000000000E+00 0.  1.
         25    2    1    2    0    0 -0.14040191249E+02 -0.11085181749E+02  0.10596360722E+04  0.10671334919E+04  0.12500110280E+03 0.  0.
          5    1    3    3  501    0  0.30119656117E+02  0.23020035547E+02  0.82817273468E+03  0.82903992919E+03  0.10000000000E+00 0.  1.
         -5    1    3    3    0  501 -0.44159847366E+02 -0.34105217296E+02  0.23146333752E+03  0.23809356267E+03  0.10000000000E+00 0.  1.
         21    1    1    2  504  502  0.14040191249E+02  0.11085181749E+02 -0.30455107972E+02  0.35320275003E+02  0.00000000000E+00 0.  1.
<mgrwt>
<rscale>  1 0.12627464E+03</rscale>
<asrwt>0</asrwt>
<pdfrwt beam="1">  1       21 0.16397188E+00 0.12627464E+03</pdfrwt>
<pdfrwt beam="2">  1       21 0.56363702E-02 0.12627464E+03</pdfrwt>
<totfact> 0.53868030E+04</totfact>
</mgrwt>
</event>
<event>
 6    1  0.4259848E-002  0.1459530E+03  0.7546771E-02  0.1205536E+00
         21   -1    0    0  504  502  0.00000000000E+00  0.00000000000E+00  0.35759789439E+02  0.35759789439E+02  0.00000000000E+00 0.  1.
         21   -1    0    0  502  503 -0.00000000000E+00 -0.00000000000E+00 -0.61527210566E+03  0.61527210566E+03  0.00000000000E+00 0.  1.
         25    2    1    2    0    0 -0.22119052411E+02 -0.72029467607E+02 -0.55175488046E+03  0.57073263033E+03  0.12499916207E+03 0.  0.
          5    1    3    3  501    0  0.30012270059E+02  0.11728689141E+02 -0.50815357321E+02  0.60170665965E+02  0.10000000000E+00 0.  1.
         -5    1    3    3    0  501 -0.52131322470E+02 -0.83758156748E+02 -0.50093952314E+03  0.51056196436E+03  0.10000000000E+00 0.  1.
         21    1    1    2  504  503  0.22119052411E+02  0.72029467607E+02 -0.27757435757E+02  0.80299264773E+02  0.00000000000E+00 0.  1.
<mgrwt>
<rscale>  1 0.14595303E+03</rscale>
<asrwt>0</asrwt>
<pdfrwt beam="1">  1       21 0.55015063E-02 0.14595303E+03</pdfrwt>
<pdfrwt beam="2">  1       21 0.94657244E-01 0.14595303E+03</pdfrwt>
<totfact> 0.21669812E+05</totfact>
</mgrwt>
</event>
<event>
 6    1  0.4259848E-002  0.1271727E+03  0.7546771E-02  0.1231712E+00
         21   -1    0    0  503  502  0.00000000000E+00  0.00000000000E+00  0.13202407006E+03  0.13202407006E+03  0.00000000000E+00 0. -1.
         21   -1    0    0  504  503 -0.00000000000E+00 -0.00000000000E+00 -0.58017095687E+02  0.58017095687E+02  0.00000000000E+00 0. -1.
         25    2    1    2    0    0  0.59513763353E+01  0.22616618499E+02  0.94902034815E+02  0.15867982229E+03  0.12500383785E+03 0.  0.
          5    1    3    3  501    0  0.15133825574E+02  0.23236855543E+02 -0.25651430255E+02  0.37775521256E+02  0.10000000000E+00 0.  1.
         -5    1    3    3    0  501 -0.91824492385E+01 -0.62023704408E+00  0.12055346507E+03  0.12090430103E+03  0.10000000000E+00 0.  1.
         21    1    1    2  504  502 -0.59513763353E+01 -0.22616618499E+02 -0.20895060442E+02  0.31361343458E+02  0.00000000000E+00 0. -1.
<mgrwt>
<rscale>  1 0.12717268E+03</rscale>
<asrwt>0</asrwt>
<pdfrwt beam="1">  1       21 0.20311395E-01 0.12717268E+03</pdfrwt>
<pdfrwt beam="2">  1       21 0.89257070E-02 0.12717268E+03</pdfrwt>
<totfact> 0.22064505E+06</totfact>
</mgrwt>
</event>
<event>
 6    1  0.4259848E-002  0.1480957E+03  0.7546771E-02  0.1202833E+00
         21   -1    0    0  503  502  0.00000000000E+00  0.00000000000E+00  0.99970219413E+03  0.99970219413E+03  0.00000000000E+00 0.  1.
         21   -1    0    0  504  503 -0.00000000000E+00 -0.00000000000E+00 -0.17494229826E+02  0.17494229826E+02  0.00000000000E+00 0.  1.
         25    2    1    2    0    0  0.14030510194E+02  0.78169675310E+02  0.85126640114E+03  0.86405254938E+03  0.12499987615E+03 0.  0.
          5    1    3    3  501    0 -0.49919981448E+02  0.31313392243E+02  0.52479371841E+03  0.52809183857E+03  0.10000000000E+00 0. -1.
         -5    1    3    3    0  501  0.63950491642E+02  0.46856283067E+02  0.32647268273E+03  0.33596071082E+03  0.10000000000E+00 0. -1.
         21    1    1    2  504  502 -0.14030510194E+02 -0.78169675310E+02  0.13094156317E+03  0.15314387458E+03  0.00000000000E+00 0.  1.
<mgrwt>
<rscale>  1 0.14809565E+03</rscale>
<asrwt>0</asrwt>
<pdfrwt beam="1">  1       21 0.15380029E+00 0.14809565E+03</pdfrwt>
<pdfrwt beam="2">  1       21 0.26914208E-02 0.14809565E+03</pdfrwt>
<totfact> 0.21555992E+05</totfact>
</mgrwt>
</event>
<event>
 6    1  0.4259848E-002  0.1614380E+03  0.7546771E-02  0.1187083E+00
         21   -1    0    0  504  502  0.00000000000E+00  0.00000000000E+00  0.45267873500E+02  0.45267873500E+02  0.00000000000E+00 0. -1.
         21   -1    0    0  502  503 -0.00000000000E+00 -0.00000000000E+00 -0.39202199047E+03  0.39202199047E+03  0.00000000000E+00 0. -1.
         25    2    1    2    0    0  0.56857580838E+02 -0.84879394765E+02 -0.18056907607E+03  0.24221356102E+03  0.12499968701E+03 0.  0.
          5    1    3    3  501    0  0.66690268323E+02 -0.21112979398E+02 -0.25842205528E+02  0.74573315433E+02  0.10000000000E+00 0.  1.
         -5    1    3    3    0  501 -0.98326874849E+01 -0.63766415366E+02 -0.15472687054E+03  0.16764024558E+03  0.10000000000E+00 0.  1.
         21    1    1    2  504  503 -0.56857580838E+02  0.84879394765E+02 -0.16618504089E+03  0.19507630295E+03  0.00000000000E+00 0. -1.
<mgrwt>
<rscale>  1 0.16143797E+03</rscale>
<asrwt>0</asrwt>
<pdfrwt beam="1">  1       21 0.69642882E-02 0.16143797E+03</pdfrwt>
<pdfrwt beam="2">  1       21 0.60311075E-01 0.16143797E+03</pdfrwt>
<totfact> 0.39370308E+05</totfact>
</mgrwt>
</event>
<event>
 6    1  0.4259848E-002  0.1368425E+03  0.7546771E-02  0.1217642E+00
         21   -1    0    0  503  502  0.00000000000E+00  0.00000000000E+00  0.23928305860E+03  0.23928305860E+03  0.00000000000E+00 0.  1.
         21   -1    0    0  504  503 -0.00000000000E+00 -0.00000000000E+00 -0.18680631407E+03  0.18680631407E+03  0.00000000000E+00 0. -1.
         25    2    1    2    0    0 -0.80795859604E+00  0.55679283642E+02  0.21468508273E+03  0.25458899248E+03  0.12500013969E+03 0.  0.
          5    1    3    3  501    0 -0.42068367154E+02  0.61441733900E+02  0.63798517116E+02  0.98056590629E+02  0.10000000000E+00 0. -1.
         -5    1    3    3    0  501  0.41260408558E+02 -0.57624502580E+01  0.15088656561E+03  0.15653240185E+03  0.10000000000E+00 0. -1.
         21    1    1    2  504  502  0.80795859604E+00 -0.55679283642E+02 -0.16220833820E+03  0.17150038019E+03  0.00000000000E+00 0. -1.
<mgrwt>
<rscale>  1 0.13684250E+03</rscale>
<asrwt>0</asrwt>
<pdfrwt beam="1">  1       21 0.36812778E-01 0.13684250E+03</pdfrwt>
<pdfrwt beam="2">  1       21 0.28739433E-01 0.13684250E+03</pdfrwt>
<totfact> 0.84345618E+04</totfact>
</mgrwt>
</event>
<event>
 6    1  0.4259848E-002  0.1283296E+03  0.7546771E-02  0.1229956E+00
         21   -1    0    0  503  502  0.00000000000E+00  0.00000000000E+00  0.88839991595E+03  0.88839991595E+03  0.00000000000E+00 0.  1.
         21   -1    0    0  504  503 -0.00000000000E+00 -0.00000000000E+00 -0.10044915641E+03  0.10044915641E+03  0.00000000000E+00 0. -1.
         25    2    1    2    0    0  0.82576211236E+01  0.27869906192E+02  0.88154924462E+03  0.89084092786E+03  0.12499427215E+03 0.  0.
          5    1    3    3  501    0  0.12856130536E+02  0.65725922177E+01  0.70465165168E+01  0.16066812249E+02  0.10000000000E+00 0.  1.
         -5    1    3    3    0  501 -0.45985094127E+01  0.21297313974E+02  0.87450272811E+03  0.87477411561E+03  0.10000000000E+00 0.  1.
         21    1    1    2  504  502 -0.82576211236E+01 -0.27869906192E+02 -0.93598485084E+02  0.98008144498E+02  0.00000000000E+00 0. -1.
<mgrwt>
<rscale>  1 0.12832961E+03</rscale>
<asrwt>0</asrwt>
<pdfrwt beam="1">  1       21 0.13667690E+00 0.12832961E+03</pdfrwt>
<pdfrwt beam="2">  1       21 0.15453717E-01 0.12832961E+03</pdfrwt>
<totfact> 0.14862145E+04</totfact>
</mgrwt>
</event>
<event>
 6    1  0.4259848E-002  0.1277054E+03  0.7546771E-02  0.1230901E+00
         21   -1    0    0  504  502  0.00000000000E+00  0.00000000000E+00  0.11172604286E+04  0.11172604286E+04  0.00000000000E+00 0.  1.
         21   -1    0    0  502  503 -0.00000000000E+00 -0.00000000000E+00 -0.67608716288E+02  0.67608716288E+02  0.00000000000E+00 0. -1.
         25    2    1    2    0    0 -0.14156935333E+02 -0.22076942234E+02  0.11109135414E+04  0.11182296529E+04  0.12498339927E+03 0.  0.
          5    1    3    3  501    0 -0.63567425750E+02  0.11502545963E+02  0.44863033042E+03  0.45325744291E+03  0.10000000000E+00 0. -1.
         -5    1    3    3    0  501  0.49410490417E+02 -0.33579488197E+02  0.66228321097E+03  0.66497221003E+03  0.10000000000E+00 0. -1.
         21    1    1    2  504  503  0.14156935333E+02  0.22076942234E+02 -0.61261829030E+02  0.66639491989E+02  0.00000000000E+00 0. -1.
<mgrwt>
<rscale>  1 0.12770537E+03</rscale>
<asrwt>0</asrwt>
<pdfrwt beam="1">  1       21 0.17188621E+00 0.12770537E+03</pdfrwt>
<pdfrwt beam="2">  1       21 0.10401342E-01 0.12770537E+03</pdfrwt>
<totfact> 0.16525189E+04</totfact>
</mgrwt>
</event>
<event>
 6    1  0.4259848E-002  0.1259004E+03  0.7546771E-02  0.1233669E+00
         21   -1    0    0  503  502  0.00000000000E+00  0.00000000000E+00  0.17081662734E+03  0.17081662734E+03  0.00000000000E+00 0.  1.
         21   -1    0    0  504  503 -0.00000000000E+00 -0.00000000000E+00 -0.11358199079E+03  0.11358199079E+03  0.00000000000E+00 0.  1.
         25    2    1    2    0    0  0.14816690823E+02  0.25650857384E+01  0.14690656286E+03  0.19347464792E+03  0.12499914873E+03 0.  0.
          5    1    3    3  501    0 -0.29982173169E+02  0.33917735375E+02  0.10435983236E+02  0.46457111695E+02  0.10000000000E+00 0. -1.
         -5    1    3    3    0  501  0.44798863992E+02 -0.31352649637E+02  0.13647057963E+03  0.14701753622E+03  0.10000000000E+00 0. -1.
         21    1    1    2  504  502 -0.14816690823E+02 -0.25650857384E+01 -0.89671926306E+02  0.90923970213E+02  0.00000000000E+00 0.  1.
<mgrwt>
<rscale>  1 0.12590036E+03</rscale>
<asrwt>0</asrwt>
<pdfrwt beam="1">  1       21 0.26279481E-01 0.12590036E+03</pdfrwt>
<pdfrwt beam="2">  1       21 0.17474152E-01 0.12590036E+03</pdfrwt>
<totfact> 0.41247311E+05</totfact>
</mgrwt>
</event>
<event>
 6    1  0.4259848E-002  0.1280180E+03  0.7546771E-02  0.1230427E+00
         21   -1    0    0  503  502  0.00000000000E+00  0.00000000000E+00  0.35492156637E+03  0.35492156637E+03  0.00000000000E+00 0. -1.
         21   -1    0    0  504  503 -0.00000000000E+00 -0.00000000000E+00 -0.96419577292E+02  0.96419577292E+02  0.00000000000E+00 0.  1.
         25    2    1    2    0    0 -0.12834458324E+02 -0.24484915270E+02  0.34105100037E+03  0.36428614000E+03  0.12499749017E+03 0.  0.
          5    1    3    3  501    0 -0.47845984843E+02  0.21160446192E+02  0.71099144842E+02  0.88272878881E+02  0.10000000000E+00 0.  1.
         -5    1    3    3    0  501  0.35011526519E+02 -0.45645361462E+02  0.26995185553E+03  0.27601326112E+03  0.10000000000E+00 0.  1.
         21    1    1    2  504  502  0.12834458324E+02  0.24484915270E+02 -0.82549011293E+02  0.87055003657E+02  0.00000000000E+00 0.  1.
<mgrwt>
<rscale>  1 0.12801799E+03</rscale>
<asrwt>0</asrwt>
<pdfrwt beam="1">  1       21 0.54603317E-01 0.12801799E+03</pdfrwt>
<pdfrwt beam="2">  1       21 0.14833781E-01 0.12801799E+03</pdfrwt>
<totfact> 0.12969354E+05</totfact>
</mgrwt>
</event>
<event>
 6    1  0.4259848E-002  0.1261229E+03  0.7546771E-02  0.1233325E+00
         21   -1    0    0  504  502  0.00000000000E+00  0.00000000000E+00  0.16238444579E+04  0.16238444579E+04  0.00000000000E+00 0. -1.
         21   -1    0    0  502  503 -0.00000000000E+00 -0.00000000000E+00 -0.10503565572E+02  0.10503565572E+02  0.00000000000E+00 0. -1.
         25    2    1    2    0    0  0.10519915816E+02 -0.13099113873E+02  0.16126069899E+04  0.16175315427E+04  0.12499892885E+03 0.  0.
          5    1    3    3  501    0  0.29938341028E+02 -0.91003306178E+01  0.15723104087E+04  0.15726217446E+04  0.10000000000E+00 0.  1.
         -5    1    3    3    0  501 -0.19418425212E+02 -0.39987832555E+01  0.40296581179E+02  0.44909798039E+02  0.10000000000E+00 0.  1.
         21    1    1    2  504  503 -0.10519915816E+02  0.13099113873E+02  0.73390239499E+00  0.16816480778E+02  0.00000000000E+00 0. -1.
<mgrwt>
<rscale>  1 0.12612291E+03</rscale>
<asrwt>0</asrwt>
<pdfrwt beam="1">  1       21 0.24982203E+00 0.12612291E+03</pdfrwt>
<pdfrwt beam="2">  1       21 0.16159345E-02 0.12612291E+03</pdfrwt>
<totfact> 0.12184260E+05</totfact>
</mgrwt>
</event>
<event>
 6    1  0.4259848E-002  0.1331881E+03  0.7546771E-02  0.1222800E+00
         21   -1    0    0  503  502  0.00000000000E+00  0.00000000000E+00  0.22571361974E+02  0.22571361974E+02  0.00000000000E+00 0. -1.
         21   -1    0    0  504  503 -0.00000000000E+00 -0.00000000000E+00 -0.35652534805E+03  0.35652534805E+03  0.00000000000E+00 0. -1.
         25    2    1    2    0    0  0.77727822847E+01 -0.45296367899E+02 -0.25706535461E+03  0.28951971109E+03  0.12500755769E+03 0.  0.
          5    1    3    3  501    0  0.16683281677E+02 -0.62798175751E+02 -0.51213677089E+02  0.82733267106E+02  0.10000000000E+00 0.  1.
         -5    1    3    3    0  501 -0.89104993919E+01  0.17501807851E+02 -0.20585167752E+03  0.20678644398E+03  0.10000000000E+00 0.  1.
         21    1    1    2  504  502 -0.77727822847E+01  0.45296367899E+02 -0.76888631465E+02  0.89576998933E+02  0.00000000000E+00 0. -1.
<mgrwt>
<rscale>  1 0.13318809E+03</rscale>
<asrwt>0</asrwt>
<pdfrwt beam="1">  1       21 0.34725176E-02 0.13318809E+03</pdfrwt>
<pdfrwt beam="2">  1       21 0.54850048E-01 0.13318809E+03</pdfrwt>
<totfact> 0.15552200E+06</totfact>
</mgrwt>
</event>
<event>
 6    1  0.4259848E-002  0.1313629E+03  0.7546771E-02  0.1225447E+00
         21   -1    0    0  504  502  0.00000000000E+00  0.00000000000E+00  0.11737544011E+03  0.11737544011E+03  0.00000000000E+00 0.  1.
         21   -1    0    0  502  503 -0.00000000000E+00 -0.00000000000E+00 -0.31600716370E+03  0.31600716370E+03  0.00000000000E+00 0.  1.
         25    2    1    2    0    0 -0.17630347229E+02  0.36354665449E+02  0.78693000210E+02  0.15313005116E+03  0.12499493366E+03 0.  0.
          5    1    3    3  501    0 -0.39225899996E+02 -0.71886247908E+01 -0.18879022080E+02  0.44122273645E+02  0.10000000000E+00 0. -1.
         -5    1    3    3    0  501  0.21595552767E+02  0.43543290240E+02  0.97572022289E+02  0.10900777751E+03  0.10000000000E+00 0. -1.
         21    1    1    2  504  503  0.17630347229E+02 -0.36354665449E+02 -0.27732472380E+03  0.28025255266E+03  0.00000000000E+00 0.  1.
<mgrwt>
<rscale>  1 0.13136295E+03</rscale>
<asrwt>0</asrwt>
<pdfrwt beam="1">  1       21 0.18057760E-01 0.13136295E+03</pdfrwt>
<pdfrwt beam="2">  1       21 0.48616487E-01 0.13136295E+03</pdfrwt>
<totfact> 0.11529750E+05</totfact>
</mgrwt>
</event>
<event>
 6    1  0.4259848E-002  0.1275202E+03  0.7546771E-02  0.1231182E+00
         21   -1    0    0  503  502  0.00000000000E+00  0.00000000000E+00  0.20167102256E+02  0.20167102256E+02  0.00000000000E+00 0.  1.
         21   -1    0    0  504  503 -0.00000000000E+00 -0.00000000000E+00 -0.29509641790E+03  0.29509641790E+03  0.00000000000E+00 0.  1.
         25    2    1    2    0    0 -0.19296177655E+02  0.16238888058E+02 -0.24437084132E+03  0.27564200693E+03  0.12500145574E+03 0.  0.
          5    1    3    3  501    0  0.92999181666E+00 -0.19682797435E+02 -0.23166809228E+03  0.23250460722E+03  0.10000000000E+00 0.  1.
         -5    1    3    3    0  501 -0.20226169472E+02  0.35921685493E+02 -0.12702749041E+02  0.43137399705E+02  0.10000000000E+00 0.  1.
         21    1    1    2  504  502  0.19296177655E+02 -0.16238888058E+02 -0.30558474323E+02  0.39621513227E+02  0.00000000000E+00 0.  1.
<mgrwt>
<rscale>  1 0.12752023E+03</rscale>
<asrwt>0</asrwt>
<pdfrwt beam="1">  1       21 0.31026313E-02 0.12752023E+03</pdfrwt>
<pdfrwt beam="2">  1       21 0.45399446E-01 0.12752023E+03</pdfrwt>
<totfact> 0.27627705E+06</totfact>
</mgrwt>
</event>
<event>
 6    1  0.4259848E-002  0.1259538E+03  0.7546771E-02  0.1233586E+00
         21   -1    0    0  503  502  0.00000000000E+00  0.00000000000E+00  0.29408866772E+01  0.29408866772E+01  0.00000000000E+00 0.  1.
         21   -1    0    0  504  503 -0.00000000000E+00 -0.00000000000E+00 -0.18964001102E+04  0.18964001102E+04  0.00000000000E+00 0.  1.
         25    2    1    2    0    0 -0.12250464214E+02 -0.94186128771E+01 -0.14041353170E+04  0.14097731572E+04  0.12500232878E+03 0.  0.
          5    1    3    3  501    0 -0.88006652230E+01  0.42370158648E+02 -0.11263124933E+04  0.11271435244E+04  0.10000000000E+00 0. -1.
         -5    1    3    3    0  501 -0.34497989913E+01 -0.51788771525E+02 -0.27782282375E+03  0.28262963285E+03  0.10000000000E+00 0. -1.
         21    1    1    2  504  502  0.12250464214E+02  0.94186128771E+01 -0.48932390655E+03  0.48956783970E+03  0.00000000000E+00 0.  1.
<mgrwt>
<rscale>  1 0.12595383E+03</rscale>
<asrwt>0</asrwt>
<pdfrwt beam="1">  1       21 0.45244349E-03 0.12595383E+03</pdfrwt>
<pdfrwt beam="2">  1       21 0.29175426E+00 0.12595383E+03</pdfrwt>
<totfact> 0.52001430E+05</totfact>
</mgrwt>
</event>
<event>
 6    1  0.4259848E-002  0.1273119E+03  0.7546771E-02  0.1231500E+00
         21   -1    0    0  504  502  0.00000000000E+00  0.00000000000E+00  0.69272084964E+03  0.69272084964E+03  0.00000000000E+00 0.  1.
         21   -1    0    0  502  503 -0.00000000000E+00 -0.00000000000E+00 -0.87528313379E+01  0.87528313379E+01  0.00000000000E+00 0.  1.
         25    2    1    2    0    0  0.20240944767E+02  0.13191875917E+02  0.62335268446E+03  0.63622078731E+03  0.12499839817E+03 0.  0.
          5    1    3    3  501    0  0.69701618343E+02  0.26398011583E+02  0.31890583394E+03  0.32749978860E+03  0.10000000000E+00 0. -1.
         -5    1    3    3    0  501 -0.49460673576E+02 -0.13206135666E+02  0.30444685052E+03  0.30872099871E+03  0.10000000000E+00 0. -1.
         21    1    1    2  504  503 -0.20240944767E+02 -0.13191875917E+02  0.60615333836E+02  0.65252893663E+02  0.00000000000E+00 0.  1.
<mgrwt>
<rscale>  1 0.12731190E+03</rscale>
<asrwt>0</asrwt>
<pdfrwt beam="1">  1       21 0.10657240E+00 0.12731190E+03</pdfrwt>
<pdfrwt beam="2">  1       21 0.13465900E-02 0.12731190E+03</pdfrwt>
<totfact> 0.16473752E+06</totfact>
</mgrwt>
</event>
<event>
 6    1  0.4259848E-002  0.1287899E+03  0.7546771E-02  0.1229262E+00
         21   -1    0    0  503  502  0.00000000000E+00  0.00000000000E+00  0.47786633674E+03  0.47786633674E+03  0.00000000000E+00 0. -1.
         21   -1    0    0  504  503 -0.00000000000E+00 -0.00000000000E+00 -0.20352969937E+02  0.20352969937E+02  0.00000000000E+00 0. -1.
         25    2    1    2    0    0  0.12174137736E+01 -0.31001305211E+02  0.44742965534E+03  0.46559654993E+03  0.12499715118E+03 0.  0.
          5    1    3    3  501    0  0.10572599900E+02 -0.69667178447E+02  0.38621802866E+03  0.39259351916E+03  0.10000000000E+00 0.  1.
         -5    1    3    3    0  501 -0.93551861259E+01  0.38665873236E+02  0.61211626677E+02  0.73003030766E+02  0.10000000000E+00 0.  1.
         21    1    1    2  504  502 -0.12174137736E+01  0.31001305211E+02  0.10083711460E+02  0.32622756749E+02  0.00000000000E+00 0. -1.
<mgrwt>
<rscale>  1 0.12878995E+03</rscale>
<asrwt>0</asrwt>
<pdfrwt beam="1">  1       21 0.73517889E-01 0.12878995E+03</pdfrwt>
<pdfrwt beam="2">  1       21 0.31312265E-02 0.12878995E+03</pdfrwt>
<totfact> 0.98338857E+05</totfact>
</mgrwt>
</event>
<event>
 6    1  0.4259848E-002  0.1305590E+03  0.7546771E-02  0.1226629E+00
         21   -1    0    0  503  502  0.00000000000E+00  0.00000000000E+00  0.82641268832E+02  0.82641268832E+02  0.00000000000E+00 0.  1.
         21   -1    0    0  504  503 -0.00000000000E+00 -0.00000000000E+00 -0.23331200849E+03  0.23331200849E+03  0.00000000000E+00 0.  1.
         25    2    1    2    0    0  0.35781749485E+02  0.11832909714E+02  0.27851232081E+02  0.13349658180E+03  0.12500117949E+03 0.  0.
          5    1    3    3  501    0 -0.37232629905E+02 -0.28732707859E+02  0.96626071467E+01  0.48012635914E+02  0.10000000000E+00 0.  1.
         -5    1    3    3    0  501  0.73014379390E+02  0.40565617573E+02  0.18188624934E+02  0.85483945883E+02  0.10000000000E+00 0.  1.
         21    1    1    2  504  502 -0.35781749485E+02 -0.11832909714E+02 -0.17852197174E+03  0.18245669552E+03  0.00000000000E+00 0.  1.
<mgrwt>
<rscale>  1 0.13055898E+03</rscale>
<asrwt>0</asrwt>
<pdfrwt beam="1">  1       21 0.12714042E-01 0.13055898E+03</pdfrwt>
<pdfrwt beam="2">  1       21 0.35894154E-01 0.13055898E+03</pdfrwt>
<totfact> 0.40006292E+05</totfact>
</mgrwt>
</event>
<event>
 6    1  0.4259848E-002  0.1259594E+03  0.7546771E-02  0.1233578E+00
         21   -1    0    0  504  502  0.00000000000E+00  0.00000000000E+00  0.46354361086E+02  0.46354361086E+02  0.00000000000E+00 0. -1.
         21   -1    0    0  502  503 -0.00000000000E+00 -0.00000000000E+00 -0.15760120877E+03  0.15760120877E+03  0.00000000000E+00 0. -1.
         25    2    1    2    0    0 -0.95931982983E+01  0.12205934447E+02 -0.41678082845E+02  0.13267564750E+03  0.12499900224E+03 0.  0.
          5    1    3    3  501    0 -0.24600155380E+02 -0.24852052814E+01  0.40722394299E+02  0.47641025256E+02  0.10000000000E+00 0. -1.
         -5    1    3    3    0  501  0.15006957082E+02  0.14691139728E+02 -0.82400477144E+02  0.85034622248E+02  0.10000000000E+00 0. -1.
         21    1    1    2  504  503  0.95931982983E+01 -0.12205934447E+02 -0.69568764838E+02  0.71279922352E+02  0.00000000000E+00 0.  1.
<mgrwt>
<rscale>  1 0.12595938E+03</rscale>
<asrwt>0</asrwt>
<pdfrwt beam="1">  1       21 0.71314401E-02 0.12595938E+03</pdfrwt>
<pdfrwt beam="2">  1       21 0.24246340E-01 0.12595938E+03</pdfrwt>
<totfact> 0.23332141E+06</totfact>
</mgrwt>
</event>
<event>
 6    1  0.4259848E-002  0.1267983E+03  0.7546771E-02  0.1232285E+00
         21   -1    0    0  503  502  0.00000000000E+00  0.00000000000E+00  0.82491533629E+03  0.82491533629E+03  0.00000000000E+00 0.  1.
         21   -1    0    0  504  503 -0.00000000000E+00 -0.00000000000E+00 -0.66930023706E+01  0.66930023706E+01  0.00000000000E+00 0.  1.
         25    2    1    2    0    0 -0.15930297814E+02  0.13678875660E+02  0.72928976855E+03  0.74023062140E+03  0.12504767221E+03 0.  0.
          5    1    3    3  501    0 -0.56718709219E+02  0.31005593742E+02  0.22800620566E+03  0.23699198011E+03  0.10000000000E+00 0. -1.
         -5    1    3    3    0  501  0.40788411405E+02 -0.17326718083E+02  0.50128356289E+03  0.50323864129E+03  0.10000000000E+00 0. -1.
         21    1    1    2  504  502  0.15930297814E+02 -0.13678875660E+02  0.88932565377E+02  0.91377717263E+02  0.00000000000E+00 0.  1.
<mgrwt>
<rscale>  1 0.12679829E+03</rscale>
<asrwt>0</asrwt>
<pdfrwt beam="1">  1       21 0.12690997E+00 0.12679829E+03</pdfrwt>
<pdfrwt beam="2">  1       21 0.10296933E-02 0.12679829E+03</pdfrwt>
<totfact> 0.16511665E+06</totfact>
</mgrwt>
</event>
<event>
 6    1  0.4259848E-002  0.1264060E+03  0.7546771E-02  0.1232888E+00
         21   -1    0    0  504  502  0.00000000000E+00  0.00000000000E+00  0.59619193517E+01  0.59619193517E+01  0.00000000000E+00 0.  1.
         21   -1    0    0  502  503 -0.00000000000E+00 -0.00000000000E+00 -0.88511848522E+03  0.88511848522E+03  0.00000000000E+00 0.  1.
         25    2    1    2    0    0 -0.18671593100E+02 -0.13454706584E+01 -0.75100446877E+03  0.76156824812E+03  0.12501218236E+03 0.  0.
          5    1    3    3  501    0  0.54809444980E+01 -0.12414450299E+02 -0.72240432339E+03  0.72253178185E+03  0.10000000000E+00 0. -1.
         -5    1    3    3    0  501 -0.24152537598E+02  0.11068979640E+02 -0.28600145386E+02  0.39036466269E+02  0.10000000000E+00 0. -1.
         21    1    1    2  504  503  0.18671593100E+02  0.13454706584E+01 -0.12815209709E+03  0.12951215645E+03  0.00000000000E+00 0.  1.
<mgrwt>
<rscale>  1 0.12640603E+03</rscale>
<asrwt>0</asrwt>
<pdfrwt beam="1">  1       21 0.91721811E-03 0.12640603E+03</pdfrwt>
<pdfrwt beam="2">  1       21 0.13617211E+00 0.12640603E+03</pdfrwt>
<totfact> 0.16620989E+06</totfact>
</mgrwt>
</event>
<event>
 6    1  0.4259848E-002  0.1262127E+03  0.7546771E-02  0.1233186E+00
         21   -1    0    0  504  502  0.00000000000E+00  0.00000000000E+00  0.13179093367E+03  0.13179093367E+03  0.00000000000E+00 0.  1.
         21   -1    0    0  502  503 -0.00000000000E+00 -0.00000000000E+00 -0.39471878620E+02  0.39471878620E+02  0.00000000000E+00 0.  1.
         25    2    1    2    0    0  0.14888986443E-01 -0.17494785698E+02  0.75940009839E+02  0.14729740242E+03  0.12499428753E+03 0.  0.
          5    1    3    3  501    0 -0.17837387386E+02 -0.36887834358E+02 -0.21557701796E+02  0.46299343614E+02  0.10000000000E+00 0. -1.
         -5    1    3    3    0  501  0.17852276372E+02  0.19393048660E+02  0.97497711635E+02  0.10099805880E+03  0.10000000000E+00 0. -1.
         21    1    1    2  504  503 -0.14888986443E-01  0.17494785698E+02  0.16379045209E+02  0.23965409870E+02  0.00000000000E+00 0.  1.
<mgrwt>
<rscale>  1 0.12621268E+03</rscale>
<asrwt>0</asrwt>
<pdfrwt beam="1">  1       21 0.20275528E-01 0.12621268E+03</pdfrwt>
<pdfrwt beam="2">  1       21 0.60725968E-02 0.12621268E+03</pdfrwt>
<totfact> 0.42841832E+06</totfact>
</mgrwt>
</event>
<event>
 6    1  0.4259848E-002  0.1265221E+03  0.7546771E-02  0.1232710E+00
         21   -1    0    0  503  502  0.00000000000E+00  0.00000000000E+00  0.96213237075E+02  0.96213237075E+02  0.00000000000E+00 0. -1.
         21   -1    0    0  504  503 -0.00000000000E+00 -0.00000000000E+00 -0.56253067349E+02  0.56253067349E+02  0.00000000000E+00 0. -1.
         25    2    1    2    0    0 -0.49476185075E+00 -0.19581038699E+02  0.28223170638E+02  0.12963170319E+03  0.12499667694E+03 0.  0.
          5    1    3    3  501    0  0.39414951151E+02  0.11499883615E+02  0.57902913625E+02  0.70982695805E+02  0.10000000000E+00 0.  1.
         -5    1    3    3    0  501 -0.39909713002E+02 -0.31080922314E+02 -0.29679742987E+02  0.58649007388E+02  0.10000000000E+00 0.  1.
         21    1    1    2  504  502  0.49476185075E+00  0.19581038699E+02  0.11736999088E+02  0.22834601232E+02  0.00000000000E+00 0. -1.
<mgrwt>
<rscale>  1 0.12652206E+03</rscale>
<asrwt>0</asrwt>
<pdfrwt beam="1">  1       21 0.14802036E-01 0.12652206E+03</pdfrwt>
<pdfrwt beam="2">  1       21 0.86543181E-02 0.12652206E+03</pdfrwt>
<totfact> 0.41452291E+06</totfact>
</mgrwt>
</event>
<event>
 6    1  0.4259848E-002  0.1910713E+03  0.7546771E-02  0.1157499E+00
         21   -1    0    0  504  502  0.00000000000E+00  0.00000000000E+00  0.83293498005E+02  0.83293498005E+02  0.00000000000E+00 0. -1.
         21   -1    0    0  502  503 -0.00000000000E+00 -0.00000000000E+00 -0.58430334441E+03  0.58430334441E+03  0.00000000000E+00 0.  1.
         25    2    1    2    0    0  0.13881025584E+03 -0.40181188915E+02 -0.55102645794E+02  0.19885805948E+03  0.12500164470E+03 0.  0.
          5    1    3    3  501    0  0.14045170771E+03 -0.18505940092E+01 -0.70928630893E+02  0.15735624417E+03  0.10000000000E+00 0. -1.
         -5    1    3    3    0  501 -0.16414518700E+01 -0.38330594906E+02  0.15825985099E+02  0.41501815315E+02  0.10000000000E+00 0. -1.
         21    1    1    2  504  503 -0.13881025584E+03  0.40181188915E+02 -0.44590720061E+03  0.46873878293E+03  0.00000000000E+00 0.  1.
<mgrwt>
<rscale>  1 0.19107126E+03</rscale>
<asrwt>0</asrwt>
<pdfrwt beam="1">  1       21 0.12814384E-01 0.19107126E+03</pdfrwt>
<pdfrwt beam="2">  1       21 0.89892821E-01 0.19107126E+03</pdfrwt>
<totfact> 0.54996521E+04</totfact>
</mgrwt>
</event>
<event>
 6    1  0.4259848E-002  0.2146772E+03  0.7546771E-02  0.1137915E+00
         21   -1    0    0  504  502  0.00000000000E+00  0.00000000000E+00  0.62621581544E+03  0.62621581544E+03  0.00000000000E+00 0.  1.
         21   -1    0    0  502  503 -0.00000000000E+00 -0.00000000000E+00 -0.63415748384E+02  0.63415748384E+02  0.00000000000E+00 0.  1.
         25    2    1    2    0    0 -0.59429682611E+02 -0.16406440311E+03  0.23509850839E+03  0.31836706634E+03  0.12504904932E+03 0.  0.
          5    1    3    3  501    0  0.21413981477E+02 -0.62800114976E+01  0.79194913576E+02  0.82279046442E+02  0.10000000000E+00 0.  1.
         -5    1    3    3    0  501 -0.80843664088E+02 -0.15778439162E+03  0.15590359482E+03  0.23608801990E+03  0.10000000000E+00 0.  1.
         21    1    1    2  504  503  0.59429682611E+02  0.16406440311E+03  0.32770155866E+03  0.37126449749E+03  0.00000000000E+00 0.  1.
<mgrwt>
<rscale>  1 0.21467715E+03</rscale>
<asrwt>0</asrwt>
<pdfrwt beam="1">  1       21 0.96340891E-01 0.21467715E+03</pdfrwt>
<pdfrwt beam="2">  1       21 0.97562694E-02 0.21467715E+03</pdfrwt>
<totfact> 0.75219120E+04</totfact>
</mgrwt>
</event>
<event>
 6    1  0.4259848E-002  0.1277694E+03  0.7546771E-02  0.1230804E+00
         21   -1    0    0  504  502  0.00000000000E+00  0.00000000000E+00  0.21094406599E+02  0.21094406599E+02  0.00000000000E+00 0.  1.
         21   -1    0    0  502  503 -0.00000000000E+00 -0.00000000000E+00 -0.29251371234E+03  0.29251371234E+03  0.00000000000E+00 0.  1.
         25    2    1    2    0    0 -0.23721251691E+02 -0.11562676927E+02 -0.19855697338E+03  0.23611416591E+03  0.12501453669E+03 0.  0.
          5    1    3    3  501    0  0.33440813276E+02  0.18004843426E+02 -0.13700569638E+02  0.40375462694E+02  0.10000000000E+00 0. -1.
         -5    1    3    3    0  501 -0.57162064967E+02 -0.29567520353E+02 -0.18485640375E+03  0.19573870322E+03  0.10000000000E+00 0. -1.
         21    1    1    2  504  503  0.23721251691E+02  0.11562676927E+02 -0.72862332359E+02  0.77493953031E+02  0.00000000000E+00 0. -1.
<mgrwt>
<rscale>  1 0.12776943E+03</rscale>
<asrwt>0</asrwt>
<pdfrwt beam="1">  1       21 0.32452934E-02 0.12776943E+03</pdfrwt>
<pdfrwt beam="2">  1       21 0.45002109E-01 0.12776943E+03</pdfrwt>
<totfact> 0.26124066E+06</totfact>
</mgrwt>
</event>
<event>
 6    1  0.4259848E-002  0.1443148E+03  0.7546771E-02  0.1207638E+00
         21   -1    0    0  503  502  0.00000000000E+00  0.00000000000E+00  0.17576546168E+03  0.17576546168E+03  0.00000000000E+00 0. -1.
         21   -1    0    0  504  503 -0.00000000000E+00 -0.00000000000E+00 -0.17672829585E+03  0.17672829585E+03  0.00000000000E+00 0.  1.
         25    2    1    2    0    0 -0.31497544713E+02  0.64928641438E+02  0.13560657981E+03  0.19803007689E+03  0.12497576991E+03 0.  0.
          5    1    3    3  501    0 -0.36856106910E+02 -0.27590668923E+02  0.20891486683E+02  0.50557708057E+02  0.10000000000E+00 0.  1.
         -5    1    3    3    0  501  0.53585621970E+01  0.92519310360E+02  0.11471509313E+03  0.14747236884E+03  0.10000000000E+00 0.  1.
         21    1    1    2  504  502  0.31497544713E+02 -0.64928641438E+02 -0.13656941398E+03  0.15446368064E+03  0.00000000000E+00 0.  1.
<mgrwt>
<rscale>  1 0.14431482E+03</rscale>
<asrwt>0</asrwt>
<pdfrwt beam="1">  1       21 0.27040840E-01 0.14431482E+03</pdfrwt>
<pdfrwt beam="2">  1       21 0.27188968E-01 0.14431482E+03</pdfrwt>
<totfact> 0.17049857E+05</totfact>
</mgrwt>
</event>
<event>
 6    1  0.4259848E-002  0.1451593E+03  0.7546771E-02  0.1206551E+00
         21   -1    0    0  503  502  0.00000000000E+00  0.00000000000E+00  0.22766920749E+02  0.22766920749E+02  0.00000000000E+00 0.  1.
         21   -1    0    0  504  503 -0.00000000000E+00 -0.00000000000E+00 -0.93023204309E+03  0.93023204309E+03  0.00000000000E+00 0.  1.
         25    2    1    2    0    0  0.60058757779E+02 -0.42900971585E+02 -0.23307372716E+03  0.27458072879E+03  0.12499466622E+03 0.  0.
          5    1    3    3  501    0  0.95787122038E+01 -0.80259140604E+02 -0.11112994391E+03  0.13741599547E+03  0.10000000000E+00 0. -1.
         -5    1    3    3    0  501  0.50480045575E+02  0.37358169019E+02 -0.12194378325E+03  0.13716473332E+03  0.10000000000E+00 0. -1.
         21    1    1    2  504  502 -0.60058757779E+02  0.42900971585E+02 -0.67439139519E+03  0.67841823505E+03  0.00000000000E+00 0.  1.
<mgrwt>
<rscale>  1 0.14515927E+03</rscale>
<asrwt>0</asrwt>
<pdfrwt beam="1">  1       21 0.35026035E-02 0.14515927E+03</pdfrwt>
<pdfrwt beam="2">  1       21 0.14311261E+00 0.14515927E+03</pdfrwt>
<totfact> 0.16860427E+05</totfact>
</mgrwt>
</event>
<event>
 6    1  0.4259848E-002  0.1323851E+03  0.7546771E-02  0.1223959E+00
         21   -1    0    0  504  502  0.00000000000E+00  0.00000000000E+00  0.35270941374E+02  0.35270941374E+02  0.00000000000E+00 0.  1.
         21   -1    0    0  502  503 -0.00000000000E+00 -0.00000000000E+00 -0.47271469510E+03  0.47271469510E+03  0.00000000000E+00 0.  1.
         25    2    1    2    0    0 -0.15968462665E+02 -0.40535741535E+02 -0.95398543413E+02  0.16317690103E+03  0.12501072275E+03 0.  0.
          5    1    3    3  501    0 -0.13681887853E+02 -0.82759455189E+02 -0.85439962480E+02  0.11973436711E+03  0.10000000000E+00 0.  1.
         -5    1    3    3    0  501 -0.22865748118E+01  0.42223713654E+02 -0.99585809327E+01  0.43442533919E+02  0.10000000000E+00 0.  1.
         21    1    1    2  504  503  0.15968462665E+02  0.40535741535E+02 -0.34204521032E+03  0.34480873545E+03  0.00000000000E+00 0.  1.
<mgrwt>
<rscale>  1 0.13238512E+03</rscale>
<asrwt>0</asrwt>
<pdfrwt beam="1">  1       21 0.54262990E-02 0.13238512E+03</pdfrwt>
<pdfrwt beam="2">  1       21 0.72725334E-01 0.13238512E+03</pdfrwt>
<totfact> 0.40318636E+05</totfact>
</mgrwt>
</event>
<event>
 6    1  0.4259848E-002  0.1289274E+03  0.7546771E-02  0.1229056E+00
         21   -1    0    0  503  502  0.00000000000E+00  0.00000000000E+00  0.18543938150E+02  0.18543938150E+02  0.00000000000E+00 0.  1.
         21   -1    0    0  504  503 -0.00000000000E+00 -0.00000000000E+00 -0.46535231614E+03  0.46535231614E+03  0.00000000000E+00 0.  1.
         25    2    1    2    0    0  0.21832916528E+02  0.23319615586E+02 -0.22114623450E+03  0.25598424556E+03  0.12490715043E+03 0.  0.
          5    1    3    3  501    0  0.40906112655E+02  0.68463299190E+02 -0.14322729317E+03  0.16393474585E+03  0.10000000000E+00 0. -1.
         -5    1    3    3    0  501 -0.19073196127E+02 -0.45143683604E+02 -0.77918941329E+02  0.92049499715E+02  0.10000000000E+00 0. -1.
         21    1    1    2  504  502 -0.21832916528E+02 -0.23319615586E+02 -0.22566214350E+03  0.22791200873E+03  0.00000000000E+00 0.  1.
<mgrwt>
<rscale>  1 0.12892741E+03</rscale>
<asrwt>0</asrwt>
<pdfrwt beam="1">  1       21 0.28529135E-02 0.12892741E+03</pdfrwt>
<pdfrwt beam="2">  1       21 0.71592665E-01 0.12892741E+03</pdfrwt>
<totfact> 0.12142376E+06</totfact>
</mgrwt>
</event>
<event>
 6    1  0.4259848E-002  0.1286417E+03  0.7546771E-02  0.1229485E+00
         21   -1    0    0  503  502  0.00000000000E+00  0.00000000000E+00  0.10391745169E+03  0.10391745169E+03  0.00000000000E+00 0. -1.
         21   -1    0    0  504  503 -0.00000000000E+00 -0.00000000000E+00 -0.61051895135E+02  0.61051895135E+02  0.00000000000E+00 0. -1.
         25    2    1    2    0    0  0.27451195374E+02 -0.13028581534E+02  0.30815016107E+02  0.13228100656E+03  0.12500154965E+03 0.  0.
          5    1    3    3  501    0 -0.27410570346E+02  0.42299309421E+02  0.75593585155E+01  0.50967880526E+02  0.10000000000E+00 0. -1.
         -5    1    3    3    0  501  0.54861765721E+02 -0.55327890954E+02  0.23255657592E+02  0.81313126034E+02  0.10000000000E+00 0. -1.
         21    1    1    2  504  502 -0.27451195374E+02  0.13028581534E+02  0.12050540451E+02  0.32688340267E+02  0.00000000000E+00 0. -1.
<mgrwt>
<rscale>  1 0.12864175E+03</rscale>
<asrwt>0</asrwt>
<pdfrwt beam="1">  1       21 0.15987300E-01 0.12864175E+03</pdfrwt>
<pdfrwt beam="2">  1       21 0.93925992E-02 0.12864175E+03</pdfrwt>
<totfact> 0.31311364E+06</totfact>
</mgrwt>
</event>
<event>
 6    1  0.4259848E-002  0.1513617E+03  0.7546771E-02  0.1198810E+00
         21   -1    0    0  503  502  0.00000000000E+00  0.00000000000E+00  0.50966485840E+02  0.50966485840E+02  0.00000000000E+00 0. -1.
         21   -1    0    0  504  503 -0.00000000000E+00 -0.00000000000E+00 -0.90103279125E+03  0.90103279125E+03  0.00000000000E+00 0. -1.
         25    2    1    2    0    0  0.85359786310E+02 -0.12114585199E+01 -0.69113267117E+02  0.16639415442E+03  0.12499044036E+03 0.  0.
          5    1    3    3  501    0  0.54419011256E+01  0.40874949898E+02  0.14103182314E+02  0.43580793573E+02  0.10000000000E+00 0.  1.
         -5    1    3    3    0  501  0.79917885185E+02 -0.42086408418E+02 -0.83216449432E+02  0.12281336084E+03  0.10000000000E+00 0.  1.
         21    1    1    2  504  502 -0.85359786310E+02  0.12114585199E+01 -0.78095303829E+03  0.78560512267E+03  0.00000000000E+00 0. -1.
<mgrwt>
<rscale>  1 0.15136172E+03</rscale>
<asrwt>0</asrwt>
<pdfrwt beam="1">  1       21 0.78409980E-02 0.15136172E+03</pdfrwt>
<pdfrwt beam="2">  1       21 0.13862043E+00 0.15136172E+03</pdfrwt>
<totfact> 0.46718045E+04</totfact>
</mgrwt>
</event>
<event>
 6    1  0.4259848E-002  0.1263936E+03  0.7546771E-02  0.1232907E+00
         21   -1    0    0  504  502  0.00000000000E+00  0.00000000000E+00  0.35584440136E+02  0.35584440136E+02  0.00000000000E+00 0. -1.
         21   -1    0    0  502  503 -0.00000000000E+00 -0.00000000000E+00 -0.14842212327E+03  0.14842212327E+03  0.00000000000E+00 0. -1.
         25    2    1    2    0    0  0.18562756640E+02 -0.22494539488E+01 -0.94483763554E+02  0.15780537372E+03  0.12500287365E+03 0.  0.
          5    1    3    3  501    0  0.31867262740E+02 -0.59338971608E+02 -0.56904796003E+02  0.88174836513E+02  0.10000000000E+00 0. -1.
         -5    1    3    3    0  501 -0.13304506100E+02  0.57089517659E+02 -0.37578967551E+02  0.69630537204E+02  0.10000000000E+00 0. -1.
         21    1    1    2  504  503 -0.18562756640E+02  0.22494539488E+01 -0.18353919575E+02  0.26201189685E+02  0.00000000000E+00 0. -1.
<mgrwt>
<rscale>  1 0.12639365E+03</rscale>
<asrwt>0</asrwt>
<pdfrwt beam="1">  1       21 0.54745293E-02 0.12639365E+03</pdfrwt>
<pdfrwt beam="2">  1       21 0.22834173E-01 0.12639365E+03</pdfrwt>
<totfact> 0.40925758E+06</totfact>
</mgrwt>
</event>
<event>
 6    1  0.4259848E-002  0.1268011E+03  0.7546771E-02  0.1232281E+00
         21   -1    0    0  503  502  0.00000000000E+00  0.00000000000E+00  0.22181018742E+03  0.22181018742E+03  0.00000000000E+00 0. -1.
         21   -1    0    0  504  503 -0.00000000000E+00 -0.00000000000E+00 -0.29385118576E+02  0.29385118576E+02  0.00000000000E+00 0. -1.
         25    2    1    2    0    0  0.11893435711E+02 -0.17653599605E+02  0.19176807830E+03  0.22989894413E+03  0.12500170105E+03 0.  0.
          5    1    3    3  501    0  0.38041286315E+02 -0.63461313915E+02  0.11559766911E+03  0.13724907626E+03  0.10000000000E+00 0.  1.
         -5    1    3    3    0  501 -0.26147850604E+02  0.45807714310E+02  0.76170409188E+02  0.92649867876E+02  0.10000000000E+00 0.  1.
         21    1    1    2  504  502 -0.11893435711E+02  0.17653599605E+02  0.65699053964E+00  0.21296361863E+02  0.00000000000E+00 0. -1.
<mgrwt>
<rscale>  1 0.12680114E+03</rscale>
<asrwt>0</asrwt>
<pdfrwt beam="1">  1       21 0.34124643E-01 0.12680114E+03</pdfrwt>
<pdfrwt beam="2">  1       21 0.45207876E-02 0.12680114E+03</pdfrwt>
<totfact> 0.26172249E+06</totfact>
</mgrwt>
</event>
<event>
 6    1  0.4259848E-002  0.1318340E+03  0.7546771E-02  0.1224760E+00
         21   -1    0    0  504  502  0.00000000000E+00  0.00000000000E+00  0.48000725986E+03  0.48000725986E+03  0.00000000000E+00 0.  1.
         21   -1    0    0  502  503 -0.00000000000E+00 -0.00000000000E+00 -0.16352119120E+02  0.16352119120E+02  0.00000000000E+00 0.  1.
         25    2    1    2    0    0  0.17320621151E+02  0.38164263306E+02  0.30522188180E+03  0.33247645598E+03  0.12499472687E+03 0.  0.
          5    1    3    3  501    0  0.28879779867E+01  0.77253021567E+02  0.12089870504E+03  0.14350218339E+03  0.10000000000E+00 0.  1.
         -5    1    3    3    0  501  0.14432643164E+02 -0.39088758261E+02  0.18432317676E+03  0.18897427259E+03  0.10000000000E+00 0.  1.
         21    1    1    2  504  503 -0.17320621151E+02 -0.38164263306E+02  0.15843325894E+03  0.16388292299E+03  0.00000000000E+00 0.  1.
<mgrwt>
<rscale>  1 0.13183397E+03</rscale>
<asrwt>0</asrwt>
<pdfrwt beam="1">  1       21 0.73847260E-01 0.13183397E+03</pdfrwt>
<pdfrwt beam="2">  1       21 0.25157110E-02 0.13183397E+03</pdfrwt>
<totfact> 0.13931684E+06</totfact>
</mgrwt>
</event>
<event>
 6    1  0.4259848E-002  0.1273231E+03  0.7546771E-02  0.1231483E+00
         21   -1    0    0  503  502  0.00000000000E+00  0.00000000000E+00  0.35253157306E+02  0.35253157306E+02  0.00000000000E+00 0. -1.
         21   -1    0    0  504  503 -0.00000000000E+00 -0.00000000000E+00 -0.18744242223E+03  0.18744242223E+03  0.00000000000E+00 0. -1.
         25    2    1    2    0    0 -0.32015030499E+00  0.24209998872E+02 -0.89890452004E+02  0.15585720259E+03  0.12499979078E+03 0.  0.
          5    1    3    3  501    0 -0.31883880791E+02 -0.12349041457E+02 -0.10071403659E+03  0.10635980372E+03  0.10000000000E+00 0.  1.
         -5    1    3    3    0  501  0.31563730486E+02  0.36559040328E+02  0.10823584590E+02  0.49497398874E+02  0.10000000000E+00 0.  1.
         21    1    1    2  504  502  0.32015030499E+00 -0.24209998872E+02 -0.62298812922E+02  0.66838376948E+02  0.00000000000E+00 0.  1.
<mgrwt>
<rscale>  1 0.12732311E+03</rscale>
<asrwt>0</asrwt>
<pdfrwt beam="1">  1       21 0.54235627E-02 0.12732311E+03</pdfrwt>
<pdfrwt beam="2">  1       21 0.28837296E-01 0.12732311E+03</pdfrwt>
<totfact> 0.26725023E+06</totfact>
</mgrwt>
</event>
<event>
 6    1  0.4259848E-002  0.1436842E+03  0.7546771E-02  0.1208456E+00
         21   -1    0    0  504  502  0.00000000000E+00  0.00000000000E+00  0.87792897973E+02  0.87792897973E+02  0.00000000000E+00 0. -1.
         21   -1    0    0  502  503 -0.00000000000E+00 -0.00000000000E+00 -0.31311878211E+03  0.31311878211E+03  0.00000000000E+00 0. -1.
         25    2    1    2    0    0 -0.53283600824E+02 -0.46692396067E+02  0.20446541313E+02  0.14513168267E+03  0.12500328913E+03 0.  0.
          5    1    3    3  501    0 -0.49073008319E+02 -0.48485431968E+01  0.66484966047E+02  0.82776380852E+02  0.10000000000E+00 0. -1.
         -5    1    3    3    0  501 -0.42105925048E+01 -0.41843852870E+02 -0.46038424734E+02  0.62355301814E+02  0.10000000000E+00 0. -1.
         21    1    1    2  504  503  0.53283600824E+02  0.46692396067E+02 -0.24577242545E+03  0.25577999741E+03  0.00000000000E+00 0. -1.
<mgrwt>
<rscale>  1 0.14368418E+03</rscale>
<asrwt>0</asrwt>
<pdfrwt beam="1">  1       21 0.13506600E-01 0.14368418E+03</pdfrwt>
<pdfrwt beam="2">  1       21 0.48172120E-01 0.14368418E+03</pdfrwt>
<totfact> 0.19807426E+05</totfact>
</mgrwt>
</event>
<event>
 6    1  0.4259848E-002  0.1259437E+03  0.7546771E-02  0.1233602E+00
         21   -1    0    0  504  502  0.00000000000E+00  0.00000000000E+00  0.27686358966E+02  0.27686358966E+02  0.00000000000E+00 0. -1.
         21   -1    0    0  502  503 -0.00000000000E+00 -0.00000000000E+00 -0.18692721183E+03  0.18692721183E+03  0.00000000000E+00 0. -1.
         25    2    1    2    0    0  0.34392736681E+01  0.15213973489E+02 -0.12732803215E+03  0.17909284841E+03  0.12497410527E+03 0.  0.
          5    1    3    3  501    0 -0.10551398665E+02  0.38071325351E+02 -0.14278892149E+03  0.14815344723E+03  0.10000000000E+00 0.  1.
         -5    1    3    3    0  501  0.13990672333E+02 -0.22857351861E+02  0.15460889334E+02  0.30939401181E+02  0.10000000000E+00 0.  1.
         21    1    1    2  504  503 -0.34392736681E+01 -0.15213973489E+02 -0.31912820709E+02  0.35520722379E+02  0.00000000000E+00 0. -1.
<mgrwt>
<rscale>  1 0.12594372E+03</rscale>
<asrwt>0</asrwt>
<pdfrwt beam="1">  1       21 0.42594399E-02 0.12594372E+03</pdfrwt>
<pdfrwt beam="2">  1       21 0.28758032E-01 0.12594372E+03</pdfrwt>
<totfact> 0.40257438E+06</totfact>
</mgrwt>
</event>
<event>
 6    1  0.4259848E-002  0.1285873E+03  0.7546771E-02  0.1229567E+00
         21   -1    0    0  503  502  0.00000000000E+00  0.00000000000E+00  0.47441698562E+02  0.47441698562E+02  0.00000000000E+00 0.  1.
         21   -1    0    0  504  503 -0.00000000000E+00 -0.00000000000E+00 -0.15161511776E+03  0.15161511776E+03  0.00000000000E+00 0.  1.
         25    2    1    2    0    0 -0.42965950764E+01 -0.29861249331E+02 -0.51826628172E+02  0.13863876048E+03  0.12499820630E+03 0.  0.
          5    1    3    3  501    0  0.43351075526E+02 -0.58874366708E+01  0.20870773659E+02  0.48472433949E+02  0.10000000000E+00 0. -1.
         -5    1    3    3    0  501 -0.47647670603E+02 -0.23973812660E+02 -0.72697401831E+02  0.90166326532E+02  0.10000000000E+00 0. -1.
         21    1    1    2  504  502  0.42965950764E+01  0.29861249331E+02 -0.52346791021E+02  0.60418055837E+02  0.00000000000E+00 0.  1.
<mgrwt>
<rscale>  1 0.12858735E+03</rscale>
<asrwt>0</asrwt>
<pdfrwt beam="1">  1       21 0.72987230E-02 0.12858735E+03</pdfrwt>
<pdfrwt beam="2">  1       21 0.23325402E-01 0.12858735E+03</pdfrwt>
<totfact> 0.24132495E+06</totfact>
</mgrwt>
</event>
<event>
 6    1  0.4259848E-002  0.1259357E+03  0.7546771E-02  0.1233614E+00
         21   -1    0    0  504  502  0.00000000000E+00  0.00000000000E+00  0.84510333004E+03  0.84510333004E+03  0.00000000000E+00 0. -1.
         21   -1    0    0  502  503 -0.00000000000E+00 -0.00000000000E+00 -0.60462228351E+01  0.60462228351E+01  0.00000000000E+00 0. -1.
         25    2    1    2    0    0  0.92620154356E+01  0.12218980441E+02  0.78165327443E+03  0.79173332252E+03  0.12499889656E+03 0.  0.
          5    1    3    3  501    0  0.64479512937E+02  0.14713578900E+02  0.52809639266E+03  0.53222167086E+03  0.10000000000E+00 0.  1.
         -5    1    3    3    0  501 -0.55217497501E+02 -0.24945984587E+01  0.25355688177E+03  0.25951165166E+03  0.10000000000E+00 0.  1.
         21    1    1    2  504  503 -0.92620154356E+01 -0.12218980441E+02  0.57403832776E+02  0.59416230361E+02  0.00000000000E+00 0.  1.
<mgrwt>
<rscale>  1 0.12593575E+03</rscale>
<asrwt>0</asrwt>
<pdfrwt beam="1">  1       21 0.13001580E+00 0.12593575E+03</pdfrwt>
<pdfrwt beam="2">  1       21 0.93018879E-03 0.12593575E+03</pdfrwt>
<totfact> 0.18248723E+06</totfact>
</mgrwt>
</event>
<event>
 6    1  0.4259848E-002  0.1259929E+03  0.7546771E-02  0.1233526E+00
         21   -1    0    0  503  502  0.00000000000E+00  0.00000000000E+00  0.86625883233E+03  0.86625883233E+03  0.00000000000E+00 0. -1.
         21   -1    0    0  504  503 -0.00000000000E+00 -0.00000000000E+00 -0.58442598874E+01  0.58442598874E+01  0.00000000000E+00 0. -1.
         25    2    1    2    0    0 -0.15422833801E+02 -0.33921804542E+01  0.73857792124E+03  0.74924732203E+03  0.12499933257E+03 0.  0.
          5    1    3    3  501    0 -0.14437713983E+02 -0.23257065455E+02  0.72417085310E+03  0.72468805230E+03  0.10000000000E+00 0. -1.
         -5    1    3    3    0  501 -0.98511981866E+00  0.19864885001E+02  0.14407068140E+02  0.24559269728E+02  0.10000000000E+00 0. -1.
         21    1    1    2  504  502  0.15422833801E+02  0.33921804542E+01  0.12183665121E+03  0.12285577019E+03  0.00000000000E+00 0. -1.
<mgrwt>
<rscale>  1 0.12599287E+03</rscale>
<asrwt>0</asrwt>
<pdfrwt beam="1">  1       21 0.13327049E+00 0.12599287E+03</pdfrwt>
<pdfrwt beam="2">  1       21 0.89911759E-03 0.12599287E+03</pdfrwt>
<totfact> 0.18099307E+06</totfact>
</mgrwt>
</event>
<event>
 6    1  0.4259848E-002  0.1267941E+03  0.7546771E-02  0.1232292E+00
         21   -1    0    0  504  502  0.00000000000E+00  0.00000000000E+00  0.46207560254E+02  0.46207560254E+02  0.00000000000E+00 0. -1.
         21   -1    0    0  502  503 -0.00000000000E+00 -0.00000000000E+00 -0.12122338880E+03  0.12122338880E+03  0.00000000000E+00 0. -1.
         25    2    1    2    0    0 -0.16262469142E+02  0.13689882330E+02 -0.54916702463E+02  0.13817593837E+03  0.12499945981E+03 0.  0.
          5    1    3    3  501    0 -0.95447755432E+01  0.16420687970E+02 -0.95285917785E+02  0.97160474792E+02  0.10000000000E+00 0.  1.
         -5    1    3    3    0  501 -0.67176935988E+01 -0.27308056398E+01  0.40369215322E+02  0.41015463577E+02  0.10000000000E+00 0.  1.
         21    1    1    2  504  503  0.16262469142E+02 -0.13689882330E+02 -0.20099126080E+02  0.29255010682E+02  0.00000000000E+00 0. -1.
<mgrwt>
<rscale>  1 0.12679411E+03</rscale>
<asrwt>0</asrwt>
<pdfrwt beam="1">  1       21 0.71088555E-02 0.12679411E+03</pdfrwt>
<pdfrwt beam="2">  1       21 0.18649752E-01 0.12679411E+03</pdfrwt>
<totfact> 0.38219924E+06</totfact>
</mgrwt>
</event>
<event>
 6    1  0.4259848E-002  0.1284940E+03  0.7546771E-02  0.1229708E+00
         21   -1    0    0  503  502  0.00000000000E+00  0.00000000000E+00  0.11073957920E+04  0.11073957920E+04  0.00000000000E+00 0.  1.
         21   -1    0    0  504  503 -0.00000000000E+00 -0.00000000000E+00 -0.25277701719E+02  0.25277701719E+02  0.00000000000E+00 0.  1.
         25    2    1    2    0    0 -0.44435242804E+01 -0.29444380319E+02  0.10933300997E+04  0.11008548578E+04  0.12499597796E+03 0.  0.
          5    1    3    3  501    0 -0.32146502242E+02 -0.71173991138E+02  0.62831830523E+03  0.63315324947E+03  0.10000000000E+00 0. -1.
         -5    1    3    3    0  501  0.27702977961E+02  0.41729610818E+02  0.46501179448E+03  0.46770160831E+03  0.10000000000E+00 0. -1.
         21    1    1    2  504  502  0.44435242804E+01  0.29444380319E+02 -0.11212009402E+02  0.31818635974E+02  0.00000000000E+00 0.  1.
<mgrwt>
<rscale>  1 0.12849401E+03</rscale>
<asrwt>0</asrwt>
<pdfrwt beam="1">  1       21 0.17036855E+00 0.12849401E+03</pdfrwt>
<pdfrwt beam="2">  1       21 0.38888780E-02 0.12849401E+03</pdfrwt>
<totfact> 0.90321486E+04</totfact>
</mgrwt>
</event>
<event>
 6    1  0.4259848E-002  0.1295062E+03  0.7546771E-02  0.1228190E+00
         21   -1    0    0  504  502  0.00000000000E+00  0.00000000000E+00  0.13933205036E+04  0.13933205036E+04  0.00000000000E+00 0.  1.
         21   -1    0    0  502  503 -0.00000000000E+00 -0.00000000000E+00 -0.22798165144E+02  0.22798165144E+02  0.00000000000E+00 0.  1.
         25    2    1    2    0    0  0.29320477686E+02 -0.16955279911E+02  0.13757635857E+04  0.13818456093E+04  0.12499868912E+03 0.  0.
          5    1    3    3  501    0  0.42195880656E+02 -0.63587105111E+02  0.64849415642E+03  0.65296898333E+03  0.10000000000E+00 0. -1.
         -5    1    3    3    0  501 -0.12875402970E+02  0.46631825200E+02  0.72726942932E+03  0.72887662601E+03  0.10000000000E+00 0. -1.
         21    1    1    2  504  503 -0.29320477686E+02  0.16955279911E+02 -0.52412472713E+01  0.34273059413E+02  0.00000000000E+00 0.  1.
<mgrwt>
<rscale>  1 0.12950616E+03</rscale>
<asrwt>0</asrwt>
<pdfrwt beam="1">  1       21 0.21435693E+00 0.12950616E+03</pdfrwt>
<pdfrwt beam="2">  1       21 0.35074111E-02 0.12950616E+03</pdfrwt>
<totfact> 0.55753721E+04</totfact>
</mgrwt>
</event>
<event>
 6    1  0.4259848E-002  0.1304420E+03  0.7546771E-02  0.1226801E+00
         21   -1    0    0  504  502  0.00000000000E+00  0.00000000000E+00  0.47536081513E+02  0.47536081513E+02  0.00000000000E+00 0.  1.
         21   -1    0    0  502  503 -0.00000000000E+00 -0.00000000000E+00 -0.18632679698E+03  0.18632679698E+03  0.00000000000E+00 0.  1.
         25    2    1    2    0    0  0.89894194720E+01  0.36179386535E+02 -0.53885217703E+02  0.14113369634E+03  0.12500138352E+03 0.  0.
          5    1    3    3  501    0 -0.51131343359E+02  0.28456854094E+01  0.38592436796E+01  0.51355778262E+02  0.10000000000E+00 0. -1.
         -5    1    3    3    0  501  0.60120762831E+02  0.33333701126E+02 -0.57744461383E+02  0.89777918078E+02  0.10000000000E+00 0. -1.
         21    1    1    2  504  503 -0.89894194720E+01 -0.36179386535E+02 -0.84905497767E+02  0.92729182157E+02  0.00000000000E+00 0.  1.
<mgrwt>
<rscale>  1 0.13044195E+03</rscale>
<asrwt>0</asrwt>
<pdfrwt beam="1">  1       21 0.73132433E-02 0.13044195E+03</pdfrwt>
<pdfrwt beam="2">  1       21 0.28665661E-01 0.13044195E+03</pdfrwt>
<totfact> 0.16271796E+06</totfact>
</mgrwt>
</event>
<event>
 6    1  0.4259848E-002  0.1299206E+03  0.7546771E-02  0.1227574E+00
         21   -1    0    0  503  502  0.00000000000E+00  0.00000000000E+00  0.13347355039E+02  0.13347355039E+02  0.00000000000E+00 0. -1.
         21   -1    0    0  504  503 -0.00000000000E+00 -0.00000000000E+00 -0.53864788535E+03  0.53864788535E+03  0.00000000000E+00 0. -1.
         25    2    1    2    0    0 -0.33744462922E+02 -0.10731888553E+02 -0.35436743848E+03  0.37743297616E+03  0.12500203130E+03 0.  0.
          5    1    3    3  501    0 -0.45988448278E+02 -0.37702331137E+02 -0.71407950199E+02  0.92927436744E+02  0.10000000000E+00 0. -1.
         -5    1    3    3    0  501  0.12243985356E+02  0.26970442584E+02 -0.28295948828E+03  0.28450553942E+03  0.10000000000E+00 0. -1.
         21    1    1    2  504  502  0.33744462922E+02  0.10731888553E+02 -0.17093309183E+03  0.17456226423E+03  0.00000000000E+00 0. -1.
<mgrwt>
<rscale>  1 0.12992063E+03</rscale>
<asrwt>0</asrwt>
<pdfrwt beam="1">  1       21 0.20534392E-02 0.12992063E+03</pdfrwt>
<pdfrwt beam="2">  1       21 0.82868907E-01 0.12992063E+03</pdfrwt>
<totfact> 0.14981455E+06</totfact>
</mgrwt>
</event>
<event>
 6    1  0.4259848E-002  0.1266394E+03  0.7546771E-02  0.1232529E+00
         21   -1    0    0  504  502  0.00000000000E+00  0.00000000000E+00  0.26643833775E+02  0.26643833775E+02  0.00000000000E+00 0. -1.
         21   -1    0    0  502  503 -0.00000000000E+00 -0.00000000000E+00 -0.39850298938E+03  0.39850298938E+03  0.00000000000E+00 0. -1.
         25    2    1    2    0    0  0.17953519615E+02  0.95306145609E+01 -0.12667066934E+03  0.17911724104E+03  0.12499746432E+03 0.  0.
          5    1    3    3  501    0 -0.16465631571E+02  0.49031171846E+02 -0.11404393086E+03  0.12522460222E+03  0.10000000000E+00 0.  1.
         -5    1    3    3    0  501  0.34419151186E+02 -0.39500557285E+02 -0.12626738486E+02  0.53892638820E+02  0.10000000000E+00 0.  1.
         21    1    1    2  504  503 -0.17953519615E+02 -0.95306145609E+01 -0.24518848627E+03  0.24602958212E+03  0.00000000000E+00 0. -1.
<mgrwt>
<rscale>  1 0.12663936E+03</rscale>
<asrwt>0</asrwt>
<pdfrwt beam="1">  1       21 0.40990511E-02 0.12663936E+03</pdfrwt>
<pdfrwt beam="2">  1       21 0.61308155E-01 0.12663936E+03</pdfrwt>
<totfact> 0.93349630E+05</totfact>
</mgrwt>
</event>
<event>
 6    1  0.4259848E-002  0.1395887E+03  0.7546771E-02  0.1213884E+00
         21   -1    0    0  503  502  0.00000000000E+00  0.00000000000E+00  0.24013246523E+03  0.24013246523E+03  0.00000000000E+00 0.  1.
         21   -1    0    0  504  503 -0.00000000000E+00 -0.00000000000E+00 -0.42362109969E+02  0.42362109969E+02  0.00000000000E+00 0.  1.
         25    2    1    2    0    0 -0.57385821916E+02  0.23799532778E+02  0.13605243815E+03  0.19492373753E+03  0.12500178882E+03 0.  0.
          5    1    3    3  501    0 -0.52669068028E+02  0.29268735885E+02  0.15944016554E+03  0.17044607950E+03  0.10000000000E+00 0.  1.
         -5    1    3    3    0  501 -0.47167538882E+01 -0.54692031069E+01 -0.23387727397E+02  0.24477658031E+02  0.10000000000E+00 0.  1.
         21    1    1    2  504  502  0.57385821916E+02 -0.23799532778E+02  0.61717917112E+02  0.87570837670E+02  0.00000000000E+00 0.  1.
<mgrwt>
<rscale>  1 0.13958867E+03</rscale>
<asrwt>0</asrwt>
<pdfrwt beam="1">  1       21 0.36943455E-01 0.13958867E+03</pdfrwt>
<pdfrwt beam="2">  1       21 0.65172478E-02 0.13958867E+03</pdfrwt>
<totfact> 0.12096437E+06</totfact>
</mgrwt>
</event>
<event>
 6    1  0.4259848E-002  0.1785364E+03  0.7546771E-02  0.1169227E+00
         21   -1    0    0  504  502  0.00000000000E+00  0.00000000000E+00  0.81535081545E+03  0.81535081545E+03  0.00000000000E+00 0. -1.
         21   -1    0    0  502  503 -0.00000000000E+00 -0.00000000000E+00 -0.60328138675E+02  0.60328138675E+02  0.00000000000E+00 0. -1.
         25    2    1    2    0    0 -0.77796300006E+02  0.10099385337E+03  0.72233442478E+03  0.74407141433E+03  0.12499290260E+03 0.  0.
          5    1    3    3  501    0  0.73298265129E+00 -0.22700120687E+02  0.38354768615E+02  0.44575004412E+02  0.10000000000E+00 0.  1.
         -5    1    3    3    0  501 -0.78529282658E+02  0.12369397405E+03  0.68397965616E+03  0.69949640992E+03  0.10000000000E+00 0.  1.
         21    1    1    2  504  503  0.77796300006E+02 -0.10099385337E+03  0.32688252004E+02  0.13160753980E+03  0.00000000000E+00 0. -1.
<mgrwt>
<rscale>  1 0.17853641E+03</rscale>
<asrwt>0</asrwt>
<pdfrwt beam="1">  1       21 0.12543858E+00 0.17853641E+03</pdfrwt>
<pdfrwt beam="2">  1       21 0.92812526E-02 0.17853641E+03</pdfrwt>
<totfact> 0.44097665E+04</totfact>
</mgrwt>
</event>
<event>
 6    1  0.4259848E-002  0.1270498E+03  0.7546771E-02  0.1231900E+00
         21   -1    0    0  504  502  0.00000000000E+00  0.00000000000E+00  0.16371817530E+04  0.16371817530E+04  0.00000000000E+00 0.  1.
         21   -1    0    0  502  503 -0.00000000000E+00 -0.00000000000E+00 -0.46724134163E+02  0.46724134163E+02  0.00000000000E+00 0.  1.
         25    2    1    2    0    0 -0.22701591043E+02 -0.51781208172E+00  0.16317996638E+04  0.16367381540E+04  0.12500404657E+03 0.  0.
          5    1    3    3  501    0 -0.70311060482E+02 -0.11607081616E+01  0.65177240516E+03  0.65555493332E+03  0.10000000000E+00 0. -1.
         -5    1    3    3    0  501  0.47609469439E+02  0.64289607988E+00  0.98002725861E+03  0.98118322067E+03  0.10000000000E+00 0. -1.
         21    1    1    2  504  503  0.22701591043E+02  0.51781208172E+00 -0.41342044983E+02  0.47167733130E+02  0.00000000000E+00 0.  1.
<mgrwt>
<rscale>  1 0.12704976E+03</rscale>
<asrwt>0</asrwt>
<pdfrwt beam="1">  1       21 0.25187407E+00 0.12704976E+03</pdfrwt>
<pdfrwt beam="2">  1       21 0.71883296E-02 0.12704976E+03</pdfrwt>
<totfact> 0.10078446E+04</totfact>
</mgrwt>
</event>
<event>
 6    1  0.4259848E-002  0.1456612E+03  0.7546771E-02  0.1205908E+00
         21   -1    0    0  504  502  0.00000000000E+00  0.00000000000E+00  0.51729210720E+02  0.51729210720E+02  0.00000000000E+00 0.  1.
         21   -1    0    0  502  503 -0.00000000000E+00 -0.00000000000E+00 -0.46872650615E+03  0.46872650615E+03  0.00000000000E+00 0.  1.
         25    2    1    2    0    0 -0.13040020455E+02  0.73635783975E+02 -0.63095786496E+02  0.15873960050E+03  0.12499964671E+03 0.  0.
          5    1    3    3  501    0 -0.61906546239E+02  0.73560739486E+02 -0.48830234601E+02  0.10783322620E+03  0.10000000000E+00 0. -1.
         -5    1    3    3    0  501  0.48866525784E+02  0.75044488650E-01 -0.14265551895E+02  0.50906374304E+02  0.10000000000E+00 0. -1.
         21    1    1    2  504  503  0.13040020455E+02 -0.73635783975E+02 -0.35390150894E+03  0.36171611637E+03  0.00000000000E+00 0.  1.
<mgrwt>
<rscale>  1 0.14566119E+03</rscale>
<asrwt>0</asrwt>
<pdfrwt beam="1">  1       21 0.79583397E-02 0.14566119E+03</pdfrwt>
<pdfrwt beam="2">  1       21 0.72111774E-01 0.14566119E+03</pdfrwt>
<totfact> 0.21298166E+05</totfact>
</mgrwt>
</event>
<event>
 6    1  0.4259848E-002  0.1283951E+03  0.7546771E-02  0.1229857E+00
         21   -1    0    0  504  502  0.00000000000E+00  0.00000000000E+00  0.93175264995E+02  0.93175264995E+02  0.00000000000E+00 0.  1.
         21   -1    0    0  502  503 -0.00000000000E+00 -0.00000000000E+00 -0.66951964940E+02  0.66951964940E+02  0.00000000000E+00 0.  1.
         25    2    1    2    0    0  0.18333199355E+02 -0.22874409146E+02  0.24869154961E+02  0.13078138694E+03  0.12500380597E+03 0.  0.
          5    1    3    3  501    0  0.10574579583E+02 -0.25539995563E+02 -0.49106476530E+02  0.56352188457E+02  0.10000000000E+00 0. -1.
         -5    1    3    3    0  501  0.77586197724E+01  0.26655864168E+01  0.73975631491E+02  0.74429198479E+02  0.10000000000E+00 0. -1.
         21    1    1    2  504  503 -0.18333199355E+02  0.22874409146E+02  0.13541450935E+01  0.29345842999E+02  0.00000000000E+00 0.  1.
<mgrwt>
<rscale>  1 0.12839508E+03</rscale>
<asrwt>0</asrwt>
<pdfrwt beam="1">  1       21 0.14334656E-01 0.12839508E+03</pdfrwt>
<pdfrwt beam="2">  1       21 0.10300302E-01 0.12839508E+03</pdfrwt>
<totfact> 0.32444987E+06</totfact>
</mgrwt>
</event>
<event>
 6    1  0.4259848E-002  0.1261568E+03  0.7546771E-02  0.1233272E+00
         21   -1    0    0  504  502  0.00000000000E+00  0.00000000000E+00  0.29596787543E+03  0.29596787543E+03  0.00000000000E+00 0. -1.
         21   -1    0    0  502  503 -0.00000000000E+00 -0.00000000000E+00 -0.17643720239E+02  0.17643720239E+02  0.00000000000E+00 0. -1.
         25    2    1    2    0    0 -0.18514684966E+01  0.16946577776E+02  0.22938271392E+03  0.26178612792E+03  0.12499973156E+03 0.  0.
          5    1    3    3  501    0  0.23786619961E+02  0.60544542897E+02  0.17875517982E+03  0.19022320909E+03  0.10000000000E+00 0.  1.
         -5    1    3    3    0  501 -0.25638088458E+02 -0.43597965120E+02  0.50627534108E+02  0.71562918835E+02  0.10000000000E+00 0.  1.
         21    1    1    2  504  503  0.18514684966E+01 -0.16946577776E+02  0.48941441266E+02  0.51825467746E+02  0.00000000000E+00 0. -1.
<mgrwt>
<rscale>  1 0.12615684E+03</rscale>
<asrwt>0</asrwt>
<pdfrwt beam="1">  1       21 0.45533516E-01 0.12615684E+03</pdfrwt>
<pdfrwt beam="2">  1       21 0.27144187E-02 0.12615684E+03</pdfrwt>
<totfact> 0.34167195E+06</totfact>
</mgrwt>
</event>
<event>
 6    1  0.4259848E-002  0.1267985E+03  0.7546771E-02  0.1232285E+00
         21   -1    0    0  504  502  0.00000000000E+00  0.00000000000E+00  0.75947759992E+03  0.75947759992E+03  0.00000000000E+00 0.  1.
         21   -1    0    0  502  503 -0.00000000000E+00 -0.00000000000E+00 -0.11559470387E+02  0.11559470387E+02  0.00000000000E+00 0.  1.
         25    2    1    2    0    0 -0.12302669117E+02  0.17347621137E+02  0.73562394029E+03  0.74647199926E+03  0.12500227406E+03 0.  0.
          5    1    3    3  501    0  0.11765309490E+02  0.60284493663E+02  0.21723532254E+03  0.22575171769E+03  0.10000000000E+00 0.  1.
         -5    1    3    3    0  501 -0.24067978607E+02 -0.42936872526E+02  0.51838861776E+03  0.52072028157E+03  0.10000000000E+00 0.  1.
         21    1    1    2  504  503  0.12302669117E+02 -0.17347621137E+02  0.12294189243E+02  0.24565071050E+02  0.00000000000E+00 0. -1.
<mgrwt>
<rscale>  1 0.12679852E+03</rscale>
<asrwt>0</asrwt>
<pdfrwt beam="1">  1       21 0.11684267E+00 0.12679852E+03</pdfrwt>
<pdfrwt beam="2">  1       21 0.17783806E-02 0.12679852E+03</pdfrwt>
<totfact> 0.84750777E+05</totfact>
</mgrwt>
</event>
<event>
 6    1  0.4259848E-002  0.1274835E+03  0.7546771E-02  0.1231238E+00
         21   -1    0    0  504  502  0.00000000000E+00  0.00000000000E+00  0.19530544730E+02  0.19530544730E+02  0.00000000000E+00 0.  1.
         21   -1    0    0  502  503 -0.00000000000E+00 -0.00000000000E+00 -0.31614201417E+03  0.31614201417E+03  0.00000000000E+00 0.  1.
         25    2    1    2    0    0 -0.20632877028E+02  0.14169800455E+02 -0.21143231199E+03  0.24689199952E+03  0.12500215204E+03 0.  0.
          5    1    3    3  501    0 -0.28264966955E+02  0.31671579571E+02 -0.22134474349E+03  0.22537857657E+03  0.10000000000E+00 0.  1.
         -5    1    3    3    0  501  0.76320899266E+01 -0.17501779116E+02  0.99124314958E+01  0.21513422950E+02  0.10000000000E+00 0.  1.
         21    1    1    2  504  503  0.20632877028E+02 -0.14169800455E+02 -0.85179157453E+02  0.88780559380E+02  0.00000000000E+00 0.  1.
<mgrwt>
<rscale>  1 0.12748348E+03</rscale>
<asrwt>0</asrwt>
<pdfrwt beam="1">  1       21 0.30046994E-02 0.12748348E+03</pdfrwt>
<pdfrwt beam="2">  1       21 0.48637230E-01 0.12748348E+03</pdfrwt>
<totfact> 0.25295868E+06</totfact>
</mgrwt>
</event>
<event>
 6    1  0.4259848E-002  0.1265720E+03  0.7546771E-02  0.1232633E+00
         21   -1    0    0  504  502  0.00000000000E+00  0.00000000000E+00  0.15677848446E+03  0.15677848446E+03  0.00000000000E+00 0.  1.
         21   -1    0    0  502  503 -0.00000000000E+00 -0.00000000000E+00 -0.48112630932E+02  0.48112630932E+02  0.00000000000E+00 0.  1.
         25    2    1    2    0    0 -0.17964032586E+02  0.85965782512E+01  0.12592137279E+03  0.17854039302E+03  0.12499548867E+03 0.  0.
          5    1    3    3  501    0  0.24386521223E+02 -0.30912617721E+02  0.11235478637E+03  0.11905419091E+03  0.10000000000E+00 0. -1.
         -5    1    3    3    0  501 -0.42350553810E+02  0.39509195972E+02  0.13566586420E+02  0.59486202110E+02  0.10000000000E+00 0. -1.
         21    1    1    2  504  503  0.17964032586E+02 -0.85965782512E+01 -0.17255519267E+02  0.26350722373E+02  0.00000000000E+00 0.  1.
<mgrwt>
<rscale>  1 0.12657203E+03</rscale>
<asrwt>0</asrwt>
<pdfrwt beam="1">  1       21 0.24119767E-01 0.12657203E+03</pdfrwt>
<pdfrwt beam="2">  1       21 0.74019433E-02 0.12657203E+03</pdfrwt>
<totfact> 0.22110360E+06</totfact>
</mgrwt>
</event>
<event>
 6    1  0.4259848E-002  0.1281696E+03  0.7546771E-02  0.1230197E+00
         21   -1    0    0  504  502  0.00000000000E+00  0.00000000000E+00  0.39588727662E+03  0.39588727662E+03  0.00000000000E+00 0. -1.
         21   -1    0    0  502  503 -0.00000000000E+00 -0.00000000000E+00 -0.43363834103E+02  0.43363834103E+02  0.00000000000E+00 0. -1.
         25    2    1    2    0    0  0.27234363976E+02 -0.76771538679E+01  0.37925383339E+03  0.40032601511E+03  0.12500719561E+03 0.  0.
          5    1    3    3  501    0 -0.46311424279E+02  0.18730595274E+02  0.15442130051E+03  0.16230074328E+03  0.10000000000E+00 0.  1.
         -5    1    3    3    0  501  0.73545788255E+02 -0.26407749142E+02  0.22483253288E+03  0.23802527182E+03  0.10000000000E+00 0.  1.
         21    1    1    2  504  503 -0.27234363976E+02  0.76771538679E+01 -0.26730390875E+02  0.38925095620E+02  0.00000000000E+00 0. -1.
<mgrwt>
<rscale>  1 0.12816961E+03</rscale>
<asrwt>0</asrwt>
<pdfrwt beam="1">  1       21 0.60905733E-01 0.12816961E+03</pdfrwt>
<pdfrwt beam="2">  1       21 0.66713593E-02 0.12816961E+03</pdfrwt>
<totfact> 0.41697494E+05</totfact>
</mgrwt>
</event>
<event>
 6    1  0.4259848E-002  0.1285981E+03  0.7546771E-02  0.1229551E+00
         21   -1    0    0  503  502  0.00000000000E+00  0.00000000000E+00  0.49097622000E+03  0.49097622000E+03  0.00000000000E+00 0.  1.
         21   -1    0    0  504  503 -0.00000000000E+00 -0.00000000000E+00 -0.28648370815E+02  0.28648370815E+02  0.00000000000E+00 0.  1.
         25    2    1    2    0    0  0.30214131612E+02 -0.65240922464E+00  0.47095449360E+03  0.48819628541E+03  0.12499663457E+03 0.  0.
          5    1    3    3  501    0 -0.12666556220E+02  0.51635228332E+02  0.29385244836E+03  0.29862335786E+03  0.10000000000E+00 0.  1.
         -5    1    3    3    0  501  0.42880687832E+02 -0.52287637557E+02  0.17710204525E+03  0.18957292755E+03  0.10000000000E+00 0.  1.
         21    1    1    2  504  502 -0.30214131612E+02  0.65240922464E+00 -0.86266444188E+01  0.31428305408E+02  0.00000000000E+00 0.  1.
<mgrwt>
<rscale>  1 0.12859813E+03</rscale>
<asrwt>0</asrwt>
<pdfrwt beam="1">  1       21 0.75534797E-01 0.12859813E+03</pdfrwt>
<pdfrwt beam="2">  1       21 0.44074420E-02 0.12859813E+03</pdfrwt>
<totfact> 0.52602584E+05</totfact>
</mgrwt>
</event>
<event>
 6    1  0.4259848E-002  0.1301891E+03  0.7546771E-02  0.1227175E+00
         21   -1    0    0  503  502  0.00000000000E+00  0.00000000000E+00  0.36559144500E+02  0.36559144500E+02  0.00000000000E+00 0.  1.
         21   -1    0    0  504  503 -0.00000000000E+00 -0.00000000000E+00 -0.19001909586E+03  0.19001909586E+03  0.00000000000E+00 0.  1.
         25    2    1    2    0    0 -0.94741896833E+01 -0.35125451109E+02 -0.12352816260E+03  0.17946699367E+03  0.12500254909E+03 0.  0.
          5    1    3    3  501    0  0.29931714321E+02  0.30997950706E+02 -0.13441569299E+02  0.45138301424E+02  0.10000000000E+00 0.  1.
         -5    1    3    3    0  501 -0.39405904005E+02 -0.66123401816E+02 -0.11008659330E+03  0.13432869225E+03  0.10000000000E+00 0.  1.
         21    1    1    2  504  502  0.94741896833E+01  0.35125451109E+02 -0.29931788768E+02  0.47111246690E+02  0.00000000000E+00 0. -1.
<mgrwt>
<rscale>  1 0.13018907E+03</rscale>
<asrwt>0</asrwt>
<pdfrwt beam="1">  1       21 0.56244838E-02 0.13018907E+03</pdfrwt>
<pdfrwt beam="2">  1       21 0.29233707E-01 0.13018907E+03</pdfrwt>
<totfact> 0.24500812E+06</totfact>
</mgrwt>
</event>
<event>
 6    1  0.4259848E-002  0.1377682E+03  0.7546771E-02  0.1216364E+00
         21   -1    0    0  504  502  0.00000000000E+00  0.00000000000E+00  0.30139666520E+02  0.30139666520E+02  0.00000000000E+00 0.  1.
         21   -1    0    0  502  503 -0.00000000000E+00 -0.00000000000E+00 -0.36658679500E+03  0.36658679500E+03  0.00000000000E+00 0.  1.
         25    2    1    2    0    0 -0.58023813015E+02  0.10827037256E+01 -0.16083385418E+03  0.21177252879E+03  0.12494855011E+03 0.  0.
          5    1    3    3  501    0 -0.94157408803E+01 -0.42573251448E+02 -0.63771671815E+01  0.44066043349E+02  0.10000000000E+00 0.  1.
         -5    1    3    3    0  501 -0.48608072135E+02  0.43655955174E+02 -0.15445668700E+03  0.16770648544E+03  0.10000000000E+00 0.  1.
         21    1    1    2  504  503  0.58023813015E+02 -0.10827037256E+01 -0.17561327430E+03  0.18495393273E+03  0.00000000000E+00 0.  1.
<mgrwt>
<rscale>  1 0.13776819E+03</rscale>
<asrwt>0</asrwt>
<pdfrwt beam="1">  1       21 0.46368716E-02 0.13776819E+03</pdfrwt>
<pdfrwt beam="2">  1       21 0.56397970E-01 0.13776819E+03</pdfrwt>
<totfact> 0.90698955E+05</totfact>
</mgrwt>
</event>
<event>
 6    1  0.4259848E-002  0.1259980E+03  0.7546771E-02  0.1233518E+00
         21   -1    0    0  504  502  0.00000000000E+00  0.00000000000E+00  0.28702497965E+03  0.28702497965E+03  0.00000000000E+00 0.  1.
         21   -1    0    0  502  503 -0.00000000000E+00 -0.00000000000E+00 -0.43931630424E+02  0.43931630424E+02  0.00000000000E+00 0.  1.
         25    2    1    2    0    0 -0.14754291570E+02  0.57469689022E+01  0.27100683749E+03  0.29886487285E+03  0.12499915793E+03 0.  0.
          5    1    3    3  501    0  0.33409272134E+02 -0.41174068789E+02  0.16519030361E+03  0.17349158427E+03  0.10000000000E+00 0. -1.
         -5    1    3    3    0  501 -0.48163563704E+02  0.46921037691E+02  0.10581653388E+03  0.12537328858E+03  0.10000000000E+00 0. -1.
         21    1    1    2  504  503  0.14754291570E+02 -0.57469689022E+01 -0.27913488263E+02  0.32091737228E+02  0.00000000000E+00 0.  1.
<mgrwt>
<rscale>  1 0.12599804E+03</rscale>
<asrwt>0</asrwt>
<pdfrwt beam="1">  1       21 0.44157688E-01 0.12599804E+03</pdfrwt>
<pdfrwt beam="2">  1       21 0.67587125E-02 0.12599804E+03</pdfrwt>
<totfact> 0.79478641E+05</totfact>
</mgrwt>
</event>
<event>
 6    1  0.4259848E-002  0.1285342E+03  0.7546771E-02  0.1229647E+00
         21   -1    0    0  504  502  0.00000000000E+00  0.00000000000E+00  0.35511251004E+02  0.35511251004E+02  0.00000000000E+00 0. -1.
         21   -1    0    0  502  503 -0.00000000000E+00 -0.00000000000E+00 -0.46031739390E+03  0.46031739390E+03  0.00000000000E+00 0. -1.
         25    2    1    2    0    0  0.29102900715E+02 -0.68181712588E+01 -0.83630988135E+02  0.15334659791E+03  0.12501028207E+03 0.  0.
          5    1    3    3  501    0 -0.49075179167E+02 -0.44747144943E+01 -0.41972116619E+02  0.64730710281E+02  0.10000000000E+00 0.  1.
         -5    1    3    3    0  501  0.78178079882E+02 -0.23434567645E+01 -0.41658871516E+02  0.88615887625E+02  0.10000000000E+00 0.  1.
         21    1    1    2  504  503 -0.29102900715E+02  0.68181712588E+01 -0.34117515476E+03  0.34248204700E+03  0.00000000000E+00 0. -1.
<mgrwt>
<rscale>  1 0.12853419E+03</rscale>
<asrwt>0</asrwt>
<pdfrwt beam="1">  1       21 0.54632692E-02 0.12853419E+03</pdfrwt>
<pdfrwt beam="2">  1       21 0.70818063E-01 0.12853419E+03</pdfrwt>
<totfact> 0.42271575E+05</totfact>
</mgrwt>
</event>
<event>
 6    1  0.4259848E-002  0.1676981E+03  0.7546771E-02  0.1180270E+00
         21   -1    0    0  503  502  0.00000000000E+00  0.00000000000E+00  0.81378204860E+03  0.81378204860E+03  0.00000000000E+00 0.  1.
         21   -1    0    0  504  503 -0.00000000000E+00 -0.00000000000E+00 -0.10421843308E+03  0.10421843308E+03  0.00000000000E+00 0. -1.
         25    2    1    2    0    0  0.20880993738E+02  0.10982598403E+03  0.77196528477E+03  0.78997028605E+03  0.12499955713E+03 0.  0.
          5    1    3    3  501    0  0.32691665808E+02 -0.18123316559E+02  0.22734783197E+03  0.23040018732E+03  0.10000000000E+00 0. -1.
         -5    1    3    3    0  501 -0.11810672069E+02  0.12794930059E+03  0.54461745280E+03  0.55957009872E+03  0.10000000000E+00 0. -1.
         21    1    1    2  504  502 -0.20880993738E+02 -0.10982598403E+03 -0.62401669247E+02  0.12803019563E+03  0.00000000000E+00 0. -1.
<mgrwt>
<rscale>  1 0.16769810E+03</rscale>
<asrwt>0</asrwt>
<pdfrwt beam="1">  1       21 0.12519723E+00 0.16769810E+03</pdfrwt>
<pdfrwt beam="2">  1       21 0.16033606E-01 0.16769810E+03</pdfrwt>
<totfact> 0.16789206E+04</totfact>
</mgrwt>
</event>
<event>
 6    1  0.4259848E-002  0.1596622E+03  0.7546771E-02  0.1189079E+00
         21   -1    0    0  503  502  0.00000000000E+00  0.00000000000E+00  0.87139673909E+03  0.87139673909E+03  0.00000000000E+00 0.  1.
         21   -1    0    0  504  503 -0.00000000000E+00 -0.00000000000E+00 -0.41004827938E+02  0.41004827938E+02  0.00000000000E+00 0.  1.
         25    2    1    2    0    0  0.10575130277E+01 -0.99326990808E+02  0.78865898713E+03  0.80465832416E+03  0.12500020489E+03 0.  0.
          5    1    3    3  501    0  0.42565605591E+02 -0.80587038828E+02  0.29143574281E+03  0.30535373551E+03  0.10000000000E+00 0.  1.
         -5    1    3    3    0  501 -0.41508092564E+02 -0.18739951980E+02  0.49722324432E+03  0.49930458864E+03  0.10000000000E+00 0.  1.
         21    1    1    2  504  502 -0.10575130277E+01  0.99326990808E+02  0.41732924025E+02  0.10774324287E+03  0.00000000000E+00 0.  1.
<mgrwt>
<rscale>  1 0.15966221E+03</rscale>
<asrwt>0</asrwt>
<pdfrwt beam="1">  1       21 0.13406102E+00 0.15966221E+03</pdfrwt>
<pdfrwt beam="2">  1       21 0.63084357E-02 0.15966221E+03</pdfrwt>
<totfact> 0.73584735E+04</totfact>
</mgrwt>
</event>
<event>
 6    1  0.4259848E-002  0.1317997E+03  0.7546771E-02  0.1224810E+00
         21   -1    0    0  503  502  0.00000000000E+00  0.00000000000E+00  0.30826945027E+03  0.30826945027E+03  0.00000000000E+00 0.  1.
         21   -1    0    0  504  503 -0.00000000000E+00 -0.00000000000E+00 -0.35642637717E+02  0.35642637717E+02  0.00000000000E+00 0.  1.
         25    2    1    2    0    0 -0.24788535252E+02 -0.33682260232E+02  0.27181487155E+03  0.30208356443E+03  0.12498875697E+03 0.  0.
          5    1    3    3  501    0 -0.85964216305E+01  0.64076307092E+01  0.25572594761E+03  0.25595063289E+03  0.10000000000E+00 0. -1.
         -5    1    3    3    0  501 -0.16192113621E+02 -0.40089890941E+02  0.16088923942E+02  0.46132931544E+02  0.10000000000E+00 0. -1.
         21    1    1    2  504  502  0.24788535252E+02  0.33682260232E+02  0.81194099907E+00  0.41828523551E+02  0.00000000000E+00 0.  1.
<mgrwt>
<rscale>  1 0.13179968E+03</rscale>
<asrwt>0</asrwt>
<pdfrwt beam="1">  1       21 0.47426067E-01 0.13179968E+03</pdfrwt>
<pdfrwt beam="2">  1       21 0.54834829E-02 0.13179968E+03</pdfrwt>
<totfact> 0.98013496E+05</totfact>
</mgrwt>
</event>
<event>
 6    1  0.4259848E-002  0.1438153E+03  0.7546771E-02  0.1208285E+00
         21   -1    0    0  504  502  0.00000000000E+00  0.00000000000E+00  0.52966665623E+03  0.52966665623E+03  0.00000000000E+00 0.  1.
         21   -1    0    0  502  503 -0.00000000000E+00 -0.00000000000E+00 -0.26875799863E+02  0.26875799863E+02  0.00000000000E+00 0.  1.
         25    2    1    2    0    0 -0.26497373917E+02  0.65986068132E+02  0.43554228300E+03  0.45867191593E+03  0.12500629652E+03 0.  0.
          5    1    3    3  501    0  0.23882374029E+02  0.67825412093E+02  0.12619830068E+03  0.14524694630E+03  0.10000000000E+00 0. -1.
         -5    1    3    3    0  501 -0.50379747947E+02 -0.18393439614E+01  0.30934398232E+03  0.31342496963E+03  0.10000000000E+00 0. -1.
         21    1    1    2  504  503  0.26497373917E+02 -0.65986068132E+02  0.67248573366E+02  0.97870540163E+02  0.00000000000E+00 0.  1.
<mgrwt>
<rscale>  1 0.14381532E+03</rscale>
<asrwt>0</asrwt>
<pdfrwt beam="1">  1       21 0.81487170E-01 0.14381532E+03</pdfrwt>
<pdfrwt beam="2">  1       21 0.41347388E-02 0.14381532E+03</pdfrwt>
<totfact> 0.49323809E+05</totfact>
</mgrwt>
</event>
<event>
 6    1  0.4259848E-002  0.1291416E+03  0.7546771E-02  0.1228735E+00
         21   -1    0    0  504  502  0.00000000000E+00  0.00000000000E+00  0.42758028821E+03  0.42758028821E+03  0.00000000000E+00 0.  1.
         21   -1    0    0  502  503 -0.00000000000E+00 -0.00000000000E+00 -0.16921943117E+02  0.16921943117E+02  0.00000000000E+00 0.  1.
         25    2    1    2    0    0 -0.31851117002E+02  0.61769909439E+01  0.37337928360E+03  0.39508181755E+03  0.12499961708E+03 0.  0.
          5    1    3    3  501    0 -0.55236418457E+02  0.52523528044E+02  0.19737332630E+03  0.21157982620E+03  0.10000000000E+00 0. -1.
         -5    1    3    3    0  501  0.23385301455E+02 -0.46346537100E+02  0.17600595730E+03  0.18350199135E+03  0.10000000000E+00 0. -1.
         21    1    1    2  504  503  0.31851117002E+02 -0.61769909439E+01  0.37279061493E+02  0.49420413770E+02  0.00000000000E+00 0.  1.
<mgrwt>
<rscale>  1 0.12914160E+03</rscale>
<asrwt>0</asrwt>
<pdfrwt beam="1">  1       21 0.65781575E-01 0.12914160E+03</pdfrwt>
<pdfrwt beam="2">  1       21 0.26033762E-02 0.12914160E+03</pdfrwt>
<totfact> 0.16947946E+06</totfact>
</mgrwt>
</event>
<event>
 6    1  0.4259848E-002  0.1279081E+03  0.7546771E-02  0.1230593E+00
         21   -1    0    0  503  502  0.00000000000E+00  0.00000000000E+00  0.38589586533E+02  0.38589586533E+02  0.00000000000E+00 0. -1.
         21   -1    0    0  504  503 -0.00000000000E+00 -0.00000000000E+00 -0.18788957073E+03  0.18788957073E+03  0.00000000000E+00 0. -1.
         25    2    1    2    0    0  0.45669797830E+01  0.26731809298E+02 -0.77086189694E+02  0.14934110537E+03  0.12500015272E+03 0.  0.
          5    1    3    3  501    0  0.11492576822E+02  0.71348438587E+02 -0.74984628398E+02  0.10414117105E+03  0.10000000000E+00 0.  1.
         -5    1    3    3    0  501 -0.69255970390E+01 -0.44616629289E+02 -0.21015612957E+01  0.45199934329E+02  0.10000000000E+00 0.  1.
         21    1    1    2  504  502 -0.45669797830E+01 -0.26731809298E+02 -0.72213794501E+02  0.77138051887E+02  0.00000000000E+00 0. -1.
<mgrwt>
<rscale>  1 0.12790811E+03</rscale>
<asrwt>0</asrwt>
<pdfrwt beam="1">  1       21 0.59368595E-02 0.12790811E+03</pdfrwt>
<pdfrwt beam="2">  1       21 0.28906088E-01 0.12790811E+03</pdfrwt>
<totfact> 0.22836364E+06</totfact>
</mgrwt>
</event>
<event>
 6    1  0.4259848E-002  0.1300123E+03  0.7546771E-02  0.1227438E+00
         21   -1    0    0  503  502  0.00000000000E+00  0.00000000000E+00  0.11563930695E+03  0.11563930695E+03  0.00000000000E+00 0. -1.
         21   -1    0    0  504  503 -0.00000000000E+00 -0.00000000000E+00 -0.65895922225E+02  0.65895922225E+02  0.00000000000E+00 0. -1.
         25    2    1    2    0    0 -0.30874680613E+02  0.17918142874E+02  0.61671410927E+02  0.14389770062E+03  0.12501551732E+03 0.  0.
          5    1    3    3  501    0  0.55351336378E+01  0.66254049413E+02  0.47601130048E+02  0.81768663618E+02  0.10000000000E+00 0.  1.
         -5    1    3    3    0  501 -0.36409814251E+02 -0.48335906539E+02  0.14070280879E+02  0.62129037002E+02  0.10000000000E+00 0.  1.
         21    1    1    2  504  502  0.30874680613E+02 -0.17918142874E+02 -0.11928026199E+02  0.37637528559E+02  0.00000000000E+00 0.  1.
<mgrwt>
<rscale>  1 0.13001225E+03</rscale>
<asrwt>0</asrwt>
<pdfrwt beam="1">  1       21 0.17790663E-01 0.13001225E+03</pdfrwt>
<pdfrwt beam="2">  1       21 0.10137834E-01 0.13001225E+03</pdfrwt>
<totfact> 0.22566029E+06</totfact>
</mgrwt>
</event>
<event>
 6    1  0.4259848E-002  0.1259536E+03  0.7546771E-02  0.1233587E+00
         21   -1    0    0  503  502  0.00000000000E+00  0.00000000000E+00  0.30391239652E+02  0.30391239652E+02  0.00000000000E+00 0. -1.
         21   -1    0    0  504  503 -0.00000000000E+00 -0.00000000000E+00 -0.19800513310E+03  0.19800513310E+03  0.00000000000E+00 0. -1.
         25    2    1    2    0    0 -0.57670405930E+01 -0.14372108883E+02 -0.10525376994E+03  0.16414218009E+03  0.12499793169E+03 0.  0.
          5    1    3    3  501    0 -0.10220129888E+02  0.56666401689E+01 -0.13082770405E+03  0.13134862014E+03  0.10000000000E+00 0.  1.
         -5    1    3    3    0  501  0.44530892949E+01 -0.20038749052E+02  0.25573934114E+02  0.32793559945E+02  0.10000000000E+00 0.  1.
         21    1    1    2  504  502  0.57670405930E+01  0.14372108883E+02 -0.62360123510E+02  0.64254192666E+02  0.00000000000E+00 0. -1.
<mgrwt>
<rscale>  1 0.12595356E+03</rscale>
<asrwt>0</asrwt>
<pdfrwt beam="1">  1       21 0.46755753E-02 0.12595356E+03</pdfrwt>
<pdfrwt beam="2">  1       21 0.30462329E-01 0.12595356E+03</pdfrwt>
<totfact> 0.30842272E+06</totfact>
</mgrwt>
</event>
<event>
 6    1  0.4259848E-002  0.1321944E+03  0.7546771E-02  0.1224236E+00
         21   -1    0    0  504  502  0.00000000000E+00  0.00000000000E+00  0.22708820910E+03  0.22708820910E+03  0.00000000000E+00 0. -1.
         21   -1    0    0  502  503 -0.00000000000E+00 -0.00000000000E+00 -0.79268286496E+02  0.79268286496E+02  0.00000000000E+00 0. -1.
         25    2    1    2    0    0  0.17342897012E+02  0.39371626701E+02  0.19936854800E+03  0.23921364901E+03  0.12499780349E+03 0.  0.
          5    1    3    3  501    0 -0.27769782223E+02 -0.57261951456E+01  0.16368498895E+03  0.16612265265E+03  0.10000000000E+00 0. -1.
         -5    1    3    3    0  501  0.45112679234E+02  0.45097821847E+02  0.35683559053E+02  0.73090996365E+02  0.10000000000E+00 0. -1.
         21    1    1    2  504  503 -0.17342897012E+02 -0.39371626701E+02 -0.51548625402E+02  0.67142846578E+02  0.00000000000E+00 0. -1.
<mgrwt>
<rscale>  1 0.13219437E+03</rscale>
<asrwt>0</asrwt>
<pdfrwt beam="1">  1       21 0.34936647E-01 0.13219437E+03</pdfrwt>
<pdfrwt beam="2">  1       21 0.12195121E-01 0.13219437E+03</pdfrwt>
<totfact> 0.45428703E+05</totfact>
</mgrwt>
</event>
<event>
 6    1  0.4259848E-002  0.1259903E+03  0.7546771E-02  0.1233530E+00
         21   -1    0    0  503  502  0.00000000000E+00  0.00000000000E+00  0.98516272474E+02  0.98516272474E+02  0.00000000000E+00 0. -1.
         21   -1    0    0  504  503 -0.00000000000E+00 -0.00000000000E+00 -0.51523760604E+02  0.51523760604E+02  0.00000000000E+00 0. -1.
         25    2    1    2    0    0 -0.77978985143E+01  0.13749590107E+02  0.36887804859E+02  0.13127934138E+03  0.12499478739E+03 0.  0.
          5    1    3    3  501    0 -0.41365097418E+02 -0.20162594806E+02  0.62116016842E+02  0.77304663909E+02  0.10000000000E+00 0. -1.
         -5    1    3    3    0  501  0.33567198904E+02  0.33912184912E+02 -0.25228211983E+02  0.53974677467E+02  0.10000000000E+00 0. -1.
         21    1    1    2  504  502  0.77978985143E+01 -0.13749590107E+02  0.10104707011E+02  0.18760691702E+02  0.00000000000E+00 0. -1.
<mgrwt>
<rscale>  1 0.12599030E+03</rscale>
<asrwt>0</asrwt>
<pdfrwt beam="1">  1       21 0.15156350E-01 0.12599030E+03</pdfrwt>
<pdfrwt beam="2">  1       21 0.79267324E-02 0.12599030E+03</pdfrwt>
<totfact> 0.46217588E+06</totfact>
</mgrwt>
</event>
<event>
 6    1  0.4259848E-002  0.1299149E+03  0.7546771E-02  0.1227582E+00
         21   -1    0    0  504  502  0.00000000000E+00  0.00000000000E+00  0.18042916001E+02  0.18042916001E+02  0.00000000000E+00 0.  1.
         21   -1    0    0  502  503 -0.00000000000E+00 -0.00000000000E+00 -0.11313085705E+04  0.11313085705E+04  0.00000000000E+00 0.  1.
         25    2    1    2    0    0  0.28096035766E+02  0.21521725719E+02 -0.22080128628E+03  0.25618564499E+03  0.12500121908E+03 0.  0.
          5    1    3    3  501    0  0.31949989695E+02 -0.27187639450E+02 -0.14827042678E+02  0.44495176985E+02  0.10000000000E+00 0. -1.
         -5    1    3    3    0  501 -0.38539539291E+01  0.48709365169E+02 -0.20597424360E+03  0.21169046801E+03  0.10000000000E+00 0. -1.
         21    1    1    2  504  503 -0.28096035766E+02 -0.21521725719E+02 -0.89246436822E+03  0.89316584152E+03  0.00000000000E+00 0.  1.
<mgrwt>
<rscale>  1 0.12991488E+03</rscale>
<asrwt>0</asrwt>
<pdfrwt beam="1">  1       21 0.27758338E-02 0.12991488E+03</pdfrwt>
<pdfrwt beam="2">  1       21 0.17404744E+00 0.12991488E+03</pdfrwt>
<totfact> 0.14837220E+05</totfact>
</mgrwt>
</event>
<event>
 6    1  0.4259848E-002  0.1433318E+03  0.7546771E-02  0.1208915E+00
         21   -1    0    0  504  502  0.00000000000E+00  0.00000000000E+00  0.19733045549E+03  0.19733045549E+03  0.00000000000E+00 0.  1.
         21   -1    0    0  502  503 -0.00000000000E+00 -0.00000000000E+00 -0.60992127097E+03  0.60992127097E+03  0.00000000000E+00 0.  1.
         25    2    1    2    0    0  0.54007784969E+02  0.44748431402E+02  0.16891484083E+03  0.22153157889E+03  0.12499901617E+03 0.  0.
          5    1    3    3  501    0 -0.17387961983E+02  0.21980268665E+02  0.13741174583E+03  0.14024076199E+03  0.10000000000E+00 0. -1.
         -5    1    3    3    0  501  0.71395746952E+02  0.22768162737E+02  0.31503094996E+02  0.81290816896E+02  0.10000000000E+00 0. -1.
         21    1    1    2  504  503 -0.54007784969E+02 -0.44748431402E+02 -0.58150565631E+03  0.58572014757E+03  0.00000000000E+00 0.  1.
<mgrwt>
<rscale>  1 0.14333184E+03</rscale>
<asrwt>0</asrwt>
<pdfrwt beam="1">  1       21 0.30358531E-01 0.14333184E+03</pdfrwt>
<pdfrwt beam="2">  1       21 0.93834043E-01 0.14333184E+03</pdfrwt>
<totfact> 0.10303669E+04</totfact>
</mgrwt>
</event>
<event>
 6    1  0.4259848E-002  0.1265270E+03  0.7546771E-02  0.1232702E+00
         21   -1    0    0  503  502  0.00000000000E+00  0.00000000000E+00  0.62231077998E+02  0.62231077998E+02  0.00000000000E+00 0. -1.
         21   -1    0    0  504  503 -0.00000000000E+00 -0.00000000000E+00 -0.10798372803E+03  0.10798372803E+03  0.00000000000E+00 0. -1.
         25    2    1    2    0    0  0.82662258889E+00  0.19528098220E+02 -0.68907040498E+01  0.12671445235E+03  0.12500816256E+03 0.  0.
          5    1    3    3  501    0 -0.56223718418E+02 -0.32968990492E+01  0.19829451653E+02  0.59709238891E+02  0.10000000000E+00 0. -1.
         -5    1    3    3    0  501  0.57050341007E+02  0.22824997269E+02 -0.26720155702E+02  0.67005213455E+02  0.10000000000E+00 0. -1.
         21    1    1    2  504  502 -0.82662258889E+00 -0.19528098220E+02 -0.38861945979E+02  0.43500353680E+02  0.00000000000E+00 0. -1.
<mgrwt>
<rscale>  1 0.12652696E+03</rscale>
<asrwt>0</asrwt>
<pdfrwt beam="1">  1       21 0.95740121E-02 0.12652696E+03</pdfrwt>
<pdfrwt beam="2">  1       21 0.16612881E-01 0.12652696E+03</pdfrwt>
<totfact> 0.28228985E+06</totfact>
</mgrwt>
</event>
<event>
 6    1  0.4259848E-002  0.1262449E+03  0.7546771E-02  0.1233136E+00
         21   -1    0    0  503  502  0.00000000000E+00  0.00000000000E+00  0.13896759979E+03  0.13896759979E+03  0.00000000000E+00 0. -1.
         21   -1    0    0  504  503 -0.00000000000E+00 -0.00000000000E+00 -0.52101200943E+02  0.52101200943E+02  0.00000000000E+00 0. -1.
         25    2    1    2    0    0  0.55344004923E+01 -0.16866062035E+02  0.10609041165E+03  0.16490286284E+03  0.12499074002E+03 0.  0.
          5    1    3    3  501    0  0.28356673346E+02 -0.10923659182E+02  0.12869597927E+03  0.13223498906E+03  0.10000000000E+00 0.  1.
         -5    1    3    3    0  501 -0.22822272854E+02 -0.59424028527E+01 -0.22605567616E+02  0.32667873777E+02  0.10000000000E+00 0.  1.
         21    1    1    2  504  502 -0.55344004923E+01  0.16866062035E+02 -0.19224012806E+02  0.26165937891E+02  0.00000000000E+00 0. -1.
<mgrwt>
<rscale>  1 0.12624492E+03</rscale>
<asrwt>0</asrwt>
<pdfrwt beam="1">  1       21 0.21379631E-01 0.12624492E+03</pdfrwt>
<pdfrwt beam="2">  1       21 0.80155694E-02 0.12624492E+03</pdfrwt>
<totfact> 0.24157910E+06</totfact>
</mgrwt>
</event>
<event>
 6    1  0.4259848E-002  0.1486188E+03  0.7546771E-02  0.1202181E+00
         21   -1    0    0  504  502  0.00000000000E+00  0.00000000000E+00  0.15925155903E+04  0.15925155903E+04  0.00000000000E+00 0.  1.
         21   -1    0    0  502  503 -0.00000000000E+00 -0.00000000000E+00 -0.11604443630E+02  0.11604443630E+02  0.00000000000E+00 0.  1.
         25    2    1    2    0    0  0.17714035496E+02 -0.78413907302E+02  0.13760187518E+04  0.13840213711E+04  0.12500008957E+03 0.  0.
          5    1    3    3  501    0  0.43432511644E+02 -0.20233550924E+02  0.10883171733E+04  0.10893714056E+04  0.10000000000E+00 0. -1.
         -5    1    3    3    0  501 -0.25718476148E+02 -0.58180356377E+02  0.28770157851E+03  0.29464996548E+03  0.10000000000E+00 0. -1.
         21    1    1    2  504  503 -0.17714035496E+02  0.78413907302E+02  0.20489239485E+03  0.22009866283E+03  0.00000000000E+00 0.  1.
<mgrwt>
<rscale>  1 0.14861881E+03</rscale>
<asrwt>0</asrwt>
<pdfrwt beam="1">  1       21 0.24500223E+00 0.14861881E+03</pdfrwt>
<pdfrwt beam="2">  1       21 0.17853003E-02 0.14861881E+03</pdfrwt>
<totfact> 0.10870765E+05</totfact>
</mgrwt>
</event>
<event>
 6    1  0.4259848E-002  0.1284620E+03  0.7546771E-02  0.1229756E+00
         21   -1    0    0  504  502  0.00000000000E+00  0.00000000000E+00  0.22625283630E+03  0.22625283630E+03  0.00000000000E+00 0.  1.
         21   -1    0    0  502  503 -0.00000000000E+00 -0.00000000000E+00 -0.11622162535E+03  0.11622162535E+03  0.00000000000E+00 0.  1.
         25    2    1    2    0    0 -0.26641827019E+02 -0.12925140826E+02  0.20559451328E+03  0.24242851739E+03  0.12500254373E+03 0.  0.
          5    1    3    3  501    0 -0.32644110019E+02  0.36186800432E+02  0.24210984047E+02  0.54417866487E+02  0.10000000000E+00 0. -1.
         -5    1    3    3    0  501  0.60022830004E+01 -0.49111941258E+02  0.18138352923E+03  0.18801065090E+03  0.10000000000E+00 0. -1.
         21    1    1    2  504  503  0.26641827019E+02  0.12925140826E+02 -0.95563302324E+02  0.10004594426E+03  0.00000000000E+00 0.  1.
<mgrwt>
<rscale>  1 0.12846199E+03</rscale>
<asrwt>0</asrwt>
<pdfrwt beam="1">  1       21 0.34808129E-01 0.12846199E+03</pdfrwt>
<pdfrwt beam="2">  1       21 0.17880250E-01 0.12846199E+03</pdfrwt>
<totfact> 0.22981279E+05</totfact>
</mgrwt>
</event>
<event>
 6    1  0.4259848E-002  0.1383196E+03  0.7546771E-02  0.1215608E+00
         21   -1    0    0  503  502  0.00000000000E+00  0.00000000000E+00  0.67976152199E+02  0.67976152199E+02  0.00000000000E+00 0. -1.
         21   -1    0    0  504  503 -0.00000000000E+00 -0.00000000000E+00 -0.21793606949E+03  0.21793606949E+03  0.00000000000E+00 0. -1.
         25    2    1    2    0    0 -0.26875953529E+02  0.52775073579E+02 -0.15746984598E+02  0.13921308546E+03  0.12499916147E+03 0.  0.
          5    1    3    3  501    0  0.38418267147E+02  0.27200599957E+02 -0.43214790594E+02  0.63901205111E+02  0.10000000000E+00 0.  1.
         -5    1    3    3    0  501 -0.65294220676E+02  0.25574473623E+02  0.27467805996E+02  0.75311880345E+02  0.10000000000E+00 0.  1.
         21    1    1    2  504  502  0.26875953529E+02 -0.52775073579E+02 -0.13421293270E+03  0.14669913624E+03  0.00000000000E+00 0. -1.
<mgrwt>
<rscale>  1 0.13831961E+03</rscale>
<asrwt>0</asrwt>
<pdfrwt beam="1">  1       21 0.10457870E-01 0.13831961E+03</pdfrwt>
<pdfrwt beam="2">  1       21 0.33528625E-01 0.13831961E+03</pdfrwt>
<totfact> 0.64571448E+05</totfact>
</mgrwt>
</event>
<event>
 6    1  0.4259848E-002  0.1359454E+03  0.7546771E-02  0.1218891E+00
         21   -1    0    0  504  502  0.00000000000E+00  0.00000000000E+00  0.30714881004E+02  0.30714881004E+02  0.00000000000E+00 0. -1.
         21   -1    0    0  502  503 -0.00000000000E+00 -0.00000000000E+00 -0.40609171464E+03  0.40609171464E+03  0.00000000000E+00 0. -1.
         25    2    1    2    0    0  0.25894193881E+02 -0.46745193871E+02 -0.13885866429E+03  0.19432676791E+03  0.12500216659E+03 0.  0.
          5    1    3    3  501    0  0.27123952472E+02 -0.77054665193E+02 -0.14200981912E+03  0.16382896250E+03  0.10000000000E+00 0.  1.
         -5    1    3    3    0  501 -0.12297585909E+01  0.30309471322E+02  0.31511548372E+01  0.30497805410E+02  0.10000000000E+00 0.  1.
         21    1    1    2  504  503 -0.25894193881E+02  0.46745193871E+02 -0.23651816935E+03  0.24247982774E+03  0.00000000000E+00 0. -1.
<mgrwt>
<rscale>  1 0.13594545E+03</rscale>
<asrwt>0</asrwt>
<pdfrwt beam="1">  1       21 0.47253667E-02 0.13594545E+03</pdfrwt>
<pdfrwt beam="2">  1       21 0.62475644E-01 0.13594545E+03</pdfrwt>
<totfact> 0.70708409E+05</totfact>
</mgrwt>
</event>
<event>
 6    1  0.4259848E-002  0.1276576E+03  0.7546771E-02  0.1230973E+00
         21   -1    0    0  503  502  0.00000000000E+00  0.00000000000E+00  0.50753403587E+03  0.50753403587E+03  0.00000000000E+00 0.  1.
         21   -1    0    0  504  503 -0.00000000000E+00 -0.00000000000E+00 -0.13595746549E+02  0.13595746549E+02  0.00000000000E+00 0.  1.
         25    2    1    2    0    0  0.23920841039E+02  0.99819838906E+01  0.46534168379E+03  0.48253428416E+03  0.12499842428E+03 0.  0.
          5    1    3    3  501    0  0.62422786287E+02 -0.29666347136E+02  0.20326422944E+03  0.21469292808E+03  0.10000000000E+00 0. -1.
         -5    1    3    3    0  501 -0.38501945248E+02  0.39648331027E+02  0.26207745436E+03  0.26784135607E+03  0.10000000000E+00 0. -1.
         21    1    1    2  504  502 -0.23920841039E+02 -0.99819838906E+01  0.28596605526E+02  0.38595498261E+02  0.00000000000E+00 0.  1.
<mgrwt>
<rscale>  1 0.12765756E+03</rscale>
<asrwt>0</asrwt>
<pdfrwt beam="1">  1       21 0.78082145E-01 0.12765756E+03</pdfrwt>
<pdfrwt beam="2">  1       21 0.20916537E-02 0.12765756E+03</pdfrwt>
<totfact> 0.16607640E+06</totfact>
</mgrwt>
</event>
<event>
 6    1  0.4259848E-002  0.1314978E+03  0.7546771E-02  0.1225250E+00
         21   -1    0    0  503  502  0.00000000000E+00  0.00000000000E+00  0.28184498106E+02  0.28184498106E+02  0.00000000000E+00 0.  1.
         21   -1    0    0  504  503 -0.00000000000E+00 -0.00000000000E+00 -0.37605814364E+03  0.37605814364E+03  0.00000000000E+00 0.  1.
         25    2    1    2    0    0 -0.36958503339E+02  0.17326551020E+02 -0.13871171612E+03  0.19113503265E+03  0.12500208069E+03 0.  0.
          5    1    3    3  501    0 -0.33924494464E+02  0.56231210332E+02 -0.13717151381E+03  0.15208173638E+03  0.10000000000E+00 0.  1.
         -5    1    3    3    0  501 -0.30340088749E+01 -0.38904659312E+02 -0.15402023106E+01  0.39053296266E+02  0.10000000000E+00 0.  1.
         21    1    1    2  504  502  0.36958503339E+02 -0.17326551020E+02 -0.20916192941E+03  0.21310760910E+03  0.00000000000E+00 0.  1.
<mgrwt>
<rscale>  1 0.13149776E+03</rscale>
<asrwt>0</asrwt>
<pdfrwt beam="1">  1       21 0.43360770E-02 0.13149776E+03</pdfrwt>
<pdfrwt beam="2">  1       21 0.57855094E-01 0.13149776E+03</pdfrwt>
<totfact> 0.96146281E+05</totfact>
</mgrwt>
</event>
<event>
 6    1  0.4259848E-002  0.1293743E+03  0.7546771E-02  0.1228387E+00
         21   -1    0    0  504  502  0.00000000000E+00  0.00000000000E+00  0.22307507565E+02  0.22307507565E+02  0.00000000000E+00 0.  1.
         21   -1    0    0  502  503 -0.00000000000E+00 -0.00000000000E+00 -0.32025419853E+03  0.32025419853E+03  0.00000000000E+00 0.  1.
         25    2    1    2    0    0  0.27506891495E+02 -0.18872408406E+02 -0.19226579792E+03  0.23174091367E+03  0.12499966856E+03 0.  0.
          5    1    3    3  501    0 -0.47472516771E+02 -0.93566191444E+01 -0.10917881390E+03  0.11942030638E+03  0.10000000000E+00 0.  1.
         -5    1    3    3    0  501  0.74979408266E+02 -0.95157892615E+01 -0.83086984018E+02  0.11232060729E+03  0.10000000000E+00 0.  1.
         21    1    1    2  504  503 -0.27506891495E+02  0.18872408406E+02 -0.10568089304E+03  0.11082079242E+03  0.00000000000E+00 0. -1.
<mgrwt>
<rscale>  1 0.12937432E+03</rscale>
<asrwt>0</asrwt>
<pdfrwt beam="1">  1       21 0.34319243E-02 0.12937432E+03</pdfrwt>
<pdfrwt beam="2">  1       21 0.49269875E-01 0.12937432E+03</pdfrwt>
<totfact> 0.19802261E+06</totfact>
</mgrwt>
</event>
<event>
 6    1  0.4259848E-002  0.1442606E+03  0.7546771E-02  0.1207708E+00
         21   -1    0    0  503  502  0.00000000000E+00  0.00000000000E+00  0.16554951195E+02  0.16554951195E+02  0.00000000000E+00 0. -1.
         21   -1    0    0  504  503 -0.00000000000E+00 -0.00000000000E+00 -0.23086322755E+04  0.23086322755E+04  0.00000000000E+00 0. -1.
         25    2    1    2    0    0  0.64183705953E+02  0.32652753017E+02 -0.31130473717E+03  0.34310604967E+03  0.12500148617E+03 0.  0.
          5    1    3    3  501    0  0.72426657439E+02 -0.80309955468E+01 -0.28452152064E+03  0.29370499367E+03  0.10000000000E+00 0.  1.
         -5    1    3    3    0  501 -0.82429514857E+01  0.40683748563E+02 -0.26783216535E+02  0.49401056004E+02  0.10000000000E+00 0.  1.
         21    1    1    2  504  502 -0.64183705953E+02 -0.32652753017E+02 -0.19807725871E+04  0.19820811770E+04  0.00000000000E+00 0. -1.
<mgrwt>
<rscale>  1 0.14426060E+03</rscale>
<asrwt>0</asrwt>
<pdfrwt beam="1">  1       21 0.25469159E-02 0.14426060E+03</pdfrwt>
<pdfrwt beam="2">  1       21 0.35517416E+00 0.14426060E+03</pdfrwt>
<totfact> 0.14394560E+04</totfact>
</mgrwt>
</event>
<event>
 6    1  0.4259848E-002  0.1262743E+03  0.7546771E-02  0.1233091E+00
         21   -1    0    0  504  502  0.00000000000E+00  0.00000000000E+00  0.56214655800E+03  0.56214655800E+03  0.00000000000E+00 0. -1.
         21   -1    0    0  502  503 -0.00000000000E+00 -0.00000000000E+00 -0.10334204869E+02  0.10334204869E+02  0.00000000000E+00 0. -1.
         25    2    1    2    0    0 -0.89152087083E+01  0.15512317305E+02  0.52683366428E+03  0.54175540150E+03  0.12500036921E+03 0.  0.
          5    1    3    3  501    0 -0.33086444675E+02 -0.36765332566E+02  0.39237987283E+03  0.39548498973E+03  0.10000000000E+00 0.  1.
         -5    1    3    3    0  501  0.24171235967E+02  0.52277649871E+02  0.13445379145E+03  0.14627041177E+03  0.10000000000E+00 0.  1.
         21    1    1    2  504  503  0.89152087083E+01 -0.15512317305E+02  0.24978688847E+02  0.30725361365E+02  0.00000000000E+00 0. -1.
<mgrwt>
<rscale>  1 0.12627433E+03</rscale>
<asrwt>0</asrwt>
<pdfrwt beam="1">  1       21 0.86484062E-01 0.12627433E+03</pdfrwt>
<pdfrwt beam="2">  1       21 0.15898781E-02 0.12627433E+03</pdfrwt>
<totfact> 0.20516003E+06</totfact>
</mgrwt>
</event>
<event>
 6    1  0.4259848E-002  0.1278738E+03  0.7546771E-02  0.1230645E+00
         21   -1    0    0  503  502  0.00000000000E+00  0.00000000000E+00  0.26335429901E+03  0.26335429901E+03  0.00000000000E+00 0. -1.
         21   -1    0    0  504  503 -0.00000000000E+00 -0.00000000000E+00 -0.22877006710E+02  0.22877006710E+02  0.00000000000E+00 0. -1.
         25    2    1    2    0    0 -0.21748227804E+02 -0.15900622667E+02  0.20623210678E+03  0.24265897568E+03  0.12500352554E+03 0.  0.
          5    1    3    3  501    0  0.47477942822E+02 -0.29168266801E+02  0.11075313607E+03  0.12398068395E+03  0.10000000000E+00 0. -1.
         -5    1    3    3    0  501 -0.69226170626E+02  0.13267644133E+02  0.95478970715E+02  0.11867829174E+03  0.10000000000E+00 0. -1.
         21    1    1    2  504  502  0.21748227804E+02  0.15900622667E+02  0.34245185515E+02  0.43572330036E+02  0.00000000000E+00 0.  1.
<mgrwt>
<rscale>  1 0.12787375E+03</rscale>
<asrwt>0</asrwt>
<pdfrwt beam="1">  1       21 0.40516044E-01 0.12787375E+03</pdfrwt>
<pdfrwt beam="2">  1       21 0.35195397E-02 0.12787375E+03</pdfrwt>
<totfact> 0.28246249E+06</totfact>
</mgrwt>
</event>
<event>
 6    1  0.4259848E-002  0.1410112E+03  0.7546771E-02  0.1211975E+00
         21   -1    0    0  504  502  0.00000000000E+00  0.00000000000E+00  0.17587789664E+03  0.17587789664E+03  0.00000000000E+00 0.  1.
         21   -1    0    0  502  503 -0.00000000000E+00 -0.00000000000E+00 -0.89151482098E+02  0.89151482098E+02  0.00000000000E+00 0.  1.
         25    2    1    2    0    0  0.30255399641E+02  0.57761803514E+02  0.12583576034E+03  0.18899414952E+03  0.12502933584E+03 0.  0.
          5    1    3    3  501    0  0.18488595215E+02  0.76340234250E+02  0.14160652027E+03  0.16193231951E+03  0.10000000000E+00 0.  1.
         -5    1    3    3    0  501  0.11766804426E+02 -0.18578430736E+02 -0.15770759931E+02  0.27061830016E+02  0.10000000000E+00 0.  1.
         21    1    1    2  504  503 -0.30255399641E+02 -0.57761803514E+02 -0.39109345799E+02  0.76035229213E+02  0.00000000000E+00 0.  1.
<mgrwt>
<rscale>  1 0.14101117E+03</rscale>
<asrwt>0</asrwt>
<pdfrwt beam="1">  1       21 0.27058138E-01 0.14101117E+03</pdfrwt>
<pdfrwt beam="2">  1       21 0.13715613E-01 0.14101117E+03</pdfrwt>
<totfact> 0.60395669E+05</totfact>
</mgrwt>
</event>
<event>
 6    1  0.4259848E-002  0.1271259E+03  0.7546771E-02  0.1231784E+00
         21   -1    0    0  503  502  0.00000000000E+00  0.00000000000E+00  0.83884913960E+02  0.83884913960E+02  0.00000000000E+00 0. -1.
         21   -1    0    0  504  503 -0.00000000000E+00 -0.00000000000E+00 -0.12933799114E+03  0.12933799114E+03  0.00000000000E+00 0.  1.
         25    2    1    2    0    0  0.17552684317E+02 -0.15111664283E+02  0.33068613710E+02  0.13135645859E+03  0.12499810749E+03 0.  0.
          5    1    3    3  501    0  0.16932930215E+02  0.22698557141E+02 -0.40042574556E+02  0.49044534854E+02  0.10000000000E+00 0.  1.
         -5    1    3    3    0  501  0.61975410176E+00 -0.37810221424E+02  0.73111188266E+02  0.82311923735E+02  0.10000000000E+00 0.  1.
         21    1    1    2  504  502 -0.17552684317E+02  0.15111664283E+02 -0.78521690892E+02  0.81866446513E+02  0.00000000000E+00 0.  1.
<mgrwt>
<rscale>  1 0.12712587E+03</rscale>
<asrwt>0</asrwt>
<pdfrwt beam="1">  1       21 0.12905371E-01 0.12712587E+03</pdfrwt>
<pdfrwt beam="2">  1       21 0.19898152E-01 0.12712587E+03</pdfrwt>
<totfact> 0.11989230E+06</totfact>
</mgrwt>
</event>
<event>
 6    1  0.4259848E-002  0.1313821E+03  0.7546771E-02  0.1225419E+00
         21   -1    0    0  504  502  0.00000000000E+00  0.00000000000E+00  0.45102739405E+03  0.45102739405E+03  0.00000000000E+00 0. -1.
         21   -1    0    0  502  503 -0.00000000000E+00 -0.00000000000E+00 -0.14285756970E+03  0.14285756970E+03  0.00000000000E+00 0.  1.
         25    2    1    2    0    0 -0.23230244011E+02 -0.33122431657E+02  0.43832265658E+03  0.45758933120E+03  0.12499802017E+03 0.  0.
          5    1    3    3  501    0 -0.47819730448E+02 -0.65314145301E+02  0.19852422090E+03  0.21439342453E+03  0.10000000000E+00 0. -1.
         -5    1    3    3    0  501  0.24589486436E+02  0.32191713645E+02  0.23979843567E+03  0.24319590667E+03  0.10000000000E+00 0. -1.
         21    1    1    2  504  503  0.23230244011E+02  0.33122431657E+02 -0.13015283222E+03  0.13629563255E+03  0.00000000000E+00 0.  1.
<mgrwt>
<rscale>  1 0.13138206E+03</rscale>
<asrwt>0</asrwt>
<pdfrwt beam="1">  1       21 0.69388829E-01 0.13138206E+03</pdfrwt>
<pdfrwt beam="2">  1       21 0.21978088E-01 0.13138206E+03</pdfrwt>
<totfact> 0.37787164E+04</totfact>
</mgrwt>
</event>
<event>
 6    1  0.4259848E-002  0.1259649E+03  0.7546771E-02  0.1233569E+00
         21   -1    0    0  503  502  0.00000000000E+00  0.00000000000E+00  0.43737264122E+03  0.43737264122E+03  0.00000000000E+00 0.  1.
         21   -1    0    0  504  503 -0.00000000000E+00 -0.00000000000E+00 -0.12212460012E+02  0.12212460012E+02  0.00000000000E+00 0.  1.
         25    2    1    2    0    0  0.90833546242E+01  0.12661099748E+02  0.40480199955E+03  0.42394789510E+03  0.12499739253E+03 0.  0.
          5    1    3    3  501    0  0.11549641074E+02  0.57781772118E+02  0.33925313183E+03  0.34433243364E+03  0.10000000000E+00 0. -1.
         -5    1    3    3    0  501 -0.24662864495E+01 -0.45120672370E+02  0.65548867722E+02  0.79615461461E+02  0.10000000000E+00 0. -1.
         21    1    1    2  504  502 -0.90833546242E+01 -0.12661099748E+02  0.20358181655E+02  0.25637206134E+02  0.00000000000E+00 0.  1.
<mgrwt>
<rscale>  1 0.12596491E+03</rscale>
<asrwt>0</asrwt>
<pdfrwt beam="1">  1       21 0.67288086E-01 0.12596491E+03</pdfrwt>
<pdfrwt beam="2">  1       21 0.18788403E-02 0.12596491E+03</pdfrwt>
<totfact> 0.27353807E+06</totfact>
</mgrwt>
</event>
<event>
 6    1  0.4259848E-002  0.1273891E+03  0.7546771E-02  0.1231382E+00
         21   -1    0    0  503  502  0.00000000000E+00  0.00000000000E+00  0.30023247342E+02  0.30023247342E+02  0.00000000000E+00 0. -1.
         21   -1    0    0  504  503 -0.00000000000E+00 -0.00000000000E+00 -0.23580268638E+03  0.23580268638E+03  0.00000000000E+00 0. -1.
         25    2    1    2    0    0 -0.24109574316E+02 -0.45844585686E+01 -0.11442995978E+03  0.17123726529E+03  0.12500278595E+03 0.  0.
          5    1    3    3  501    0  0.18123174525E+02  0.17327013712E+02  0.17772725881E+02  0.30733607733E+02  0.10000000000E+00 0. -1.
         -5    1    3    3    0  501 -0.42232748841E+02 -0.21911472280E+02 -0.13220268566E+03  0.14050365756E+03  0.10000000000E+00 0. -1.
         21    1    1    2  504  502  0.24109574316E+02  0.45844585686E+01 -0.91349479255E+02  0.94588668424E+02  0.00000000000E+00 0. -1.
<mgrwt>
<rscale>  1 0.12738911E+03</rscale>
<asrwt>0</asrwt>
<pdfrwt beam="1">  1       21 0.46189611E-02 0.12738911E+03</pdfrwt>
<pdfrwt beam="2">  1       21 0.36277336E-01 0.12738911E+03</pdfrwt>
<totfact> 0.22392742E+06</totfact>
</mgrwt>
</event>
<event>
 6    1  0.4259848E-002  0.1271644E+03  0.7546771E-02  0.1231725E+00
         21   -1    0    0  503  502  0.00000000000E+00  0.00000000000E+00  0.25848352658E+03  0.25848352658E+03  0.00000000000E+00 0. -1.
         21   -1    0    0  504  503 -0.00000000000E+00 -0.00000000000E+00 -0.68920537754E+02  0.68920537754E+02  0.00000000000E+00 0.  1.
         25    2    1    2    0    0  0.99534676247E+01 -0.21155224543E+02  0.24011387205E+03  0.27170840169E+03  0.12499667577E+03 0.  0.
          5    1    3    3  501    0  0.39737713291E+02  0.25786840850E+02  0.34213399207E+02  0.58434696062E+02  0.10000000000E+00 0. -1.
         -5    1    3    3    0  501 -0.29784245666E+02 -0.46942065393E+02  0.20590047285E+03  0.21327370563E+03  0.10000000000E+00 0. -1.
         21    1    1    2  504  502 -0.99534676247E+01  0.21155224543E+02 -0.50550883224E+02  0.55695662649E+02  0.00000000000E+00 0.  1.
<mgrwt>
<rscale>  1 0.12716440E+03</rscale>
<asrwt>0</asrwt>
<pdfrwt beam="1">  1       21 0.39766696E-01 0.12716440E+03</pdfrwt>
<pdfrwt beam="2">  1       21 0.10603160E-01 0.12716440E+03</pdfrwt>
<totfact> 0.45017592E+05</totfact>
</mgrwt>
</event>
<event>
 6    1  0.4259848E-002  0.1317942E+03  0.7546771E-02  0.1224817E+00
         21   -1    0    0  503  502  0.00000000000E+00  0.00000000000E+00  0.99486781520E+02  0.99486781520E+02  0.00000000000E+00 0. -1.
         21   -1    0    0  504  503 -0.00000000000E+00 -0.00000000000E+00 -0.75886256340E+02  0.75886256340E+02  0.00000000000E+00 0. -1.
         25    2    1    2    0    0  0.40638743122E+02  0.97654774801E+01  0.14417331766E+02  0.13258047970E+03  0.12499140830E+03 0.  0.
          5    1    3    3  501    0 -0.39134132401E+02  0.23596816737E+02  0.23007491422E+02  0.51162923494E+02  0.10000000000E+00 0. -1.
         -5    1    3    3    0  501  0.79772875523E+02 -0.13831339257E+02 -0.85901596563E+01  0.81417556201E+02  0.10000000000E+00 0. -1.
         21    1    1    2  504  502 -0.40638743122E+02 -0.97654774801E+01  0.91831934145E+01  0.42792558164E+02  0.00000000000E+00 0. -1.
<mgrwt>
<rscale>  1 0.13179425E+03</rscale>
<asrwt>0</asrwt>
<pdfrwt beam="1">  1       21 0.15305659E-01 0.13179425E+03</pdfrwt>
<pdfrwt beam="2">  1       21 0.11674809E-01 0.13179425E+03</pdfrwt>
<totfact> 0.23147785E+06</totfact>
</mgrwt>
</event>
<event>
 6    1  0.4259848E-002  0.1320268E+03  0.7546771E-02  0.1224479E+00
         21   -1    0    0  504  502  0.00000000000E+00  0.00000000000E+00  0.38109682741E+02  0.38109682741E+02  0.00000000000E+00 0.  1.
         21   -1    0    0  502  503 -0.00000000000E+00 -0.00000000000E+00 -0.24312097612E+03  0.24312097612E+03  0.00000000000E+00 0.  1.
         25    2    1    2    0    0 -0.42306593774E+02 -0.40062702700E+01 -0.93179028057E+02  0.16159640939E+03  0.12500068072E+03 0.  0.
          5    1    3    3  501    0  0.37986477820E+02  0.70336874757E+01 -0.65328134655E+02  0.75896116067E+02  0.10000000000E+00 0.  1.
         -5    1    3    3    0  501 -0.80293071594E+02 -0.11039957746E+02 -0.27850893403E+02  0.85700293327E+02  0.10000000000E+00 0.  1.
         21    1    1    2  504  503  0.42306593774E+02  0.40062702700E+01 -0.11183226532E+03  0.11963424946E+03  0.00000000000E+00 0.  1.
<mgrwt>
<rscale>  1 0.13202677E+03</rscale>
<asrwt>0</asrwt>
<pdfrwt beam="1">  1       21 0.58630283E-02 0.13202677E+03</pdfrwt>
<pdfrwt beam="2">  1       21 0.37403226E-01 0.13202677E+03</pdfrwt>
<totfact> 0.14121383E+06</totfact>
</mgrwt>
</event>
<event>
 6    1  0.4259848E-002  0.1289908E+03  0.7546771E-02  0.1228961E+00
         21   -1    0    0  503  502  0.00000000000E+00  0.00000000000E+00  0.80421298448E+02  0.80421298448E+02  0.00000000000E+00 0.  1.
         21   -1    0    0  504  503 -0.00000000000E+00 -0.00000000000E+00 -0.88991672906E+02  0.88991672906E+02  0.00000000000E+00 0.  1.
         25    2    1    2    0    0 -0.17650835038E+02  0.26502009084E+02  0.14910326172E+02  0.12984970853E+03  0.12499888206E+03 0.  0.
          5    1    3    3  501    0 -0.83281829365E+01  0.56681909622E+02  0.54588683741E+02  0.79133633191E+02  0.10000000000E+00 0. -1.
         -5    1    3    3    0  501 -0.93226521017E+01 -0.30179900538E+02 -0.39678357569E+02  0.50716075342E+02  0.10000000000E+00 0. -1.
         21    1    1    2  504  502  0.17650835038E+02 -0.26502009084E+02 -0.23480700630E+02  0.39563262822E+02  0.00000000000E+00 0.  1.
<mgrwt>
<rscale>  1 0.12899081E+03</rscale>
<asrwt>0</asrwt>
<pdfrwt beam="1">  1       21 0.12372507E-01 0.12899081E+03</pdfrwt>
<pdfrwt beam="2">  1       21 0.13691027E-01 0.12899081E+03</pdfrwt>
<totfact> 0.25502466E+06</totfact>
</mgrwt>
</event>
<event>
 6    1  0.4259848E-002  0.1495357E+03  0.7546771E-02  0.1201045E+00
         21   -1    0    0  503  502  0.00000000000E+00  0.00000000000E+00  0.10047219682E+03  0.10047219682E+03  0.00000000000E+00 0. -1.
         21   -1    0    0  504  503 -0.00000000000E+00 -0.00000000000E+00 -0.14114362854E+03  0.14114362854E+03  0.00000000000E+00 0. -1.
         25    2    1    2    0    0 -0.81877176525E+02 -0.58668392117E+01  0.10393015620E+01  0.14953935112E+03  0.12499058183E+03 0.  0.
          5    1    3    3  501    0 -0.93081282682E+02 -0.46407096785E+02  0.15299235558E+02  0.10512763874E+03  0.10000000000E+00 0. -1.
         -5    1    3    3    0  501  0.11204106157E+02  0.40540257574E+02 -0.14259933996E+02  0.44411712380E+02  0.10000000000E+00 0. -1.
         21    1    1    2  504  502  0.81877176525E+02  0.58668392117E+01 -0.41710733283E+02  0.92076474244E+02  0.00000000000E+00 0. -1.
<mgrwt>
<rscale>  1 0.14953574E+03</rscale>
<asrwt>0</asrwt>
<pdfrwt beam="1">  1       21 0.15457261E-01 0.14953574E+03</pdfrwt>
<pdfrwt beam="2">  1       21 0.21714404E-01 0.14953574E+03</pdfrwt>
<totfact> 0.73755581E+05</totfact>
</mgrwt>
</event>
<event>
 6    1  0.4259848E-002  0.1266266E+03  0.7546771E-02  0.1232549E+00
         21   -1    0    0  504  502  0.00000000000E+00  0.00000000000E+00  0.80772486813E+02  0.80772486813E+02  0.00000000000E+00 0. -1.
         21   -1    0    0  502  503 -0.00000000000E+00 -0.00000000000E+00 -0.84502276145E+02  0.84502276145E+02  0.00000000000E+00 0. -1.
         25    2    1    2    0    0 -0.10820871720E+02 -0.17165294110E+02  0.26011665037E+02  0.12927069798E+03  0.12499027183E+03 0.  0.
          5    1    3    3  501    0  0.52668684727E+02  0.12978322225E+02 -0.24317720849E+00  0.54244781628E+02  0.10000000000E+00 0.  1.
         -5    1    3    3    0  501 -0.63489556448E+02 -0.30143616335E+02  0.26254842246E+02  0.75025916356E+02  0.10000000000E+00 0.  1.
         21    1    1    2  504  503  0.10820871720E+02  0.17165294110E+02 -0.29741454369E+02  0.36004064974E+02  0.00000000000E+00 0. -1.
<mgrwt>
<rscale>  1 0.12662664E+03</rscale>
<asrwt>0</asrwt>
<pdfrwt beam="1">  1       21 0.12426536E-01 0.12662664E+03</pdfrwt>
<pdfrwt beam="2">  1       21 0.13000350E-01 0.12662664E+03</pdfrwt>
<totfact> 0.27738289E+06</totfact>
</mgrwt>
</event>
<event>
 6    1  0.4259848E-002  0.1316481E+03  0.7546771E-02  0.1225031E+00
         21   -1    0    0  504  502  0.00000000000E+00  0.00000000000E+00  0.21029673674E+03  0.21029673674E+03  0.00000000000E+00 0. -1.
         21   -1    0    0  502  503 -0.00000000000E+00 -0.00000000000E+00 -0.11712678651E+03  0.11712678651E+03  0.00000000000E+00 0.  1.
         25    2    1    2    0    0 -0.28446001674E+02  0.29865313115E+02  0.18482421251E+03  0.22691672879E+03  0.12502039968E+03 0.  0.
          5    1    3    3  501    0 -0.59852800318E+02  0.48551200936E+02  0.17149539597E+03  0.18801664197E+03  0.10000000000E+00 0.  1.
         -5    1    3    3    0  501  0.31406798645E+02 -0.18685887821E+02  0.13328816546E+02  0.38900086828E+02  0.10000000000E+00 0.  1.
         21    1    1    2  504  503  0.28446001674E+02 -0.29865313115E+02 -0.91654262280E+02  0.10050679446E+03  0.00000000000E+00 0.  1.
<mgrwt>
<rscale>  1 0.13164806E+03</rscale>
<asrwt>0</asrwt>
<pdfrwt beam="1">  1       21 0.32353344E-01 0.13164806E+03</pdfrwt>
<pdfrwt beam="2">  1       21 0.18019506E-01 0.13164806E+03</pdfrwt>
<totfact> 0.26121823E+05</totfact>
</mgrwt>
</event>
<event>
 6    1  0.4259848E-002  0.1382087E+03  0.7546771E-02  0.1215760E+00
         21   -1    0    0  504  502  0.00000000000E+00  0.00000000000E+00  0.29978175551E+03  0.29978175551E+03  0.00000000000E+00 0.  1.
         21   -1    0    0  502  503 -0.00000000000E+00 -0.00000000000E+00 -0.52151559878E+02  0.52151559878E+02  0.00000000000E+00 0.  1.
         25    2    1    2    0    0 -0.58645112716E+02  0.60113377636E+01  0.25741787368E+03  0.29217393062E+03  0.12500503435E+03 0.  0.
          5    1    3    3  501    0 -0.15377858615E+02 -0.12351845068E+02  0.24186023956E+03  0.24266320713E+03  0.10000000000E+00 0. -1.
         -5    1    3    3    0  501 -0.43267254101E+02  0.18363182832E+02  0.15557634121E+02  0.49510723491E+02  0.10000000000E+00 0. -1.
         21    1    1    2  504  503  0.58645112716E+02 -0.60113377636E+01 -0.97876780463E+01  0.59759384775E+02  0.00000000000E+00 0.  1.
<mgrwt>
<rscale>  1 0.13820870E+03</rscale>
<asrwt>0</asrwt>
<pdfrwt beam="1">  1       21 0.46120269E-01 0.13820870E+03</pdfrwt>
<pdfrwt beam="2">  1       21 0.80233171E-02 0.13820870E+03</pdfrwt>
<totfact> 0.54171829E+05</totfact>
</mgrwt>
</event>
<event>
 6    1  0.4259848E-002  0.1290957E+03  0.7546771E-02  0.1228804E+00
         21   -1    0    0  503  502  0.00000000000E+00  0.00000000000E+00  0.30923532345E+02  0.30923532345E+02  0.00000000000E+00 0. -1.
         21   -1    0    0  504  503 -0.00000000000E+00 -0.00000000000E+00 -0.33945994601E+03  0.33945994601E+03  0.00000000000E+00 0. -1.
         25    2    1    2    0    0 -0.72439758317E+01 -0.31438160819E+02 -0.11107447436E+03  0.17030336786E+03  0.12499946043E+03 0.  0.
          5    1    3    3  501    0 -0.36277436952E+02  0.35831665217E+02 -0.69058582269E+02  0.85843220170E+02  0.10000000000E+00 0.  1.
         -5    1    3    3    0  501  0.29033461120E+02 -0.67269826036E+02 -0.42015892090E+02  0.84460147689E+02  0.10000000000E+00 0.  1.
         21    1    1    2  504  502  0.72439758317E+01  0.31438160819E+02 -0.19746193930E+03  0.20008011049E+03  0.00000000000E+00 0.  1.
<mgrwt>
<rscale>  1 0.12909569E+03</rscale>
<asrwt>0</asrwt>
<pdfrwt beam="1">  1       21 0.47574663E-02 0.12909569E+03</pdfrwt>
<pdfrwt beam="2">  1       21 0.52224610E-01 0.12909569E+03</pdfrwt>
<totfact> 0.10200830E+06</totfact>
</mgrwt>
</event>
<event>
 6    1  0.4259848E-002  0.1361406E+03  0.7546771E-02  0.1218619E+00
         21   -1    0    0  503  502  0.00000000000E+00  0.00000000000E+00  0.29402953295E+03  0.29402953295E+03  0.00000000000E+00 0. -1.
         21   -1    0    0  504  503 -0.00000000000E+00 -0.00000000000E+00 -0.39905012824E+02  0.39905012824E+02  0.00000000000E+00 0. -1.
         25    2    1    2    0    0  0.47001690502E+02 -0.26507765062E+02  0.24344589176E+03  0.27892678612E+03  0.12498971670E+03 0.  0.
          5    1    3    3  501    0 -0.18136199162E+02  0.42415371006E+01  0.18563121172E+03  0.18656331130E+03  0.10000000000E+00 0.  1.
         -5    1    3    3    0  501  0.65137889663E+02 -0.30749302163E+02  0.57814680040E+02  0.92363474823E+02  0.10000000000E+00 0.  1.
         21    1    1    2  504  502 -0.47001690502E+02  0.26507765062E+02  0.10678628366E+02  0.55007759656E+02  0.00000000000E+00 0. -1.
<mgrwt>
<rscale>  1 0.13614055E+03</rscale>
<asrwt>0</asrwt>
<pdfrwt beam="1">  1       21 0.45235311E-01 0.13614055E+03</pdfrwt>
<pdfrwt beam="2">  1       21 0.61392329E-02 0.13614055E+03</pdfrwt>
<totfact> 0.89159311E+05</totfact>
</mgrwt>
</event>
<event>
 6    1  0.4259848E-002  0.1273626E+03  0.7546771E-02  0.1231422E+00
         21   -1    0    0  503  502  0.00000000000E+00  0.00000000000E+00  0.32138528335E+03  0.32138528335E+03  0.00000000000E+00 0.  1.
         21   -1    0    0  504  503 -0.00000000000E+00 -0.00000000000E+00 -0.29315742090E+02  0.29315742090E+02  0.00000000000E+00 0.  1.
         25    2    1    2    0    0  0.21386613691E+02  0.11759169467E+02  0.29927881902E+03  0.32525227306E+03  0.12500225721E+03 0.  0.
          5    1    3    3  501    0 -0.69201420880E+01 -0.49230559918E+02  0.19451326569E+03  0.20076592571E+03  0.10000000000E+00 0.  1.
         -5    1    3    3    0  501  0.28306755779E+02  0.60989729385E+02  0.10476555333E+03  0.12448634736E+03  0.10000000000E+00 0.  1.
         21    1    1    2  504  502 -0.21386613691E+02 -0.11759169467E+02 -0.72092777594E+01  0.25448752377E+02  0.00000000000E+00 0.  1.
<mgrwt>
<rscale>  1 0.12736259E+03</rscale>
<asrwt>0</asrwt>
<pdfrwt beam="1">  1       21 0.49443887E-01 0.12736259E+03</pdfrwt>
<pdfrwt beam="2">  1       21 0.45101144E-02 0.12736259E+03</pdfrwt>
<totfact> 0.12488319E+06</totfact>
</mgrwt>
</event>
<event>
 6    1  0.4259848E-002  0.1293251E+03  0.7546771E-02  0.1228461E+00
         21   -1    0    0  504  502  0.00000000000E+00  0.00000000000E+00  0.39030508422E+02  0.39030508422E+02  0.00000000000E+00 0.  1.
         21   -1    0    0  502  503 -0.00000000000E+00 -0.00000000000E+00 -0.19812054412E+03  0.19812054412E+03  0.00000000000E+00 0.  1.
         25    2    1    2    0    0  0.23736487359E+02 -0.23153992713E+02 -0.81735924145E+02  0.15298938202E+03  0.12500184601E+03 0.  0.
          5    1    3    3  501    0  0.42129855039E+02 -0.35593612953E+02  0.12181938387E+02  0.56482205973E+02  0.10000000000E+00 0. -1.
         -5    1    3    3    0  501 -0.18393367680E+02  0.12439620241E+02 -0.93917862532E+02  0.96507176049E+02  0.10000000000E+00 0. -1.
         21    1    1    2  504  503 -0.23736487359E+02  0.23153992713E+02 -0.77354111554E+02  0.84161670521E+02  0.00000000000E+00 0.  1.
<mgrwt>
<rscale>  1 0.12932513E+03</rscale>
<asrwt>0</asrwt>
<pdfrwt beam="1">  1       21 0.60046936E-02 0.12932513E+03</pdfrwt>
<pdfrwt beam="2">  1       21 0.30480084E-01 0.12932513E+03</pdfrwt>
<totfact> 0.20232203E+06</totfact>
</mgrwt>
</event>
<event>
 6    1  0.4259848E-002  0.1269205E+03  0.7546771E-02  0.1232098E+00
         21   -1    0    0  503  502  0.00000000000E+00  0.00000000000E+00  0.91493705841E+03  0.91493705841E+03  0.00000000000E+00 0.  1.
         21   -1    0    0  504  503 -0.00000000000E+00 -0.00000000000E+00 -0.85360956506E+01  0.85360956506E+01  0.00000000000E+00 0.  1.
         25    2    1    2    0    0  0.21986181544E+02 -0.71859415750E+00  0.88001363727E+03  0.88911912223E+03  0.12499961272E+03 0.  0.
          5    1    3    3  501    0 -0.38881423761E+02 -0.26370281035E+02  0.58102738160E+03  0.58292365281E+03  0.10000000000E+00 0.  1.
         -5    1    3    3    0  501  0.60867605305E+02  0.25651686877E+02  0.29898625567E+03  0.30619546942E+03  0.10000000000E+00 0.  1.
         21    1    1    2  504  502 -0.21986181544E+02  0.71859415750E+00  0.26387325490E+02  0.34354031830E+02  0.00000000000E+00 0.  1.
<mgrwt>
<rscale>  1 0.12692049E+03</rscale>
<asrwt>0</asrwt>
<pdfrwt beam="1">  1       21 0.14075947E+00 0.12692049E+03</pdfrwt>
<pdfrwt beam="2">  1       21 0.13132462E-02 0.12692049E+03</pdfrwt>
<totfact> 0.86682546E+05</totfact>
</mgrwt>
</event>
<event>
 6    1  0.4259848E-002  0.1263189E+03  0.7546771E-02  0.1233022E+00
         21   -1    0    0  504  502  0.00000000000E+00  0.00000000000E+00  0.82735280820E+03  0.82735280820E+03  0.00000000000E+00 0.  1.
         21   -1    0    0  502  503 -0.00000000000E+00 -0.00000000000E+00 -0.80559910835E+01  0.80559910835E+01  0.00000000000E+00 0.  1.
         25    2    1    2    0    0  0.53341038402E+01  0.17306708567E+02  0.79569577552E+03  0.80566011881E+03  0.12501393939E+03 0.  0.
          5    1    3    3  501    0  0.47523908702E+02 -0.77689195817E+01  0.65274388256E+03  0.65451773409E+03  0.10000000000E+00 0.  1.
         -5    1    3    3    0  501 -0.42189804861E+02  0.25075628149E+02  0.14295189295E+03  0.15114238473E+03  0.10000000000E+00 0.  1.
         21    1    1    2  504  503 -0.53341038402E+01 -0.17306708567E+02  0.23601041595E+02  0.29748680468E+02  0.00000000000E+00 0.  1.
<mgrwt>
<rscale>  1 0.12631888E+03</rscale>
<asrwt>0</asrwt>
<pdfrwt beam="1">  1       21 0.12728498E+00 0.12631888E+03</pdfrwt>
<pdfrwt beam="2">  1       21 0.12393839E-02 0.12631888E+03</pdfrwt>
<totfact> 0.12227476E+06</totfact>
</mgrwt>
</event>
<event>
 6    1  0.4259848E-002  0.1273902E+03  0.7546771E-02  0.1231380E+00
         21   -1    0    0  503  502  0.00000000000E+00  0.00000000000E+00  0.88227071376E+02  0.88227071376E+02  0.00000000000E+00 0. -1.
         21   -1    0    0  504  503 -0.00000000000E+00 -0.00000000000E+00 -0.66739635791E+02  0.66739635791E+02  0.00000000000E+00 0. -1.
         25    2    1    2    0    0 -0.72808864873E+01 -0.23421679786E+02  0.26029754037E+02  0.13002238820E+03  0.12500674760E+03 0.  0.
          5    1    3    3  501    0 -0.42528642479E+02 -0.55174213649E+02 -0.10098883279E+02  0.70390885251E+02  0.10000000000E+00 0.  1.
         -5    1    3    3    0  501  0.35247755992E+02  0.31752533863E+02  0.36128637316E+02  0.59631502945E+02  0.10000000000E+00 0.  1.
         21    1    1    2  504  502  0.72808864873E+01  0.23421679786E+02 -0.45423184523E+01  0.24944318971E+02  0.00000000000E+00 0. -1.
<mgrwt>
<rscale>  1 0.12739024E+03</rscale>
<asrwt>0</asrwt>
<pdfrwt beam="1">  1       21 0.13573396E-01 0.12739024E+03</pdfrwt>
<pdfrwt beam="2">  1       21 0.10267636E-01 0.12739024E+03</pdfrwt>
<totfact> 0.35965713E+06</totfact>
</mgrwt>
</event>
<event>
 6    1  0.4259848E-002  0.1611988E+03  0.7546771E-02  0.1187350E+00
         21   -1    0    0  503  502  0.00000000000E+00  0.00000000000E+00  0.18861262232E+02  0.18861262232E+02  0.00000000000E+00 0.  1.
         21   -1    0    0  504  503 -0.00000000000E+00 -0.00000000000E+00 -0.91877885837E+03  0.91877885837E+03  0.00000000000E+00 0.  1.
         25    2    1    2    0    0 -0.84534906093E+02 -0.56691508187E+02 -0.57312859239E+03  0.59536664746E+03  0.12499993616E+03 0.  0.
          5    1    3    3  501    0 -0.76745395535E+01 -0.78793506919E+02 -0.23773878636E+03  0.25057345396E+03  0.10000000000E+00 0. -1.
         -5    1    3    3    0  501 -0.76860366539E+02  0.22101998731E+02 -0.33538980603E+03  0.34479319350E+03  0.10000000000E+00 0. -1.
         21    1    1    2  504  502  0.84534906093E+02  0.56691508187E+02 -0.32678900375E+03  0.34227347314E+03  0.00000000000E+00 0.  1.
<mgrwt>
<rscale>  1 0.16119883E+03</rscale>
<asrwt>0</asrwt>
<pdfrwt beam="1">  1       21 0.29017327E-02 0.16119883E+03</pdfrwt>
<pdfrwt beam="2">  1       21 0.14135059E+00 0.16119883E+03</pdfrwt>
<totfact> 0.23611251E+05</totfact>
</mgrwt>
</event>
<event>
 6    1  0.4259848E-002  0.1355903E+03  0.7546771E-02  0.1219389E+00
         21   -1    0    0  503  502  0.00000000000E+00  0.00000000000E+00  0.12558728639E+02  0.12558728639E+02  0.00000000000E+00 0.  1.
         21   -1    0    0  504  503 -0.00000000000E+00 -0.00000000000E+00 -0.76097886617E+03  0.76097886617E+03  0.00000000000E+00 0.  1.
         25    2    1    2    0    0 -0.42370983647E+01 -0.52369469220E+02 -0.62249900577E+03  0.63709476527E+03  0.12499685372E+03 0.  0.
          5    1    3    3  501    0 -0.34700570138E+02  0.13396165165E+02 -0.42658713085E+03  0.42820576481E+03  0.10000000000E+00 0.  1.
         -5    1    3    3    0  501  0.30463471773E+02 -0.65765634385E+02 -0.19591187492E+03  0.20888900046E+03  0.10000000000E+00 0.  1.
         21    1    1    2  504  502  0.42370983647E+01  0.52369469220E+02 -0.12592113176E+03  0.13644282954E+03  0.00000000000E+00 0.  1.
<mgrwt>
<rscale>  1 0.13559029E+03</rscale>
<asrwt>0</asrwt>
<pdfrwt beam="1">  1       21 0.19321122E-02 0.13559029E+03</pdfrwt>
<pdfrwt beam="2">  1       21 0.11707366E+00 0.13559029E+03</pdfrwt>
<totfact> 0.73747208E+05</totfact>
</mgrwt>
</event>
<event>
 6    1  0.4259848E-002  0.1278012E+03  0.7546771E-02  0.1230755E+00
         21   -1    0    0  503  502  0.00000000000E+00  0.00000000000E+00  0.14269281944E+02  0.14269281944E+02  0.00000000000E+00 0. -1.
         21   -1    0    0  504  503 -0.00000000000E+00 -0.00000000000E+00 -0.53011607128E+03  0.53011607128E+03  0.00000000000E+00 0. -1.
         25    2    1    2    0    0 -0.24781572046E+02  0.97069105026E+01 -0.28918429974E+03  0.31616564633E+03  0.12499922511E+03 0.  0.
          5    1    3    3  501    0  0.48127601930E+02 -0.10553955702E+02 -0.14791756079E+03  0.15590787934E+03  0.10000000000E+00 0. -1.
         -5    1    3    3    0  501 -0.72909173976E+02  0.20260866205E+02 -0.14126673895E+03  0.16025776700E+03  0.10000000000E+00 0. -1.
         21    1    1    2  504  502  0.24781572046E+02 -0.97069105026E+01 -0.22666248960E+03  0.22821970689E+03  0.00000000000E+00 0. -1.
<mgrwt>
<rscale>  1 0.12780124E+03</rscale>
<asrwt>0</asrwt>
<pdfrwt beam="1">  1       21 0.21952742E-02 0.12780124E+03</pdfrwt>
<pdfrwt beam="2">  1       21 0.81556317E-01 0.12780124E+03</pdfrwt>
<totfact> 0.13936045E+06</totfact>
</mgrwt>
</event>
<event>
 6    1  0.4259848E-002  0.1319904E+03  0.7546771E-02  0.1224532E+00
         21   -1    0    0  503  502  0.00000000000E+00  0.00000000000E+00  0.85636647067E+02  0.85636647067E+02  0.00000000000E+00 0. -1.
         21   -1    0    0  504  503 -0.00000000000E+00 -0.00000000000E+00 -0.13483448698E+03  0.13483448698E+03  0.00000000000E+00 0. -1.
         25    2    1    2    0    0 -0.25032759708E+02 -0.34200059757E+02  0.25647242367E+02  0.13445910298E+03  0.12500074475E+03 0.  0.
          5    1    3    3  501    0  0.26147151037E+02 -0.14784477345E+02  0.61900434489E+02  0.68803546911E+02  0.10000000000E+00 0. -1.
         -5    1    3    3    0  501 -0.51179910745E+02 -0.19415582412E+02 -0.36253192121E+02  0.65655556073E+02  0.10000000000E+00 0. -1.
         21    1    1    2  504  502  0.25032759708E+02  0.34200059757E+02 -0.74845082277E+02  0.86012031060E+02  0.00000000000E+00 0. -1.
<mgrwt>
<rscale>  1 0.13199041E+03</rscale>
<asrwt>0</asrwt>
<pdfrwt beam="1">  1       21 0.13174869E-01 0.13199041E+03</pdfrwt>
<pdfrwt beam="2">  1       21 0.20743767E-01 0.13199041E+03</pdfrwt>
<totfact> 0.10703707E+06</totfact>
</mgrwt>
</event>
<event>
 6    1  0.4259848E-002  0.1298432E+03  0.7546771E-02  0.1227689E+00
         21   -1    0    0  504  502  0.00000000000E+00  0.00000000000E+00  0.22471115972E+03  0.22471115972E+03  0.00000000000E+00 0.  1.
         21   -1    0    0  502  503 -0.00000000000E+00 -0.00000000000E+00 -0.38924658403E+02  0.38924658403E+02  0.00000000000E+00 0.  1.
         25    2    1    2    0    0 -0.35137904074E+02  0.70238710894E+00  0.18793321509E+03  0.22842539310E+03  0.12499640487E+03 0.  0.
          5    1    3    3  501    0 -0.67089827323E+02  0.37298443671E+02  0.14275138841E+03  0.16208080616E+03  0.10000000000E+00 0. -1.
         -5    1    3    3    0  501  0.31951923249E+02 -0.36596056562E+02  0.45181826676E+02  0.66344586946E+02  0.10000000000E+00 0. -1.
         21    1    1    2  504  503  0.35137904074E+02 -0.70238710894E+00 -0.21467137698E+01  0.35210425024E+02  0.00000000000E+00 0.  1.
<mgrwt>
<rscale>  1 0.12984324E+03</rscale>
<asrwt>0</asrwt>
<pdfrwt beam="1">  1       21 0.34570947E-01 0.12984324E+03</pdfrwt>
<pdfrwt beam="2">  1       21 0.59884091E-02 0.12984324E+03</pdfrwt>
<totfact> 0.15907230E+06</totfact>
</mgrwt>
</event>
<event>
 6    1  0.4259848E-002  0.1269375E+03  0.7546771E-02  0.1232072E+00
         21   -1    0    0  504  502  0.00000000000E+00  0.00000000000E+00  0.10547952064E+02  0.10547952064E+02  0.00000000000E+00 0. -1.
         21   -1    0    0  502  503 -0.00000000000E+00 -0.00000000000E+00 -0.53476870929E+03  0.53476870929E+03  0.00000000000E+00 0. -1.
         25    2    1    2    0    0 -0.11064658111E+02  0.19066176915E+02 -0.41874853073E+03  0.43756539072E+03  0.12500877332E+03 0.  0.
          5    1    3    3  501    0 -0.60113857705E+02  0.30307467787E+02 -0.15392564088E+03  0.16800396249E+03  0.10000000000E+00 0. -1.
         -5    1    3    3    0  501  0.49049199593E+02 -0.11241290872E+02 -0.26482288985E+03  0.26956142823E+03  0.10000000000E+00 0. -1.
         21    1    1    2  504  503  0.11064658111E+02 -0.19066176915E+02 -0.10547222650E+03  0.10775127064E+03  0.00000000000E+00 0. -1.
<mgrwt>
<rscale>  1 0.12693754E+03</rscale>
<asrwt>0</asrwt>
<pdfrwt beam="1">  1       21 0.16227623E-02 0.12693754E+03</pdfrwt>
<pdfrwt beam="2">  1       21 0.82272087E-01 0.12693754E+03</pdfrwt>
<totfact> 0.22224109E+06</totfact>
</mgrwt>
</event>
<event>
 6    1  0.4259848E-002  0.1289323E+03  0.7546771E-02  0.1229049E+00
         21   -1    0    0  504  502  0.00000000000E+00  0.00000000000E+00  0.61996019098E+02  0.61996019098E+02  0.00000000000E+00 0. -1.
         21   -1    0    0  502  503 -0.00000000000E+00 -0.00000000000E+00 -0.10414429621E+03  0.10414429621E+03  0.00000000000E+00 0. -1.
         25    2    1    2    0    0  0.28067708261E+02 -0.14553273137E+02 -0.30907379216E+02  0.13258511018E+03  0.12499580531E+03 0.  0.
          5    1    3    3  501    0 -0.39743749952E+02 -0.20639355653E+02  0.18509063778E+02  0.48457652687E+02  0.10000000000E+00 0.  1.
         -5    1    3    3    0  501  0.67811458213E+02  0.60860825162E+01 -0.49416442994E+02  0.84127457489E+02  0.10000000000E+00 0.  1.
         21    1    1    2  504  503 -0.28067708261E+02  0.14553273137E+02 -0.11240897897E+02  0.33555205133E+02  0.00000000000E+00 0. -1.
<mgrwt>
<rscale>  1 0.12893233E+03</rscale>
<asrwt>0</asrwt>
<pdfrwt beam="1">  1       21 0.95378491E-02 0.12893233E+03</pdfrwt>
<pdfrwt beam="2">  1       21 0.16022199E-01 0.12893233E+03</pdfrwt>
<totfact> 0.30367467E+06</totfact>
</mgrwt>
</event>
<event>
 6    1  0.4259848E-002  0.1259308E+03  0.7546771E-02  0.1233622E+00
         21   -1    0    0  503  502  0.00000000000E+00  0.00000000000E+00  0.30753546641E+02  0.30753546641E+02  0.00000000000E+00 0. -1.
         21   -1    0    0  504  503 -0.00000000000E+00 -0.00000000000E+00 -0.19719259017E+03  0.19719259017E+03  0.00000000000E+00 0. -1.
         25    2    1    2    0    0 -0.12701967372E+02 -0.84061651259E+01 -0.10295396665E+03  0.16265939564E+03  0.12500622445E+03 0.  0.
          5    1    3    3  501    0  0.20132897576E+02 -0.60820946447E+02 -0.53593475208E+02  0.83527191239E+02  0.10000000000E+00 0. -1.
         -5    1    3    3    0  501 -0.32834864947E+02  0.52414781321E+02 -0.49360491444E+02  0.79132204397E+02  0.10000000000E+00 0. -1.
         21    1    1    2  504  502  0.12701967372E+02  0.84061651259E+01 -0.63485076880E+02  0.65286741178E+02  0.00000000000E+00 0. -1.
<mgrwt>
<rscale>  1 0.12593077E+03</rscale>
<asrwt>0</asrwt>
<pdfrwt beam="1">  1       21 0.47313149E-02 0.12593077E+03</pdfrwt>
<pdfrwt beam="2">  1       21 0.30337321E-01 0.12593077E+03</pdfrwt>
<totfact> 0.30477403E+06</totfact>
</mgrwt>
</event>
<event>
 6    1  0.4259848E-002  0.1472017E+03  0.7546771E-02  0.1203954E+00
         21   -1    0    0  503  502  0.00000000000E+00  0.00000000000E+00  0.46222783292E+03  0.46222783292E+03  0.00000000000E+00 0.  1.
         21   -1    0    0  504  503 -0.00000000000E+00 -0.00000000000E+00 -0.97666328576E+02  0.97666328576E+02  0.00000000000E+00 0. -1.
         25    2    1    2    0    0 -0.57551645185E+02 -0.52261515937E+02  0.43236749026E+03  0.45673840724E+03  0.12499947240E+03 0.  0.
          5    1    3    3  501    0  0.34739196296E+02 -0.59880537743E+01  0.53605348755E+02  0.64157711636E+02  0.10000000000E+00 0. -1.
         -5    1    3    3    0  501 -0.92290841481E+02 -0.46273462163E+02  0.37876214150E+03  0.39258069560E+03  0.10000000000E+00 0. -1.
         21    1    1    2  504  502  0.57551645185E+02  0.52261515937E+02 -0.67805985913E+02  0.10315575426E+03  0.00000000000E+00 0. -1.
<mgrwt>
<rscale>  1 0.14720165E+03</rscale>
<asrwt>0</asrwt>
<pdfrwt beam="1">  1       21 0.71111973E-01 0.14720165E+03</pdfrwt>
<pdfrwt beam="2">  1       21 0.15025589E-01 0.14720165E+03</pdfrwt>
<totfact> 0.71416047E+04</totfact>
</mgrwt>
</event>
<event>
 6    1  0.4259848E-002  0.1265427E+03  0.7546771E-02  0.1232678E+00
         21   -1    0    0  504  502  0.00000000000E+00  0.00000000000E+00  0.11697714578E+03  0.11697714578E+03  0.00000000000E+00 0. -1.
         21   -1    0    0  502  503 -0.00000000000E+00 -0.00000000000E+00 -0.68135513261E+02  0.68135513261E+02  0.00000000000E+00 0. -1.
         25    2    1    2    0    0  0.19211307896E+02 -0.44341650993E+01  0.78929190459E+02  0.14914048488E+03  0.12499732378E+03 0.  0.
          5    1    3    3  501    0 -0.34697006345E+02 -0.27990021697E+02  0.78539014364E+02  0.90308971543E+02  0.10000000000E+00 0.  1.
         -5    1    3    3    0  501  0.53908314241E+02  0.23555856598E+02  0.39017609493E+00  0.58831513339E+02  0.10000000000E+00 0.  1.
         21    1    1    2  504  503 -0.19211307896E+02  0.44341650993E+01 -0.30087557938E+02  0.35972174161E+02  0.00000000000E+00 0. -1.
<mgrwt>
<rscale>  1 0.12654275E+03</rscale>
<asrwt>0</asrwt>
<pdfrwt beam="1">  1       21 0.17996484E-01 0.12654275E+03</pdfrwt>
<pdfrwt beam="2">  1       21 0.10482387E-01 0.12654275E+03</pdfrwt>
<totfact> 0.20821697E+06</totfact>
</mgrwt>
</event>
<event>
 6    1  0.4259848E-002  0.1291130E+03  0.7546771E-02  0.1228778E+00
         21   -1    0    0  504  502  0.00000000000E+00  0.00000000000E+00  0.11791259281E+03  0.11791259281E+03  0.00000000000E+00 0.  1.
         21   -1    0    0  502  503 -0.00000000000E+00 -0.00000000000E+00 -0.93136229343E+02  0.93136229343E+02  0.00000000000E+00 0.  1.
         25    2    1    2    0    0  0.10314716588E+02 -0.30632505770E+02  0.76486519368E+02  0.15006780862E+03  0.12500166299E+03 0.  0.
          5    1    3    3  501    0 -0.16608054397E+02  0.14775846483E+02 -0.26349261997E+02  0.34473855571E+02  0.10000000000E+00 0.  1.
         -5    1    3    3    0  501  0.26922770985E+02 -0.45408352253E+02  0.10283578136E+03  0.11559395305E+03  0.10000000000E+00 0.  1.
         21    1    1    2  504  503 -0.10314716588E+02  0.30632505770E+02 -0.51710155903E+02  0.60981013533E+02  0.00000000000E+00 0.  1.
<mgrwt>
<rscale>  1 0.12911297E+03</rscale>
<asrwt>0</asrwt>
<pdfrwt beam="1">  1       21 0.18140399E-01 0.12911297E+03</pdfrwt>
<pdfrwt beam="2">  1       21 0.14328651E-01 0.12911297E+03</pdfrwt>
<totfact> 0.11790057E+06</totfact>
</mgrwt>
</event>
<event>
 6    1  0.4259848E-002  0.1272281E+03  0.7546771E-02  0.1231628E+00
         21   -1    0    0  503  502  0.00000000000E+00  0.00000000000E+00  0.70154270676E+02  0.70154270676E+02  0.00000000000E+00 0.  1.
         21   -1    0    0  504  503 -0.00000000000E+00 -0.00000000000E+00 -0.95365764482E+02  0.95365764482E+02  0.00000000000E+00 0.  1.
         25    2    1    2    0    0  0.21458219698E+02 -0.10215555267E+02  0.47020068942E+01  0.12731492704E+03  0.12498867556E+03 0.  0.
          5    1    3    3  501    0  0.39661576673E+02 -0.19495246099E+02  0.56442620148E+02  0.71686014353E+02  0.10000000000E+00 0. -1.
         -5    1    3    3    0  501 -0.18203356975E+02  0.92796908325E+01 -0.51740613254E+02  0.55628912690E+02  0.10000000000E+00 0. -1.
         21    1    1    2  504  502 -0.21458219698E+02  0.10215555267E+02 -0.29913500700E+02  0.38205108116E+02  0.00000000000E+00 0.  1.
<mgrwt>
<rscale>  1 0.12722807E+03</rscale>
<asrwt>0</asrwt>
<pdfrwt beam="1">  1       21 0.10792965E-01 0.12722807E+03</pdfrwt>
<pdfrwt beam="2">  1       21 0.14671656E-01 0.12722807E+03</pdfrwt>
<totfact> 0.28657322E+06</totfact>
</mgrwt>
</event>
<event>
 6    1  0.4259848E-002  0.1280202E+03  0.7546771E-02  0.1230423E+00
         21   -1    0    0  503  502  0.00000000000E+00  0.00000000000E+00  0.20818484042E+03  0.20818484042E+03  0.00000000000E+00 0. -1.
         21   -1    0    0  504  503 -0.00000000000E+00 -0.00000000000E+00 -0.46996795552E+03  0.46996795552E+03  0.00000000000E+00 0.  1.
         25    2    1    2    0    0 -0.95317425234E+01 -0.25957695055E+02  0.18803900042E+03  0.22748152808E+03  0.12499809554E+03 0.  0.
          5    1    3    3  501    0  0.38975972961E+02 -0.30935121552E+02  0.21958023155E+02  0.54390008224E+02  0.10000000000E+00 0.  1.
         -5    1    3    3    0  501 -0.48507715485E+02  0.49774264971E+01  0.16608097727E+03  0.17309151986E+03  0.10000000000E+00 0.  1.
         21    1    1    2  504  502  0.95317425234E+01  0.25957695055E+02 -0.44982211553E+03  0.45067126785E+03  0.00000000000E+00 0.  1.
<mgrwt>
<rscale>  1 0.12802023E+03</rscale>
<asrwt>0</asrwt>
<pdfrwt beam="1">  1       21 0.32028437E-01 0.12802023E+03</pdfrwt>
<pdfrwt beam="2">  1       21 0.72302761E-01 0.12802023E+03</pdfrwt>
<totfact> 0.16906945E+04</totfact>
</mgrwt>
</event>
<event>
 6    1  0.4259848E-002  0.1525137E+03  0.7546771E-02  0.1197418E+00
         21   -1    0    0  503  502  0.00000000000E+00  0.00000000000E+00  0.27578490977E+03  0.27578490977E+03  0.00000000000E+00 0.  1.
         21   -1    0    0  504  503 -0.00000000000E+00 -0.00000000000E+00 -0.56574707601E+02  0.56574707601E+02  0.00000000000E+00 0.  1.
         25    2    1    2    0    0  0.75093486820E+02  0.44694479346E+02  0.18180035866E+03  0.23730108468E+03  0.12499522444E+03 0.  0.
          5    1    3    3  501    0 -0.20859100258E+02 -0.10034738928E+01  0.10273933750E+03  0.10484030949E+03  0.10000000000E+00 0. -1.
         -5    1    3    3    0  501  0.95952587077E+02  0.45697953239E+02  0.79061021163E+02  0.13246077519E+03  0.10000000000E+00 0. -1.
         21    1    1    2  504  502 -0.75093486820E+02 -0.44694479346E+02  0.37409843510E+02  0.95058532696E+02  0.00000000000E+00 0.  1.
<mgrwt>
<rscale>  1 0.15251372E+03</rscale>
<asrwt>0</asrwt>
<pdfrwt beam="1">  1       21 0.42428447E-01 0.15251372E+03</pdfrwt>
<pdfrwt beam="2">  1       21 0.87038013E-02 0.15251372E+03</pdfrwt>
<totfact> 0.55677735E+05</totfact>
</mgrwt>
</event>
<event>
 6    1  0.4259848E-002  0.1316153E+03  0.7546771E-02  0.1225078E+00
         21   -1    0    0  503  502  0.00000000000E+00  0.00000000000E+00  0.45837265084E+03  0.45837265084E+03  0.00000000000E+00 0. -1.
         21   -1    0    0  504  503 -0.00000000000E+00 -0.00000000000E+00 -0.20090215556E+02  0.20090215556E+02  0.00000000000E+00 0. -1.
         25    2    1    2    0    0  0.30386175436E+02  0.27806983679E+02  0.40391967471E+03  0.42482195558E+03  0.12500416923E+03 0.  0.
          5    1    3    3  501    0 -0.33147324424E+02  0.51636410386E+02  0.23250212714E+03  0.24046270630E+03  0.10000000000E+00 0.  1.
         -5    1    3    3    0  501  0.63533499860E+02 -0.23829426707E+02  0.17141754757E+03  0.18435924928E+03  0.10000000000E+00 0.  1.
         21    1    1    2  504  502 -0.30386175436E+02 -0.27806983679E+02  0.34362760574E+02  0.53640910817E+02  0.00000000000E+00 0. -1.
<mgrwt>
<rscale>  1 0.13161531E+03</rscale>
<asrwt>0</asrwt>
<pdfrwt beam="1">  1       21 0.70518862E-01 0.13161531E+03</pdfrwt>
<pdfrwt beam="2">  1       21 0.30908027E-02 0.13161531E+03</pdfrwt>
<totfact> 0.11007355E+06</totfact>
</mgrwt>
</event>
<event>
 6    1  0.4259848E-002  0.1262165E+03  0.7546771E-02  0.1233180E+00
         21   -1    0    0  504  502  0.00000000000E+00  0.00000000000E+00  0.34919381777E+02  0.34919381777E+02  0.00000000000E+00 0. -1.
         21   -1    0    0  502  503 -0.00000000000E+00 -0.00000000000E+00 -0.15299886317E+03  0.15299886317E+03  0.00000000000E+00 0. -1.
         25    2    1    2    0    0 -0.13491879179E+02 -0.11104090703E+02 -0.90651998208E+02  0.15539750590E+03  0.12500107371E+03 0.  0.
          5    1    3    3  501    0  0.33516957538E+02  0.41100256063E+02 -0.22793232349E+02  0.57724855409E+02  0.10000000000E+00 0. -1.
         -5    1    3    3    0  501 -0.47008836717E+02 -0.52204346766E+02 -0.67858765859E+02  0.97672650495E+02  0.10000000000E+00 0. -1.
         21    1    1    2  504  503  0.13491879179E+02  0.11104090703E+02 -0.27427483182E+02  0.32520739042E+02  0.00000000000E+00 0. -1.
<mgrwt>
<rscale>  1 0.12621648E+03</rscale>
<asrwt>0</asrwt>
<pdfrwt beam="1">  1       21 0.53722125E-02 0.12621648E+03</pdfrwt>
<pdfrwt beam="2">  1       21 0.23538287E-01 0.12621648E+03</pdfrwt>
<totfact> 0.39907870E+06</totfact>
</mgrwt>
</event>
<event>
 6    1  0.4259848E-002  0.1382524E+03  0.7546771E-02  0.1215700E+00
         21   -1    0    0  503  502  0.00000000000E+00  0.00000000000E+00  0.17718590420E+02  0.17718590420E+02  0.00000000000E+00 0. -1.
         21   -1    0    0  504  503 -0.00000000000E+00 -0.00000000000E+00 -0.86789111137E+03  0.86789111137E+03  0.00000000000E+00 0. -1.
         25    2    1    2    0    0 -0.40760191575E+02 -0.42756941674E+02 -0.27884746562E+03  0.31123885632E+03  0.12499666924E+03 0.  0.
          5    1    3    3  501    0  0.31089563806E+01  0.37174035986E+02 -0.36012710031E+02  0.51850745849E+02  0.10000000000E+00 0.  1.
         -5    1    3    3    0  501 -0.43869147956E+02 -0.79930977660E+02 -0.24283475559E+03  0.25938811047E+03  0.10000000000E+00 0.  1.
         21    1    1    2  504  502  0.40760191575E+02  0.42756941674E+02 -0.57132505533E+03  0.57437084547E+03  0.00000000000E+00 0. -1.
<mgrwt>
<rscale>  1 0.13825237E+03</rscale>
<asrwt>0</asrwt>
<pdfrwt beam="1">  1       21 0.27259374E-02 0.13825237E+03</pdfrwt>
<pdfrwt beam="2">  1       21 0.13352169E+00 0.13825237E+03</pdfrwt>
<totfact> 0.30452838E+05</totfact>
</mgrwt>
</event>
<event>
 6    1  0.4259848E-002  0.2043539E+03  0.7546771E-02  0.1146117E+00
         21   -1    0    0  503  502  0.00000000000E+00  0.00000000000E+00  0.46924035025E+03  0.46924035025E+03  0.00000000000E+00 0.  1.
         21   -1    0    0  504  503 -0.00000000000E+00 -0.00000000000E+00 -0.75021574692E+02  0.75021574692E+02  0.00000000000E+00 0.  1.
         25    2    1    2    0    0  0.14345303016E+03 -0.74545584463E+02  0.27857811528E+03  0.34549427583E+03  0.12499884915E+03 0.  0.
          5    1    3    3  501    0  0.14444076339E+03 -0.15987918296E+02  0.20883280991E+03  0.25442071487E+03  0.10000000000E+00 0. -1.
         -5    1    3    3    0  501 -0.98773322961E+00 -0.58557666166E+02  0.69745305376E+02  0.91073560959E+02  0.10000000000E+00 0. -1.
         21    1    1    2  504  502 -0.14345303016E+03  0.74545584463E+02  0.11564066027E+03  0.19876764911E+03  0.00000000000E+00 0.  1.
<mgrwt>
<rscale>  1 0.20435393E+03</rscale>
<asrwt>0</asrwt>
<pdfrwt beam="1">  1       21 0.72190821E-01 0.20435393E+03</pdfrwt>
<pdfrwt beam="2">  1       21 0.11541781E-01 0.20435393E+03</pdfrwt>
<totfact> 0.10837260E+05</totfact>
</mgrwt>
</event>
<event>
 6    1  0.4259848E-002  0.1273685E+03  0.7546771E-02  0.1231413E+00
         21   -1    0    0  504  502  0.00000000000E+00  0.00000000000E+00  0.31050865485E+02  0.31050865485E+02  0.00000000000E+00 0. -1.
         21   -1    0    0  502  503 -0.00000000000E+00 -0.00000000000E+00 -0.43263351524E+03  0.43263351524E+03  0.00000000000E+00 0. -1.
         25    2    1    2    0    0  0.96015160481E+01 -0.22688439021E+02 -0.10223322580E+03  0.16332287853E+03  0.12496309783E+03 0.  0.
          5    1    3    3  501    0  0.40890804903E+02  0.39955663023E+01  0.11267100793E+02  0.42602582503E+02  0.10000000000E+00 0.  1.
         -5    1    3    3    0  501 -0.31289288855E+02 -0.26684005324E+02 -0.11350032659E+03  0.12072029603E+03  0.10000000000E+00 0.  1.
         21    1    1    2  504  503 -0.96015160481E+01  0.22688439021E+02 -0.29934942396E+03  0.30036150219E+03  0.00000000000E+00 0. -1.
<mgrwt>
<rscale>  1 0.12736848E+03</rscale>
<asrwt>0</asrwt>
<pdfrwt beam="1">  1       21 0.47770563E-02 0.12736848E+03</pdfrwt>
<pdfrwt beam="2">  1       21 0.66559001E-01 0.12736848E+03</pdfrwt>
<totfact> 0.60619027E+05</totfact>
</mgrwt>
</event>
<event>
 6    1  0.4259848E-002  0.1310460E+03  0.7546771E-02  0.1225912E+00
         21   -1    0    0  504  502  0.00000000000E+00  0.00000000000E+00  0.18918182665E+03  0.18918182665E+03  0.00000000000E+00 0. -1.
         21   -1    0    0  502  503 -0.00000000000E+00 -0.00000000000E+00 -0.78838180337E+02  0.78838180337E+02  0.00000000000E+00 0. -1.
         25    2    1    2    0    0 -0.25029823917E+02  0.30408110968E+02  0.15859774485E+03  0.20573354518E+03  0.12498760596E+03 0.  0.
          5    1    3    3  501    0  0.19217424264E+02  0.28015993946E+02 -0.66752379058E+01  0.34623317478E+02  0.10000000000E+00 0. -1.
         -5    1    3    3    0  501 -0.44247248181E+02  0.23921170222E+01  0.16527298276E+03  0.17111022771E+03  0.10000000000E+00 0. -1.
         21    1    1    2  504  503  0.25029823917E+02 -0.30408110968E+02 -0.48254098541E+02  0.62286461803E+02  0.00000000000E+00 0. -1.
<mgrwt>
<rscale>  1 0.13104597E+03</rscale>
<asrwt>0</asrwt>
<pdfrwt beam="1">  1       21 0.29104896E-01 0.13104597E+03</pdfrwt>
<pdfrwt beam="2">  1       21 0.12128951E-01 0.13104597E+03</pdfrwt>
<totfact> 0.65421583E+05</totfact>
</mgrwt>
</event>
<event>
 6    1  0.4259848E-002  0.1291017E+03  0.7546771E-02  0.1228795E+00
         21   -1    0    0  503  502  0.00000000000E+00  0.00000000000E+00  0.44732756132E+03  0.44732756132E+03  0.00000000000E+00 0.  1.
         21   -1    0    0  504  503 -0.00000000000E+00 -0.00000000000E+00 -0.28227484845E+02  0.28227484845E+02  0.00000000000E+00 0. -1.
         25    2    1    2    0    0 -0.19644287488E+02 -0.25632022643E+02  0.42370267146E+03  0.44293476878E+03  0.12499742791E+03 0.  0.
          5    1    3    3  501    0  0.81360797581E+01  0.48059837641E+02  0.12937185925E+03  0.13824988880E+03  0.10000000000E+00 0. -1.
         -5    1    3    3    0  501 -0.27780367246E+02 -0.73691860285E+02  0.29433081221E+03  0.30468487998E+03  0.10000000000E+00 0. -1.
         21    1    1    2  504  502  0.19644287488E+02  0.25632022643E+02 -0.46025949828E+01  0.32620277379E+02  0.00000000000E+00 0. -1.
<mgrwt>
<rscale>  1 0.12910173E+03</rscale>
<asrwt>0</asrwt>
<pdfrwt beam="1">  1       21 0.68819620E-01 0.12910173E+03</pdfrwt>
<pdfrwt beam="2">  1       21 0.43426903E-02 0.12910173E+03</pdfrwt>
<totfact> 0.66121314E+05</totfact>
</mgrwt>
</event>
<event>
 6    1  0.4259848E-002  0.1988116E+03  0.7546771E-02  0.1150746E+00
         21   -1    0    0  503  502  0.00000000000E+00  0.00000000000E+00  0.58355117870E+03  0.58355117870E+03  0.00000000000E+00 0.  1.
         21   -1    0    0  504  503 -0.00000000000E+00 -0.00000000000E+00 -0.42421581354E+03  0.42421581354E+03  0.00000000000E+00 0.  1.
         25    2    1    2    0    0  0.96530529013E+02  0.12076439783E+03  0.55149303670E+03  0.58623428631E+03  0.12499554432E+03 0.  0.
          5    1    3    3  501    0  0.34803673884E+02  0.83087670084E+02  0.46428167625E+03  0.47294010354E+03  0.10000000000E+00 0. -1.
         -5    1    3    3    0  501  0.61726855129E+02  0.37676727746E+02  0.87211360454E+02  0.11329418277E+03  0.10000000000E+00 0. -1.
         21    1    1    2  504  502 -0.96530529013E+02 -0.12076439783E+03 -0.39215767155E+03  0.42153270593E+03  0.00000000000E+00 0.  1.
<mgrwt>
<rscale>  1 0.19881164E+03</rscale>
<asrwt>0</asrwt>
<pdfrwt beam="1">  1       21 0.89777105E-01 0.19881164E+03</pdfrwt>
<pdfrwt beam="2">  1       21 0.65263971E-01 0.19881164E+03</pdfrwt>
<totfact> 0.22702269E+03</totfact>
</mgrwt>
</event>
<event>
 6    1  0.4259848E-002  0.1288675E+03  0.7546771E-02  0.1229146E+00
         21   -1    0    0  503  502  0.00000000000E+00  0.00000000000E+00  0.29350862475E+03  0.29350862475E+03  0.00000000000E+00 0. -1.
         21   -1    0    0  504  503 -0.00000000000E+00 -0.00000000000E+00 -0.21970195528E+02  0.21970195528E+02  0.00000000000E+00 0. -1.
         25    2    1    2    0    0  0.27934552156E+02 -0.13764387196E+02  0.22884477816E+03  0.26263428035E+03  0.12504813140E+03 0.  0.
          5    1    3    3  501    0  0.19883423281E+01 -0.49970169512E+02  0.28840663349E+02  0.57730106606E+02  0.10000000000E+00 0. -1.
         -5    1    3    3    0  501  0.25946209828E+02  0.36205782316E+02  0.20000411481E+03  0.20490417375E+03  0.10000000000E+00 0. -1.
         21    1    1    2  504  502 -0.27934552156E+02  0.13764387196E+02  0.42693651067E+02  0.52844539931E+02  0.00000000000E+00 0.  1.
<mgrwt>
<rscale>  1 0.12886750E+03</rscale>
<asrwt>0</asrwt>
<pdfrwt beam="1">  1       21 0.45155170E-01 0.12886750E+03</pdfrwt>
<pdfrwt beam="2">  1       21 0.33800303E-02 0.12886750E+03</pdfrwt>
<totfact> 0.24269511E+06</totfact>
</mgrwt>
</event>
<event>
 6    1  0.4259848E-002  0.1264471E+03  0.7546771E-02  0.1232825E+00
         21   -1    0    0  504  502  0.00000000000E+00  0.00000000000E+00  0.22952791611E+02  0.22952791611E+02  0.00000000000E+00 0. -1.
         21   -1    0    0  502  503 -0.00000000000E+00 -0.00000000000E+00 -0.26699398469E+03  0.26699398469E+03  0.00000000000E+00 0. -1.
         25    2    1    2    0    0 -0.24493785183E+01  0.18835708133E+02 -0.16077770217E+03  0.20454424545E+03  0.12501238130E+03 0.  0.
          5    1    3    3  501    0 -0.36748918173E+02  0.19321922769E+01 -0.16215744193E+03  0.16628067334E+03  0.10000000000E+00 0.  1.
         -5    1    3    3    0  501  0.34299539655E+02  0.16903515856E+02  0.13797397660E+01  0.38263572110E+02  0.10000000000E+00 0.  1.
         21    1    1    2  504  503  0.24493785183E+01 -0.18835708133E+02 -0.83263490911E+02  0.85402530844E+02  0.00000000000E+00 0.  1.
<mgrwt>
<rscale>  1 0.12644714E+03</rscale>
<asrwt>0</asrwt>
<pdfrwt beam="1">  1       21 0.35311985E-02 0.12644714E+03</pdfrwt>
<pdfrwt beam="2">  1       21 0.41076000E-01 0.12644714E+03</pdfrwt>
<totfact> 0.27319971E+06</totfact>
</mgrwt>
</event>
<event>
 6    1  0.4259848E-002  0.1330840E+03  0.7546771E-02  0.1222950E+00
         21   -1    0    0  504  502  0.00000000000E+00  0.00000000000E+00  0.13102950699E+03  0.13102950699E+03  0.00000000000E+00 0.  1.
         21   -1    0    0  502  503 -0.00000000000E+00 -0.00000000000E+00 -0.19612793395E+03  0.19612793395E+03  0.00000000000E+00 0.  1.
         25    2    1    2    0    0  0.35292667790E+02 -0.28968857306E+02  0.93155867739E+02  0.16244803354E+03  0.12500632309E+03 0.  0.
          5    1    3    3  501    0 -0.16544442407E+02 -0.26510318191E+02  0.10471709404E+03  0.10928035198E+03  0.10000000000E+00 0. -1.
         -5    1    3    3    0  501  0.51837110196E+02 -0.24585391146E+01 -0.11561226303E+02  0.53167681553E+02  0.10000000000E+00 0. -1.
         21    1    1    2  504  503 -0.35292667790E+02  0.28968857306E+02 -0.15825429470E+03  0.16470940740E+03  0.00000000000E+00 0.  1.
<mgrwt>
<rscale>  1 0.13308399E+03</rscale>
<asrwt>0</asrwt>
<pdfrwt beam="1">  1       21 0.20158386E-01 0.13308399E+03</pdfrwt>
<pdfrwt beam="2">  1       21 0.30173528E-01 0.13308399E+03</pdfrwt>
<totfact> 0.24316630E+05</totfact>
</mgrwt>
</event>
<event>
 6    1  0.4259848E-002  0.1506043E+03  0.7546771E-02  0.1199732E+00
         21   -1    0    0  503  502  0.00000000000E+00  0.00000000000E+00  0.15689834032E+03  0.15689834032E+03  0.00000000000E+00 0. -1.
         21   -1    0    0  504  503 -0.00000000000E+00 -0.00000000000E+00 -0.11255826445E+03  0.11255826445E+03  0.00000000000E+00 0.  1.
         25    2    1    2    0    0  0.37948350608E+02 -0.74927249966E+02  0.88379987916E+02  0.17462156929E+03  0.12500999999E+03 0.  0.
          5    1    3    3  501    0  0.54996353879E+01  0.30148464180E+02  0.49033366742E+02  0.57822633422E+02  0.10000000000E+00 0.  1.
         -5    1    3    3    0  501  0.32448715220E+02 -0.10507571415E+03  0.39346621174E+02  0.11679893587E+03  0.10000000000E+00 0.  1.
         21    1    1    2  504  502 -0.37948350608E+02  0.74927249966E+02 -0.44039912038E+02  0.94835035476E+02  0.00000000000E+00 0.  1.
<mgrwt>
<rscale>  1 0.15060435E+03</rscale>
<asrwt>0</asrwt>
<pdfrwt beam="1">  1       21 0.24138206E-01 0.15060435E+03</pdfrwt>
<pdfrwt beam="2">  1       21 0.17316656E-01 0.15060435E+03</pdfrwt>
<totfact> 0.49140144E+05</totfact>
</mgrwt>
</event>
<event>
 6    1  0.4259848E-002  0.1259822E+03  0.7546771E-02  0.1233542E+00
         21   -1    0    0  504  502  0.00000000000E+00  0.00000000000E+00  0.74131426843E+02  0.74131426843E+02  0.00000000000E+00 0. -1.
         21   -1    0    0  502  503 -0.00000000000E+00 -0.00000000000E+00 -0.75463286504E+02  0.75463286504E+02  0.00000000000E+00 0. -1.
         25    2    1    2    0    0 -0.64968589011E+01 -0.14316115858E+02  0.15063816655E+02  0.12687955210E+03  0.12499736725E+03 0.  0.
          5    1    3    3  501    0 -0.65563370678E+02 -0.62916411823E+01  0.22182166701E+01  0.65901978791E+02  0.10000000000E+00 0. -1.
         -5    1    3    3    0  501  0.59066511776E+02 -0.80244746754E+01  0.12845599984E+02  0.60977573305E+02  0.10000000000E+00 0. -1.
         21    1    1    2  504  503  0.64968589011E+01  0.14316115858E+02 -0.16395676315E+02  0.22715161251E+02  0.00000000000E+00 0. -1.
<mgrwt>
<rscale>  1 0.12598215E+03</rscale>
<asrwt>0</asrwt>
<pdfrwt beam="1">  1       21 0.11404835E-01 0.12598215E+03</pdfrwt>
<pdfrwt beam="2">  1       21 0.11609736E-01 0.12598215E+03</pdfrwt>
<totfact> 0.39451445E+06</totfact>
</mgrwt>
</event>
<event>
 6    1  0.4259848E-002  0.1265381E+03  0.7546771E-02  0.1232685E+00
         21   -1    0    0  503  502  0.00000000000E+00  0.00000000000E+00  0.29162768941E+03  0.29162768941E+03  0.00000000000E+00 0.  1.
         21   -1    0    0  504  503 -0.00000000000E+00 -0.00000000000E+00 -0.58900108282E+02  0.58900108282E+02  0.00000000000E+00 0.  1.
         25    2    1    2    0    0 -0.17042817683E+02  0.98567572543E+01  0.27564946009E+03  0.30330597020E+03  0.12499709362E+03 0.  0.
          5    1    3    3  501    0  0.64623663056E+01  0.20953529649E+00 -0.12481360360E+02  0.14057042354E+02  0.10000000000E+00 0.  1.
         -5    1    3    3    0  501 -0.23505183989E+02  0.96472219578E+01  0.28813082046E+03  0.28924892785E+03  0.10000000000E+00 0.  1.
         21    1    1    2  504  502  0.17042817683E+02 -0.98567572543E+01 -0.42921878963E+02  0.47221827494E+02  0.00000000000E+00 0.  1.
<mgrwt>
<rscale>  1 0.12653808E+03</rscale>
<asrwt>0</asrwt>
<pdfrwt beam="1">  1       21 0.44865798E-01 0.12653808E+03</pdfrwt>
<pdfrwt beam="2">  1       21 0.90615552E-02 0.12653808E+03</pdfrwt>
<totfact> 0.46459215E+05</totfact>
</mgrwt>
</event>
<event>
 6    1  0.4259848E-002  0.1265672E+03  0.7546771E-02  0.1232640E+00
         21   -1    0    0  503  502  0.00000000000E+00  0.00000000000E+00  0.23005159838E+03  0.23005159838E+03  0.00000000000E+00 0.  1.
         21   -1    0    0  504  503 -0.00000000000E+00 -0.00000000000E+00 -0.23578509725E+02  0.23578509725E+02  0.00000000000E+00 0.  1.
         25    2    1    2    0    0 -0.19703931125E+02  0.24625987049E+01  0.18709527262E+03  0.22588467517E+03  0.12499974459E+03 0.  0.
          5    1    3    3  501    0  0.48477644138E+02  0.54125934331E+00  0.12331143819E+03  0.13249941785E+03  0.10000000000E+00 0. -1.
         -5    1    3    3    0  501 -0.68181575263E+02  0.19213393616E+01  0.63783834430E+02  0.93385257321E+02  0.10000000000E+00 0. -1.
         21    1    1    2  504  502  0.19703931125E+02 -0.24625987049E+01  0.19377816033E+02  0.27745432928E+02  0.00000000000E+00 0.  1.
<mgrwt>
<rscale>  1 0.12656716E+03</rscale>
<asrwt>0</asrwt>
<pdfrwt beam="1">  1       21 0.35392552E-01 0.12656716E+03</pdfrwt>
<pdfrwt beam="2">  1       21 0.36274632E-02 0.12656716E+03</pdfrwt>
<totfact> 0.35122640E+06</totfact>
</mgrwt>
</event>
<event>
 6    1  0.4259848E-002  0.1264564E+03  0.7546771E-02  0.1232811E+00
         21   -1    0    0  503  502  0.00000000000E+00  0.00000000000E+00  0.21813090501E+04  0.21813090501E+04  0.00000000000E+00 0.  1.
         21   -1    0    0  504  503 -0.00000000000E+00 -0.00000000000E+00 -0.42715778546E+02  0.42715778546E+02  0.00000000000E+00 0. -1.
         25    2    1    2    0    0 -0.17344431188E+02  0.80641356564E+01  0.21772370752E+04  0.21809063507E+04  0.12500147755E+03 0.  0.
          5    1    3    3  501    0  0.31759759256E+02 -0.13752691909E+02  0.17448731352E+04  0.17452163438E+04  0.10000000000E+00 0.  1.
         -5    1    3    3    0  501 -0.49104190444E+02  0.21816827565E+02  0.43236393996E+03  0.43569000684E+03  0.10000000000E+00 0.  1.
         21    1    1    2  504  502  0.17344431188E+02 -0.80641356564E+01 -0.38643803656E+02  0.43118477920E+02  0.00000000000E+00 0. -1.
<mgrwt>
<rscale>  1 0.12645643E+03</rscale>
<asrwt>0</asrwt>
<pdfrwt beam="1">  1       21 0.33558592E+00 0.12645643E+03</pdfrwt>
<pdfrwt beam="2">  1       21 0.65716599E-02 0.12645643E+03</pdfrwt>
<totfact> 0.39637036E+03</totfact>
</mgrwt>
</event>
<event>
 6    1  0.4259848E-002  0.1329895E+03  0.7546771E-02  0.1223086E+00
         21   -1    0    0  503  502  0.00000000000E+00  0.00000000000E+00  0.29326212939E+03  0.29326212939E+03  0.00000000000E+00 0.  1.
         21   -1    0    0  504  503 -0.00000000000E+00 -0.00000000000E+00 -0.27616982834E+02  0.27616982834E+02  0.00000000000E+00 0.  1.
         25    2    1    2    0    0  0.34187074932E+02  0.29896114408E+02  0.21543630635E+03  0.25317784648E+03  0.12499474430E+03 0.  0.
          5    1    3    3  501    0  0.56000702411E+02  0.49495429109E+02  0.62418528954E+02  0.97375350731E+02  0.10000000000E+00 0. -1.
         -5    1    3    3    0  501 -0.21813627479E+02 -0.19599314701E+02  0.15301777740E+03  0.15580249574E+03  0.10000000000E+00 0. -1.
         21    1    1    2  504  502 -0.34187074932E+02 -0.29896114408E+02  0.50208840202E+02  0.67701265745E+02  0.00000000000E+00 0.  1.
<mgrwt>
<rscale>  1 0.13298955E+03</rscale>
<asrwt>0</asrwt>
<pdfrwt beam="1">  1       21 0.45117249E-01 0.13298955E+03</pdfrwt>
<pdfrwt beam="2">  1       21 0.42487668E-02 0.13298955E+03</pdfrwt>
<totfact> 0.16651944E+06</totfact>
</mgrwt>
</event>
<event>
 6    1  0.4259848E-002  0.1328112E+03  0.7546771E-02  0.1223343E+00
         21   -1    0    0  504  502  0.00000000000E+00  0.00000000000E+00  0.76066184611E+02  0.76066184611E+02  0.00000000000E+00 0. -1.
         21   -1    0    0  502  503 -0.00000000000E+00 -0.00000000000E+00 -0.11935954529E+03  0.11935954529E+03  0.00000000000E+00 0.  1.
         25    2    1    2    0    0  0.27394574130E+02 -0.35529853132E+02  0.38364694343E+00  0.13281172068E+03  0.12500389118E+03 0.  0.
          5    1    3    3  501    0 -0.30073114201E+02 -0.21372212361E+01 -0.43674491689E+02  0.53070058759E+02  0.10000000000E+00 0.  1.
         -5    1    3    3    0  501  0.57467688331E+02 -0.33392631896E+02  0.44058138632E+02  0.79741661926E+02  0.10000000000E+00 0.  1.
         21    1    1    2  504  503 -0.27394574130E+02  0.35529853132E+02 -0.43677007622E+02  0.62614009216E+02  0.00000000000E+00 0.  1.
<mgrwt>
<rscale>  1 0.13281117E+03</rscale>
<asrwt>0</asrwt>
<pdfrwt beam="1">  1       21 0.11702490E-01 0.13281117E+03</pdfrwt>
<pdfrwt beam="2">  1       21 0.18363007E-01 0.13281117E+03</pdfrwt>
<totfact> 0.16549515E+06</totfact>
</mgrwt>
</event>
<event>
 6    1  0.4259848E-002  0.1259665E+03  0.7546771E-02  0.1233566E+00
         21   -1    0    0  503  502  0.00000000000E+00  0.00000000000E+00  0.85990971336E+02  0.85990971336E+02  0.00000000000E+00 0. -1.
         21   -1    0    0  504  503 -0.00000000000E+00 -0.00000000000E+00 -0.68251017852E+02  0.68251017852E+02  0.00000000000E+00 0. -1.
         25    2    1    2    0    0 -0.10525780664E+02 -0.10907988111E+02  0.35518700381E+02  0.13087833998E+03  0.12505113168E+03 0.  0.
          5    1    3    3  501    0 -0.44940629031E+02 -0.49618163620E+02 -0.19127135335E+01  0.66972313471E+02  0.10000000000E+00 0.  1.
         -5    1    3    3    0  501  0.34414848367E+02  0.38710175509E+02  0.37431413915E+02  0.63906026505E+02  0.10000000000E+00 0.  1.
         21    1    1    2  504  502  0.10525780664E+02  0.10907988111E+02 -0.17778746897E+02  0.23363649211E+02  0.00000000000E+00 0. -1.
<mgrwt>
<rscale>  1 0.12596651E+03</rscale>
<asrwt>0</asrwt>
<pdfrwt beam="1">  1       21 0.13229380E-01 0.12596651E+03</pdfrwt>
<pdfrwt beam="2">  1       21 0.10500157E-01 0.12596651E+03</pdfrwt>
<totfact> 0.36185757E+06</totfact>
</mgrwt>
</event>
<event>
 6    1  0.4259848E-002  0.1296496E+03  0.7546771E-02  0.1227977E+00
         21   -1    0    0  504  502  0.00000000000E+00  0.00000000000E+00  0.23298152951E+03  0.23298152951E+03  0.00000000000E+00 0.  1.
         21   -1    0    0  502  503 -0.00000000000E+00 -0.00000000000E+00 -0.14304971891E+03  0.14304971891E+03  0.00000000000E+00 0. -1.
         25    2    1    2    0    0  0.24249468544E+02  0.24420806603E+02  0.21238704893E+03  0.24883180693E+03  0.12499838825E+03 0.  0.
          5    1    3    3  501    0  0.21249346721E+01  0.17974373897E+01  0.21685621391E+03  0.21687409629E+03  0.10000000000E+00 0. -1.
         -5    1    3    3    0  501  0.22124533872E+02  0.22623369213E+02 -0.44691649793E+01  0.31957710638E+02  0.10000000000E+00 0. -1.
         21    1    1    2  504  503 -0.24249468544E+02 -0.24420806603E+02 -0.12245523834E+03  0.12719944149E+03  0.00000000000E+00 0. -1.
<mgrwt>
<rscale>  1 0.12964956E+03</rscale>
<asrwt>0</asrwt>
<pdfrwt beam="1">  1       21 0.35843312E-01 0.12964956E+03</pdfrwt>
<pdfrwt beam="2">  1       21 0.22007649E-01 0.12964956E+03</pdfrwt>
<totfact> 0.14775946E+05</totfact>
</mgrwt>
</event>
<event>
 6    1  0.4259848E-002  0.1334815E+03  0.7546771E-02  0.1222379E+00
         21   -1    0    0  504  502  0.00000000000E+00  0.00000000000E+00  0.11174014980E+03  0.11174014980E+03  0.00000000000E+00 0. -1.
         21   -1    0    0  502  503 -0.00000000000E+00 -0.00000000000E+00 -0.81079227458E+02  0.81079227458E+02  0.00000000000E+00 0. -1.
         25    2    1    2    0    0  0.45963296796E+02  0.89604580731E+01 -0.55909236638E+01  0.13359851269E+03  0.12499755880E+03 0.  0.
          5    1    3    3  501    0  0.21480647954E+02 -0.46414657733E+02 -0.39118352100E+02  0.64389394779E+02  0.10000000000E+00 0.  1.
         -5    1    3    3    0  501  0.24482648842E+02  0.55375115806E+02  0.33527428436E+02  0.69209117914E+02  0.10000000000E+00 0.  1.
         21    1    1    2  504  503 -0.45963296796E+02 -0.89604580731E+01  0.36251846011E+02  0.59220864570E+02  0.00000000000E+00 0. -1.
<mgrwt>
<rscale>  1 0.13348147E+03</rscale>
<asrwt>0</asrwt>
<pdfrwt beam="1">  1       21 0.17190792E-01 0.13348147E+03</pdfrwt>
<pdfrwt beam="2">  1       21 0.12473727E-01 0.13348147E+03</pdfrwt>
<totfact> 0.16675559E+06</totfact>
</mgrwt>
</event>
<event>
 6    1  0.4259848E-002  0.1261229E+03  0.7546771E-02  0.1233325E+00
         21   -1    0    0  503  502  0.00000000000E+00  0.00000000000E+00  0.79709699339E+02  0.79709699339E+02  0.00000000000E+00 0.  1.
         21   -1    0    0  504  503 -0.00000000000E+00 -0.00000000000E+00 -0.64145825487E+02  0.64145825487E+02  0.00000000000E+00 0.  1.
         25    2    1    2    0    0  0.11885739418E+02 -0.11944618053E+02  0.12662733724E+02  0.12675694839E+03  0.12499213751E+03 0.  0.
          5    1    3    3  501    0 -0.41801126256E+02  0.35213442153E+02  0.62346127890E+01  0.55010917654E+02  0.10000000000E+00 0. -1.
         -5    1    3    3    0  501  0.53686865674E+02 -0.47158060206E+02  0.64281209351E+01  0.71746030740E+02  0.10000000000E+00 0. -1.
         21    1    1    2  504  502 -0.11885739418E+02  0.11944618053E+02  0.29011401284E+01  0.17098576432E+02  0.00000000000E+00 0.  1.
<mgrwt>
<rscale>  1 0.12612287E+03</rscale>
<asrwt>0</asrwt>
<pdfrwt beam="1">  1       21 0.12263031E-01 0.12612287E+03</pdfrwt>
<pdfrwt beam="2">  1       21 0.98685885E-02 0.12612287E+03</pdfrwt>
<totfact> 0.46164193E+06</totfact>
</mgrwt>
</event>
<event>
 6    1  0.4259848E-002  0.1273420E+03  0.7546771E-02  0.1231454E+00
         21   -1    0    0  504  502  0.00000000000E+00  0.00000000000E+00  0.53683721892E+02  0.53683721892E+02  0.00000000000E+00 0. -1.
         21   -1    0    0  502  503 -0.00000000000E+00 -0.00000000000E+00 -0.37350832666E+03  0.37350832666E+03  0.00000000000E+00 0.  1.
         25    2    1    2    0    0 -0.30748663063E+01  0.24119640136E+02 -0.23035622500E+02  0.12940871820E+03  0.12499905839E+03 0.  0.
          5    1    3    3  501    0  0.41971236237E+02  0.22865602822E+02 -0.55964171536E+02  0.73596324360E+02  0.10000000000E+00 0.  1.
         -5    1    3    3    0  501 -0.45046102543E+02  0.12540373138E+01  0.32928549036E+02  0.55812393835E+02  0.10000000000E+00 0.  1.
         21    1    1    2  504  503  0.30748663063E+01 -0.24119640136E+02 -0.29678898226E+03  0.29778333035E+03  0.00000000000E+00 0.  1.
<mgrwt>
<rscale>  1 0.12734197E+03</rscale>
<asrwt>0</asrwt>
<pdfrwt beam="1">  1       21 0.82590342E-02 0.12734197E+03</pdfrwt>
<pdfrwt beam="2">  1       21 0.57462819E-01 0.12734197E+03</pdfrwt>
<totfact> 0.32703202E+05</totfact>
</mgrwt>
</event>
<event>
 6    1  0.4259848E-002  0.1459897E+03  0.7546771E-02  0.1205489E+00
         21   -1    0    0  504  502  0.00000000000E+00  0.00000000000E+00  0.22401912494E+03  0.22401912494E+03  0.00000000000E+00 0. -1.
         21   -1    0    0  502  503 -0.00000000000E+00 -0.00000000000E+00 -0.12452738822E+03  0.12452738822E+03  0.00000000000E+00 0. -1.
         25    2    1    2    0    0  0.71305756215E+02  0.24520343831E+02  0.18426635844E+03  0.23508949654E+03  0.12500888929E+03 0.  0.
          5    1    3    3  501    0  0.50087133671E+02  0.13197077425E+02  0.19983536295E+03  0.20643901302E+03  0.10000000000E+00 0.  1.
         -5    1    3    3    0  501  0.21218622544E+02  0.11323266406E+02 -0.15569004510E+02  0.28650483524E+02  0.10000000000E+00 0.  1.
         21    1    1    2  504  503 -0.71305756215E+02 -0.24520343831E+02 -0.84774621718E+02  0.11345701661E+03  0.00000000000E+00 0. -1.
<mgrwt>
<rscale>  1 0.14598966E+03</rscale>
<asrwt>0</asrwt>
<pdfrwt beam="1">  1       21 0.34464481E-01 0.14598966E+03</pdfrwt>
<pdfrwt beam="2">  1       21 0.19158060E-01 0.14598966E+03</pdfrwt>
<totfact> 0.20554127E+05</totfact>
</mgrwt>
</event>
<event>
 6    1  0.4259848E-002  0.1263590E+03  0.7546771E-02  0.1232961E+00
         21   -1    0    0  503  502  0.00000000000E+00  0.00000000000E+00  0.39534969011E+03  0.39534969011E+03  0.00000000000E+00 0.  1.
         21   -1    0    0  504  503 -0.00000000000E+00 -0.00000000000E+00 -0.22564257175E+02  0.22564257175E+02  0.00000000000E+00 0.  1.
         25    2    1    2    0    0 -0.14101946548E+02  0.12563673858E+02  0.37780151869E+03  0.39837240401E+03  0.12493948118E+03 0.  0.
          5    1    3    3  501    0 -0.53390881376E+02 -0.31674123139E+02  0.13700335111E+03  0.15041198259E+03  0.10000000000E+00 0.  1.
         -5    1    3    3    0  501  0.39288934828E+02  0.44237796998E+02  0.24079816758E+03  0.24796042142E+03  0.10000000000E+00 0.  1.
         21    1    1    2  504  502  0.14101946548E+02 -0.12563673858E+02 -0.50160857538E+01  0.19541543274E+02  0.00000000000E+00 0.  1.
<mgrwt>
<rscale>  1 0.12635895E+03</rscale>
<asrwt>0</asrwt>
<pdfrwt beam="1">  1       21 0.60823024E-01 0.12635895E+03</pdfrwt>
<pdfrwt beam="2">  1       21 0.34714245E-02 0.12635895E+03</pdfrwt>
<totfact> 0.12501491E+06</totfact>
</mgrwt>
</event>
<event>
 6    1  0.4259848E-002  0.1577953E+03  0.7546771E-02  0.1191209E+00
         21   -1    0    0  504  502  0.00000000000E+00  0.00000000000E+00  0.12794969280E+03  0.12794969280E+03  0.00000000000E+00 0.  1.
         21   -1    0    0  502  503 -0.00000000000E+00 -0.00000000000E+00 -0.18918322568E+03  0.18918322568E+03  0.00000000000E+00 0.  1.
         25    2    1    2    0    0 -0.60994365914E+02 -0.74525665863E+02  0.54161656028E+02  0.16683176357E+03  0.12499985922E+03 0.  0.
          5    1    3    3  501    0  0.65839737418E+01 -0.40670293518E+01 -0.34254157324E+02  0.35117612845E+02  0.10000000000E+00 0.  1.
         -5    1    3    3    0  501 -0.67578339656E+02 -0.70458636512E+02  0.88415813352E+02  0.13171415072E+03  0.10000000000E+00 0.  1.
         21    1    1    2  504  503  0.60994365914E+02  0.74525665863E+02 -0.11539518891E+03  0.15030115491E+03  0.00000000000E+00 0.  1.
<mgrwt>
<rscale>  1 0.15779529E+03</rscale>
<asrwt>0</asrwt>
<pdfrwt beam="1">  1       21 0.19684568E-01 0.15779529E+03</pdfrwt>
<pdfrwt beam="2">  1       21 0.29105111E-01 0.15779529E+03</pdfrwt>
<totfact> 0.27109778E+05</totfact>
</mgrwt>
</event>
<event>
 6    1  0.4259848E-002  0.1493874E+03  0.7546771E-02  0.1201228E+00
         21   -1    0    0  504  502  0.00000000000E+00  0.00000000000E+00  0.23558353949E+03  0.23558353949E+03  0.00000000000E+00 0. -1.
         21   -1    0    0  502  503 -0.00000000000E+00 -0.00000000000E+00 -0.79883314234E+02  0.79883314234E+02  0.00000000000E+00 0.  1.
         25    2    1    2    0    0  0.72490379158E+02 -0.37928122915E+02  0.17631926678E+03  0.23109539853E+03  0.12499280701E+03 0.  0.
          5    1    3    3  501    0  0.81613972229E+02  0.23548788202E+02  0.12133817709E+03  0.14811599883E+03  0.10000000000E+00 0. -1.
         -5    1    3    3    0  501 -0.91235930712E+01 -0.61476911117E+02  0.54981089687E+02  0.82979399697E+02  0.10000000000E+00 0. -1.
         21    1    1    2  504  503 -0.72490379158E+02  0.37928122915E+02 -0.20619041527E+02  0.84371455195E+02  0.00000000000E+00 0.  1.
<mgrwt>
<rscale>  1 0.14938741E+03</rscale>
<asrwt>0</asrwt>
<pdfrwt beam="1">  1       21 0.36243621E-01 0.14938741E+03</pdfrwt>
<pdfrwt beam="2">  1       21 0.12289741E-01 0.14938741E+03</pdfrwt>
<totfact> 0.41593906E+05</totfact>
</mgrwt>
</event>
<event>
 6    1  0.4259848E-002  0.1310599E+03  0.7546771E-02  0.1225891E+00
         21   -1    0    0  504  502  0.00000000000E+00  0.00000000000E+00  0.10712922368E+03  0.10712922368E+03  0.00000000000E+00 0.  1.
         21   -1    0    0  502  503 -0.00000000000E+00 -0.00000000000E+00 -0.71200738149E+02  0.71200738149E+02  0.00000000000E+00 0.  1.
         25    2    1    2    0    0  0.32470926848E+02 -0.22301643763E+02  0.43749450304E+02  0.13816913645E+03  0.12499988584E+03 0.  0.
          5    1    3    3  501    0 -0.31225640367E+02 -0.20327409814E+01  0.61504802683E+02  0.69007415582E+02  0.10000000000E+00 0.  1.
         -5    1    3    3    0  501  0.63696567215E+02 -0.20268902782E+02 -0.17755352379E+02  0.69161720865E+02  0.10000000000E+00 0.  1.
         21    1    1    2  504  503 -0.32470926848E+02  0.22301643763E+02 -0.78209647782E+01  0.40160825377E+02  0.00000000000E+00 0.  1.
<mgrwt>
<rscale>  1 0.13105989E+03</rscale>
<asrwt>0</asrwt>
<pdfrwt beam="1">  1       21 0.16481419E-01 0.13105989E+03</pdfrwt>
<pdfrwt beam="2">  1       21 0.10953960E-01 0.13105989E+03</pdfrwt>
<totfact> 0.22648471E+06</totfact>
</mgrwt>
</event>
<event>
 6    1  0.4259848E-002  0.1273755E+03  0.7546771E-02  0.1231403E+00
         21   -1    0    0  504  502  0.00000000000E+00  0.00000000000E+00  0.37716679594E+03  0.37716679594E+03  0.00000000000E+00 0.  1.
         21   -1    0    0  502  503 -0.00000000000E+00 -0.00000000000E+00 -0.15612776995E+02  0.15612776995E+02  0.00000000000E+00 0.  1.
         25    2    1    2    0    0 -0.21609338189E+02  0.11450193650E+02  0.32197220529E+03  0.34625226478E+03  0.12500583769E+03 0.  0.
          5    1    3    3  501    0  0.14296601219E+02 -0.50898365543E+02  0.10321773986E+03  0.11596960051E+03  0.10000000000E+00 0.  1.
         -5    1    3    3    0  501 -0.35905939408E+02  0.62348559193E+02  0.21875446543E+03  0.23028266428E+03  0.10000000000E+00 0.  1.
         21    1    1    2  504  503  0.21609338189E+02 -0.11450193650E+02  0.39581813657E+02  0.46527308153E+02  0.00000000000E+00 0.  1.
<mgrwt>
<rscale>  1 0.12737555E+03</rscale>
<asrwt>0</asrwt>
<pdfrwt beam="1">  1       21 0.58025654E-01 0.12737555E+03</pdfrwt>
<pdfrwt beam="2">  1       21 0.24019660E-02 0.12737555E+03</pdfrwt>
<totfact> 0.25244139E+06</totfact>
</mgrwt>
</event>
<event>
 6    1  0.4259848E-002  0.1273331E+03  0.7546771E-02  0.1231468E+00
         21   -1    0    0  504  502  0.00000000000E+00  0.00000000000E+00  0.45198573329E+03  0.45198573329E+03  0.00000000000E+00 0.  1.
         21   -1    0    0  502  503 -0.00000000000E+00 -0.00000000000E+00 -0.13091500935E+02  0.13091500935E+02  0.00000000000E+00 0.  1.
         25    2    1    2    0    0 -0.24006775341E+02 -0.33769783740E+01  0.33478237092E+03  0.35818004560E+03  0.12500391970E+03 0.  0.
          5    1    3    3  501    0 -0.13134501637E+02  0.37980226582E+02  0.30103364169E+03  0.30370425775E+03  0.10000000000E+00 0. -1.
         -5    1    3    3    0  501 -0.10872273704E+02 -0.41357204956E+02  0.33748729230E+02  0.54475787850E+02  0.10000000000E+00 0. -1.
         21    1    1    2  504  503  0.24006775341E+02  0.33769783740E+01  0.10411186143E+03  0.10689718862E+03  0.00000000000E+00 0.  1.
<mgrwt>
<rscale>  1 0.12733306E+03</rscale>
<asrwt>0</asrwt>
<pdfrwt beam="1">  1       21 0.69536255E-01 0.12733306E+03</pdfrwt>
<pdfrwt beam="2">  1       21 0.20140774E-02 0.12733306E+03</pdfrwt>
<totfact> 0.22778811E+06</totfact>
</mgrwt>
</event>
<event>
 6    1  0.4259848E-002  0.2044588E+03  0.7546771E-02  0.1146031E+00
         21   -1    0    0  504  502  0.00000000000E+00  0.00000000000E+00  0.92447130338E+03  0.92447130338E+03  0.00000000000E+00 0. -1.
         21   -1    0    0  502  503 -0.00000000000E+00 -0.00000000000E+00 -0.40253836919E+02  0.40253836919E+02  0.00000000000E+00 0. -1.
         25    2    1    2    0    0  0.37345564704E+01  0.16175394769E+03  0.63922540877E+03  0.67112780578E+03  0.12500048788E+03 0.  0.
          5    1    3    3  501    0 -0.55380879113E+02  0.44637544244E+02  0.27297285770E+03  0.28208818332E+03  0.10000000000E+00 0. -1.
         -5    1    3    3    0  501  0.59115435584E+02  0.11711640344E+03  0.36625255107E+03  0.38903962246E+03  0.10000000000E+00 0. -1.
         21    1    1    2  504  503 -0.37345564704E+01 -0.16175394769E+03  0.24499205770E+03  0.29359733452E+03  0.00000000000E+00 0. -1.
<mgrwt>
<rscale>  1 0.20445882E+03</rscale>
<asrwt>0</asrwt>
<pdfrwt beam="1">  1       21 0.14222634E+00 0.20445882E+03</pdfrwt>
<pdfrwt beam="2">  1       21 0.61928987E-02 0.20445882E+03</pdfrwt>
<totfact> 0.63757561E+04</totfact>
</mgrwt>
</event>
<event>
 6    1  0.4259848E-002  0.1429586E+03  0.7546771E-02  0.1209403E+00
         21   -1    0    0  503  502  0.00000000000E+00  0.00000000000E+00  0.32102926582E+02  0.32102926582E+02  0.00000000000E+00 0.  1.
         21   -1    0    0  504  503 -0.00000000000E+00 -0.00000000000E+00 -0.66539099871E+03  0.66539099871E+03  0.00000000000E+00 0.  1.
         25    2    1    2    0    0  0.42520804449E+02  0.54815815608E+02 -0.14258088863E+03  0.20190706874E+03  0.12499744858E+03 0.  0.
          5    1    3    3  501    0  0.23535791326E+02  0.56160847228E+01 -0.14700785176E+03  0.14898587974E+03  0.10000000000E+00 0. -1.
         -5    1    3    3    0  501  0.18985013123E+02  0.49199730885E+02  0.44269631357E+01  0.52921188999E+02  0.10000000000E+00 0. -1.
         21    1    1    2  504  502 -0.42520804449E+02 -0.54815815608E+02 -0.49070718350E+03  0.49558685656E+03  0.00000000000E+00 0.  1.
<mgrwt>
<rscale>  1 0.14295858E+03</rscale>
<asrwt>0</asrwt>
<pdfrwt beam="1">  1       21 0.49389118E-02 0.14295858E+03</pdfrwt>
<pdfrwt beam="2">  1       21 0.10236785E+00 0.14295858E+03</pdfrwt>
<totfact> 0.21660287E+05</totfact>
</mgrwt>
</event>
<event>
 6    1  0.4259848E-002  0.1259501E+03  0.7546771E-02  0.1233592E+00
         21   -1    0    0  503  502  0.00000000000E+00  0.00000000000E+00  0.83468944632E+02  0.83468944632E+02  0.00000000000E+00 0. -1.
         21   -1    0    0  504  503 -0.00000000000E+00 -0.00000000000E+00 -0.63253725836E+02  0.63253725836E+02  0.00000000000E+00 0. -1.
         25    2    1    2    0    0  0.11125822300E+02  0.10835339579E+02  0.28480394031E+02  0.12913001213E+03  0.12498895425E+03 0.  0.
          5    1    3    3  501    0  0.19533941842E+02 -0.55497912737E+02  0.92715472956E+01  0.59561437116E+02  0.10000000000E+00 0.  1.
         -5    1    3    3    0  501 -0.84081195426E+01  0.66333252316E+02  0.19208846735E+02  0.69568575017E+02  0.10000000000E+00 0.  1.
         21    1    1    2  504  502 -0.11125822300E+02 -0.10835339579E+02 -0.82651752347E+01  0.17592658335E+02  0.00000000000E+00 0. -1.
<mgrwt>
<rscale>  1 0.12595010E+03</rscale>
<asrwt>0</asrwt>
<pdfrwt beam="1">  1       21 0.12841376E-01 0.12595010E+03</pdfrwt>
<pdfrwt beam="2">  1       21 0.97313425E-02 0.12595010E+03</pdfrwt>
<totfact> 0.43586015E+06</totfact>
</mgrwt>
</event>
<event>
 6    1  0.4259848E-002  0.1260652E+03  0.7546771E-02  0.1233414E+00
         21   -1    0    0  503  502  0.00000000000E+00  0.00000000000E+00  0.19890487447E+03  0.19890487447E+03  0.00000000000E+00 0.  1.
         21   -1    0    0  504  503 -0.00000000000E+00 -0.00000000000E+00 -0.21219723064E+03  0.21219723064E+03  0.00000000000E+00 0.  1.
         25    2    1    2    0    0  0.15348162668E+02  0.56602516184E+01  0.17854684175E+03  0.21856669953E+03  0.12499929160E+03 0.  0.
          5    1    3    3  501    0 -0.12450780167E+02  0.61478456835E+02  0.10313946700E+03  0.12071612251E+03  0.10000000000E+00 0. -1.
         -5    1    3    3    0  501  0.27798942835E+02 -0.55818205217E+02  0.75407374751E+02  0.97850577021E+02  0.10000000000E+00 0. -1.
         21    1    1    2  504  502 -0.15348162668E+02 -0.56602516184E+01 -0.19183919791E+03  0.19253540558E+03  0.00000000000E+00 0.  1.
<mgrwt>
<rscale>  1 0.12606517E+03</rscale>
<asrwt>0</asrwt>
<pdfrwt beam="1">  1       21 0.30600750E-01 0.12606517E+03</pdfrwt>
<pdfrwt beam="2">  1       21 0.32645728E-01 0.12606517E+03</pdfrwt>
<totfact> 0.95045521E+04</totfact>
</mgrwt>
</event>
<event>
 6    1  0.4259848E-002  0.1277846E+03  0.7546771E-02  0.1230781E+00
         21   -1    0    0  504  502  0.00000000000E+00  0.00000000000E+00  0.20437576768E+04  0.20437576768E+04  0.00000000000E+00 0. -1.
         21   -1    0    0  502  503 -0.00000000000E+00 -0.00000000000E+00 -0.10356367552E+02  0.10356367552E+02  0.00000000000E+00 0. -1.
         25    2    1    2    0    0 -0.26359791778E+02 -0.32411013983E+01  0.20205911046E+04  0.20246276966E+04  0.12499421817E+03 0.  0.
          5    1    3    3  501    0 -0.27789576848E+02 -0.56335880333E+02  0.15044569715E+04  0.15057678377E+04  0.10000000000E+00 0. -1.
         -5    1    3    3    0  501  0.14297850696E+01  0.53094778935E+02  0.51613413307E+03  0.51885985888E+03  0.10000000000E+00 0. -1.
         21    1    1    2  504  503  0.26359791778E+02  0.32411013983E+01  0.12810204692E+02  0.29486347775E+02  0.00000000000E+00 0. -1.
<mgrwt>
<rscale>  1 0.12778458E+03</rscale>
<asrwt>0</asrwt>
<pdfrwt beam="1">  1       21 0.31442394E+00 0.12778458E+03</pdfrwt>
<pdfrwt beam="2">  1       21 0.15932889E-02 0.12778458E+03</pdfrwt>
<totfact> 0.53766077E+04</totfact>
</mgrwt>
</event>
<event>
 6    1  0.4259848E-002  0.1374334E+03  0.7546771E-02  0.1216825E+00
         21   -1    0    0  504  502  0.00000000000E+00  0.00000000000E+00  0.52912479323E+03  0.52912479323E+03  0.00000000000E+00 0.  1.
         21   -1    0    0  502  503 -0.00000000000E+00 -0.00000000000E+00 -0.18116699668E+02  0.18116699668E+02  0.00000000000E+00 0.  1.
         25    2    1    2    0    0  0.57112486033E+02  0.47751367539E+00  0.33127121886E+03  0.35864825811E+03  0.12500355403E+03 0.  0.
          5    1    3    3  501    0  0.11247594768E+02 -0.50847675731E+02  0.23248636677E+03  0.23824759233E+03  0.10000000000E+00 0. -1.
         -5    1    3    3    0  501  0.45864891265E+02  0.51325189407E+02  0.98784852086E+02  0.12040066578E+03  0.10000000000E+00 0. -1.
         21    1    1    2  504  503 -0.57112486033E+02 -0.47751367539E+00  0.17973687470E+03  0.18859323479E+03  0.00000000000E+00 0.  1.
<mgrwt>
<rscale>  1 0.13743345E+03</rscale>
<asrwt>0</asrwt>
<pdfrwt beam="1">  1       21 0.81403803E-01 0.13743345E+03</pdfrwt>
<pdfrwt beam="2">  1       21 0.27871850E-02 0.13743345E+03</pdfrwt>
<totfact> 0.94903998E+05</totfact>
</mgrwt>
</event>
<event>
 6    1  0.4259848E-002  0.1262063E+03  0.7546771E-02  0.1233196E+00
         21   -1    0    0  503  502  0.00000000000E+00  0.00000000000E+00  0.40232204363E+02  0.40232204363E+02  0.00000000000E+00 0. -1.
         21   -1    0    0  504  503 -0.00000000000E+00 -0.00000000000E+00 -0.17327712023E+03  0.17327712023E+03  0.00000000000E+00 0. -1.
         25    2    1    2    0    0 -0.42400767231E+01  0.16879656017E+02 -0.62471496164E+02  0.14082157730E+03  0.12500051105E+03 0.  0.
          5    1    3    3  501    0  0.44591100972E+01  0.39841931787E+01 -0.10000946157E+03  0.10018812236E+03  0.10000000000E+00 0.  1.
         -5    1    3    3    0  501 -0.86991868203E+01  0.12895462838E+02  0.37537965410E+02  0.40633454939E+02  0.10000000000E+00 0.  1.
         21    1    1    2  504  502  0.42400767231E+01 -0.16879656017E+02 -0.70573419706E+02  0.72687747295E+02  0.00000000000E+00 0. -1.
<mgrwt>
<rscale>  1 0.12620629E+03</rscale>
<asrwt>0</asrwt>
<pdfrwt beam="1">  1       21 0.61895698E-02 0.12620629E+03</pdfrwt>
<pdfrwt beam="2">  1       21 0.26658019E-01 0.12620629E+03</pdfrwt>
<totfact> 0.24827790E+06</totfact>
</mgrwt>
</event>
<event>
 6    1  0.4259848E-002  0.1542434E+03  0.7546771E-02  0.1195354E+00
         21   -1    0    0  504  502  0.00000000000E+00  0.00000000000E+00  0.15797024975E+03  0.15797024975E+03  0.00000000000E+00 0. -1.
         21   -1    0    0  502  503 -0.00000000000E+00 -0.00000000000E+00 -0.14278935480E+03  0.14278935480E+03  0.00000000000E+00 0. -1.
         25    2    1    2    0    0  0.97732335439E+01  0.89832067564E+02  0.94188999073E+02  0.18072795466E+03  0.12500283834E+03 0.  0.
          5    1    3    3  501    0 -0.46039733129E+01 -0.28398414521E+02 -0.18300046037E+00  0.28769949717E+02  0.10000000000E+00 0. -1.
         -5    1    3    3    0  501  0.14377206857E+02  0.11823048209E+03  0.94371999533E+02  0.15195800495E+03  0.10000000000E+00 0. -1.
         21    1    1    2  504  503 -0.97732335439E+01 -0.89832067564E+02 -0.79008104126E+02  0.12003164989E+03  0.00000000000E+00 0. -1.
<mgrwt>
<rscale>  1 0.15424340E+03</rscale>
<asrwt>0</asrwt>
<pdfrwt beam="1">  1       21 0.24303115E-01 0.15424340E+03</pdfrwt>
<pdfrwt beam="2">  1       21 0.21967593E-01 0.15424340E+03</pdfrwt>
<totfact> 0.31206610E+05</totfact>
</mgrwt>
</event>
<event>
 6    1  0.4259848E-002  0.1259944E+03  0.7546771E-02  0.1233523E+00
         21   -1    0    0  503  502  0.00000000000E+00  0.00000000000E+00  0.12462810889E+02  0.12462810889E+02  0.00000000000E+00 0.  1.
         21   -1    0    0  504  503 -0.00000000000E+00 -0.00000000000E+00 -0.46146293846E+03  0.46146293846E+03  0.00000000000E+00 0.  1.
         25    2    1    2    0    0 -0.31805648129E+01  0.15482495881E+02 -0.31919451644E+03  0.34316137977E+03  0.12499907826E+03 0.  0.
          5    1    3    3  501    0  0.78781697218E+01  0.54051715683E+02 -0.61058190422E+02  0.81925369355E+02  0.10000000000E+00 0. -1.
         -5    1    3    3    0  501 -0.11058734535E+02 -0.38569219802E+02 -0.25813632602E+03  0.26123601041E+03  0.10000000000E+00 0. -1.
         21    1    1    2  504  502  0.31805648129E+01 -0.15482495881E+02 -0.12980561113E+03  0.13076436958E+03  0.00000000000E+00 0.  1.
<mgrwt>
<rscale>  1 0.12599442E+03</rscale>
<asrwt>0</asrwt>
<pdfrwt beam="1">  1       21 0.19173558E-02 0.12599442E+03</pdfrwt>
<pdfrwt beam="2">  1       21 0.70994289E-01 0.12599442E+03</pdfrwt>
<totfact> 0.23562238E+06</totfact>
</mgrwt>
</event>
<event>
 6    1  0.4259848E-002  0.1352671E+03  0.7546771E-02  0.1219843E+00
         21   -1    0    0  503  502  0.00000000000E+00  0.00000000000E+00  0.37594035798E+02  0.37594035798E+02  0.00000000000E+00 0. -1.
         21   -1    0    0  504  503 -0.00000000000E+00 -0.00000000000E+00 -0.36167001251E+03  0.36167001251E+03  0.00000000000E+00 0. -1.
         25    2    1    2    0    0  0.40502741008E+02 -0.32121646486E+02 -0.97187396901E+02  0.16656101900E+03  0.12499964292E+03 0.  0.
          5    1    3    3  501    0 -0.21705884969E+02  0.35709887448E+02 -0.41984383185E+02  0.59237149959E+02  0.10000000000E+00 0. -1.
         -5    1    3    3    0  501  0.62208625977E+02 -0.67831533934E+02 -0.55203013715E+02  0.10732386904E+03  0.10000000000E+00 0. -1.
         21    1    1    2  504  502 -0.40502741008E+02  0.32121646486E+02 -0.22688857981E+03  0.23270302931E+03  0.00000000000E+00 0. -1.
<mgrwt>
<rscale>  1 0.13526708E+03</rscale>
<asrwt>0</asrwt>
<pdfrwt beam="1">  1       21 0.57836978E-02 0.13526708E+03</pdfrwt>
<pdfrwt beam="2">  1       21 0.55641541E-01 0.13526708E+03</pdfrwt>
<totfact> 0.64305442E+05</totfact>
</mgrwt>
</event>
<event>
 6    1  0.4259848E-002  0.1809495E+03  0.7546771E-02  0.1166887E+00
         21   -1    0    0  503  502  0.00000000000E+00  0.00000000000E+00  0.21142586589E+02  0.21142586589E+02  0.00000000000E+00 0.  1.
         21   -1    0    0  504  503 -0.00000000000E+00 -0.00000000000E+00 -0.12140433612E+04  0.12140433612E+04  0.00000000000E+00 0.  1.
         25    2    1    2    0    0  0.17621827235E+00 -0.13083111978E+03 -0.54649544100E+03  0.57567350039E+03  0.12500359619E+03 0.  0.
          5    1    3    3  501    0  0.23259739369E+02 -0.11391660594E+03 -0.22836814131E+03  0.25626163691E+03  0.10000000000E+00 0.  1.
         -5    1    3    3    0  501 -0.23083521096E+02 -0.16914513836E+02 -0.31812729969E+03  0.31941186348E+03  0.10000000000E+00 0.  1.
         21    1    1    2  504  502 -0.17621827235E+00  0.13083111978E+03 -0.64640533366E+03  0.65951244745E+03  0.00000000000E+00 0.  1.
<mgrwt>
<rscale>  1 0.18094947E+03</rscale>
<asrwt>0</asrwt>
<pdfrwt beam="1">  1       21 0.32527050E-02 0.18094947E+03</pdfrwt>
<pdfrwt beam="2">  1       21 0.18677594E+00 0.18094947E+03</pdfrwt>
<totfact> 0.91245302E+04</totfact>
</mgrwt>
</event>
<event>
 6    1  0.4259848E-002  0.1283743E+03  0.7546771E-02  0.1229888E+00
         21   -1    0    0  504  502  0.00000000000E+00  0.00000000000E+00  0.40400465445E+01  0.40400465445E+01  0.00000000000E+00 0. -1.
         21   -1    0    0  502  503 -0.00000000000E+00 -0.00000000000E+00 -0.17637196928E+04  0.17637196928E+04  0.00000000000E+00 0. -1.
         25    2    1    2    0    0  0.15540781130E+02 -0.24877569635E+02 -0.11065351710E+04  0.11139569290E+04  0.12497818011E+03 0.  0.
          5    1    3    3  501    0  0.15069979954E+02 -0.56061921351E+02 -0.24222836451E+03  0.24908760285E+03  0.10000000000E+00 0.  1.
         -5    1    3    3    0  501  0.47080117521E+00  0.31184351716E+02 -0.86430680653E+03  0.86486932612E+03  0.10000000000E+00 0.  1.
         21    1    1    2  504  503 -0.15540781130E+02  0.24877569635E+02 -0.65314447522E+03  0.65380281038E+03  0.00000000000E+00 0. -1.
<mgrwt>
<rscale>  1 0.12837428E+03</rscale>
<asrwt>0</asrwt>
<pdfrwt beam="1">  1       21 0.62154446E-03 0.12837428E+03</pdfrwt>
<pdfrwt beam="2">  1       21 0.27134200E+00 0.12837428E+03</pdfrwt>
<totfact> 0.41364220E+05</totfact>
</mgrwt>
</event>
<event>
 6    1  0.4259848E-002  0.1259674E+03  0.7546771E-02  0.1233565E+00
         21   -1    0    0  503  502  0.00000000000E+00  0.00000000000E+00  0.18287741281E+03  0.18287741281E+03  0.00000000000E+00 0.  1.
         21   -1    0    0  504  503 -0.00000000000E+00 -0.00000000000E+00 -0.75087565725E+03  0.75087565725E+03  0.00000000000E+00 0.  1.
         25    2    1    2    0    0 -0.29170510979E+01  0.15291050444E+02  0.16109264641E+03  0.20449601488E+03  0.12500181583E+03 0.  0.
          5    1    3    3  501    0  0.46450757556E+02 -0.29098769408E+02  0.45685828232E+02  0.71355561520E+02  0.10000000000E+00 0. -1.
         -5    1    3    3    0  501 -0.49367808653E+02  0.44389819852E+02  0.11540681818E+03  0.13314045336E+03  0.10000000000E+00 0. -1.
         21    1    1    2  504  502  0.29170510979E+01 -0.15291050444E+02 -0.72909089085E+03  0.72925705518E+03  0.00000000000E+00 0.  1.
<mgrwt>
<rscale>  1 0.12596737E+03</rscale>
<asrwt>0</asrwt>
<pdfrwt beam="1">  1       21 0.28134986E-01 0.12596737E+03</pdfrwt>
<pdfrwt beam="2">  1       21 0.11551933E+00 0.12596737E+03</pdfrwt>
<totfact> 0.74128191E+03</totfact>
</mgrwt>
</event>
<event>
 6    1  0.4259848E-002  0.1284738E+03  0.7546771E-02  0.1229738E+00
         21   -1    0    0  503  502  0.00000000000E+00  0.00000000000E+00  0.75368833137E+02  0.75368833137E+02  0.00000000000E+00 0. -1.
         21   -1    0    0  504  503 -0.00000000000E+00 -0.00000000000E+00 -0.48101377170E+03  0.48101377170E+03  0.00000000000E+00 0.  1.
         25    2    1    2    0    0 -0.26137378548E+02 -0.14044750084E+02  0.19724895901E+02  0.12997914140E+03  0.12500035247E+03 0.  0.
          5    1    3    3  501    0  0.20911274761E+02  0.37546436231E+02 -0.22368218416E+02  0.48449597325E+02  0.10000000000E+00 0. -1.
         -5    1    3    3    0  501 -0.47048653309E+02 -0.51591186315E+02  0.42093114317E+02  0.81529544072E+02  0.10000000000E+00 0. -1.
         21    1    1    2  504  502  0.26137378548E+02  0.14044750084E+02 -0.42536983446E+03  0.42640346344E+03  0.00000000000E+00 0.  1.
<mgrwt>
<rscale>  1 0.12847375E+03</rscale>
<asrwt>0</asrwt>
<pdfrwt beam="1">  1       21 0.11595205E-01 0.12847375E+03</pdfrwt>
<pdfrwt beam="2">  1       21 0.74002120E-01 0.12847375E+03</pdfrwt>
<totfact> 0.10482906E+05</totfact>
</mgrwt>
</event>
<event>
 6    1  0.4259848E-002  0.1285457E+03  0.7546771E-02  0.1229630E+00
         21   -1    0    0  503  502  0.00000000000E+00  0.00000000000E+00  0.26693072240E+03  0.26693072240E+03  0.00000000000E+00 0. -1.
         21   -1    0    0  504  503 -0.00000000000E+00 -0.00000000000E+00 -0.23732269407E+02  0.23732269407E+02  0.00000000000E+00 0. -1.
         25    2    1    2    0    0  0.24017153904E+02 -0.17931942848E+02  0.20700467725E+03  0.24366971933E+03  0.12500246981E+03 0.  0.
          5    1    3    3  501    0 -0.16810607546E+02 -0.37754667952E+01  0.19897244054E+03  0.19971703175E+03  0.10000000000E+00 0. -1.
         -5    1    3    3    0  501  0.40827761449E+02 -0.14156476053E+02  0.80322367148E+01  0.43952687584E+02  0.10000000000E+00 0. -1.
         21    1    1    2  504  502 -0.24017153904E+02  0.17931942848E+02  0.36193775742E+02  0.46993272480E+02  0.00000000000E+00 0. -1.
<mgrwt>
<rscale>  1 0.12854570E+03</rscale>
<asrwt>0</asrwt>
<pdfrwt beam="1">  1       21 0.41066263E-01 0.12854570E+03</pdfrwt>
<pdfrwt beam="2">  1       21 0.36511186E-02 0.12854570E+03</pdfrwt>
<totfact> 0.25879203E+06</totfact>
</mgrwt>
</event>
<event>
 6    1  0.4259848E-002  0.1260148E+03  0.7546771E-02  0.1233492E+00
         21   -1    0    0  503  502  0.00000000000E+00  0.00000000000E+00  0.20299377954E+03  0.20299377954E+03  0.00000000000E+00 0. -1.
         21   -1    0    0  504  503 -0.00000000000E+00 -0.00000000000E+00 -0.45018626008E+02  0.45018626008E+02  0.00000000000E+00 0. -1.
         25    2    1    2    0    0  0.89044974055E+01  0.13263090187E+02  0.18065975045E+03  0.22026730557E+03  0.12499816333E+03 0.  0.
          5    1    3    3  501    0 -0.19368301538E+02  0.46636435738E+01 -0.13374749342E+02  0.23995303620E+02  0.10000000000E+00 0.  1.
         -5    1    3    3    0  501  0.28272798944E+02  0.85994466134E+01  0.19403449979E+03  0.19627200195E+03  0.10000000000E+00 0.  1.
         21    1    1    2  504  502 -0.89044974055E+01 -0.13263090187E+02 -0.22684596916E+02  0.27745099975E+02  0.00000000000E+00 0. -1.
<mgrwt>
<rscale>  1 0.12601484E+03</rscale>
<asrwt>0</asrwt>
<pdfrwt beam="1">  1       21 0.31229812E-01 0.12601484E+03</pdfrwt>
<pdfrwt beam="2">  1       21 0.69259426E-02 0.12601484E+03</pdfrwt>
<totfact> 0.15129988E+06</totfact>
</mgrwt>
</event>
<event>
 6    1  0.4259848E-002  0.1259094E+03  0.7546771E-02  0.1233655E+00
         21   -1    0    0  503  502  0.00000000000E+00  0.00000000000E+00  0.12754617289E+02  0.12754617289E+02  0.00000000000E+00 0.  1.
         21   -1    0    0  504  503 -0.00000000000E+00 -0.00000000000E+00 -0.81585799690E+03  0.81585799690E+03  0.00000000000E+00 0.  1.
         25    2    1    2    0    0 -0.14708106406E+02  0.34222469620E+01 -0.30088258853E+03  0.32616484262E+03  0.12500052923E+03 0.  0.
          5    1    3    3  501    0 -0.42339519964E+02  0.53424790102E+02 -0.17956736457E+03  0.19207105864E+03  0.10000000000E+00 0. -1.
         -5    1    3    3    0  501  0.27631413559E+02 -0.50002543140E+02 -0.12131522397E+03  0.13409378398E+03  0.10000000000E+00 0. -1.
         21    1    1    2  504  502  0.14708106406E+02 -0.34222469620E+01 -0.50222079108E+03  0.50244777158E+03  0.00000000000E+00 0.  1.
<mgrwt>
<rscale>  1 0.12590938E+03</rscale>
<asrwt>0</asrwt>
<pdfrwt beam="1">  1       21 0.19622481E-02 0.12590938E+03</pdfrwt>
<pdfrwt beam="2">  1       21 0.12551666E+00 0.12590938E+03</pdfrwt>
<totfact> 0.60731375E+05</totfact>
</mgrwt>
</event>
<event>
 6    1  0.4259848E-002  0.1278227E+03  0.7546771E-02  0.1230723E+00
         21   -1    0    0  503  502  0.00000000000E+00  0.00000000000E+00  0.35887567365E+03  0.35887567365E+03  0.00000000000E+00 0.  1.
         21   -1    0    0  504  503 -0.00000000000E+00 -0.00000000000E+00 -0.26609524050E+02  0.26609524050E+02  0.00000000000E+00 0.  1.
         25    2    1    2    0    0 -0.17031345819E+02 -0.20682898719E+02  0.33499579976E+03  0.35855380282E+03  0.12498317735E+03 0.  0.
          5    1    3    3  501    0 -0.70683891441E+02 -0.20805166344E+02  0.20909600708E+03  0.22169848360E+03  0.10000000000E+00 0. -1.
         -5    1    3    3    0  501  0.53652545622E+02  0.12226762508E+00  0.12589979268E+03  0.13685531922E+03  0.10000000000E+00 0. -1.
         21    1    1    2  504  502  0.17031345819E+02  0.20682898719E+02 -0.27296501645E+01  0.26931394874E+02  0.00000000000E+00 0.  1.
<mgrwt>
<rscale>  1 0.12782270E+03</rscale>
<asrwt>0</asrwt>
<pdfrwt beam="1">  1       21 0.55211639E-01 0.12782270E+03</pdfrwt>
<pdfrwt beam="2">  1       21 0.40937732E-02 0.12782270E+03</pdfrwt>
<totfact> 0.11671909E+06</totfact>
</mgrwt>
</event>
<event>
 6    1  0.4259848E-002  0.1344590E+03  0.7546771E-02  0.1220985E+00
         21   -1    0    0  503  502  0.00000000000E+00  0.00000000000E+00  0.34428119136E+02  0.34428119136E+02  0.00000000000E+00 0.  1.
         21   -1    0    0  504  503 -0.00000000000E+00 -0.00000000000E+00 -0.28592388486E+03  0.28592388486E+03  0.00000000000E+00 0.  1.
         25    2    1    2    0    0  0.48672295735E+02 -0.92644533878E+01 -0.12145378679E+03  0.18119116628E+03  0.12499757575E+03 0.  0.
          5    1    3    3  501    0  0.62162801506E+02  0.43552153559E+02 -0.48322067782E+02  0.89977976224E+02  0.10000000000E+00 0. -1.
         -5    1    3    3    0  501 -0.13490505771E+02 -0.52816606947E+02 -0.73131719010E+02  0.91213190059E+02  0.10000000000E+00 0. -1.
         21    1    1    2  504  502 -0.48672295735E+02  0.92644533878E+01 -0.13004197894E+03  0.13916083772E+03  0.00000000000E+00 0.  1.
<mgrwt>
<rscale>  1 0.13445898E+03</rscale>
<asrwt>0</asrwt>
<pdfrwt beam="1">  1       21 0.52966339E-02 0.13445898E+03</pdfrwt>
<pdfrwt beam="2">  1       21 0.43988289E-01 0.13445898E+03</pdfrwt>
<totfact> 0.12115794E+06</totfact>
</mgrwt>
</event>
<event>
 6    1  0.4259848E-002  0.1262525E+03  0.7546771E-02  0.1233125E+00
         21   -1    0    0  504  502  0.00000000000E+00  0.00000000000E+00  0.25805804293E+03  0.25805804293E+03  0.00000000000E+00 0.  1.
         21   -1    0    0  502  503 -0.00000000000E+00 -0.00000000000E+00 -0.23677302108E+02  0.23677302108E+02  0.00000000000E+00 0.  1.
         25    2    1    2    0    0  0.10037034685E+02  0.14583188794E+02  0.23165238934E+03  0.26382290907E+03  0.12500514550E+03 0.  0.
          5    1    3    3  501    0  0.27849595751E+02 -0.51096125597E+02  0.10822143950E+03  0.12287515616E+03  0.10000000000E+00 0. -1.
         -5    1    3    3    0  501 -0.17812561066E+02  0.65679314391E+02  0.12343094984E+03  0.14094775290E+03  0.10000000000E+00 0. -1.
         21    1    1    2  504  503 -0.10037034685E+02 -0.14583188794E+02  0.27283514845E+01  0.17912435973E+02  0.00000000000E+00 0.  1.
<mgrwt>
<rscale>  1 0.12625252E+03</rscale>
<asrwt>0</asrwt>
<pdfrwt beam="1">  1       21 0.39701235E-01 0.12625252E+03</pdfrwt>
<pdfrwt beam="2">  1       21 0.36426620E-02 0.12625252E+03</pdfrwt>
<totfact> 0.27780654E+06</totfact>
</mgrwt>
</event>
<event>
 6    1  0.4259848E-002  0.1271697E+03  0.7546771E-02  0.1231717E+00
         21   -1    0    0  503  502  0.00000000000E+00  0.00000000000E+00  0.54982294740E+01  0.54982294740E+01  0.00000000000E+00 0.  1.
         21   -1    0    0  504  503 -0.00000000000E+00 -0.00000000000E+00 -0.12916402946E+04  0.12916402946E+04  0.00000000000E+00 0.  1.
         25    2    1    2    0    0  0.11101651276E+02 -0.20584395129E+02 -0.76708481287E+03  0.77755465683E+03  0.12500068093E+03 0.  0.
          5    1    3    3  501    0 -0.50728321018E+02  0.78668232259E+01 -0.20350224933E+03  0.20987716632E+03  0.10000000000E+00 0. -1.
         -5    1    3    3    0  501  0.61829972294E+02 -0.28451218355E+02 -0.56358256355E+03  0.56767749051E+03  0.10000000000E+00 0. -1.
         21    1    1    2  504  502 -0.11101651276E+02  0.20584395129E+02 -0.51905725230E+03  0.51958386729E+03  0.00000000000E+00 0.  1.
<mgrwt>
<rscale>  1 0.12716971E+03</rscale>
<asrwt>0</asrwt>
<pdfrwt beam="1">  1       21 0.84588193E-03 0.12716971E+03</pdfrwt>
<pdfrwt beam="2">  1       21 0.19871378E+00 0.12716971E+03</pdfrwt>
<totfact> 0.68496100E+05</totfact>
</mgrwt>
</event>
<event>
 6    1  0.4259848E-002  0.1333470E+03  0.7546771E-02  0.1222572E+00
         21   -1    0    0  503  502  0.00000000000E+00  0.00000000000E+00  0.37514942196E+02  0.37514942196E+02  0.00000000000E+00 0. -1.
         21   -1    0    0  504  503 -0.00000000000E+00 -0.00000000000E+00 -0.43159931423E+03  0.43159931423E+03  0.00000000000E+00 0. -1.
         25    2    1    2    0    0  0.36346080370E+02 -0.28963260464E+02 -0.88561276073E+02  0.16007660471E+03  0.12498604618E+03 0.  0.
          5    1    3    3  501    0 -0.29081724685E+02  0.24647915623E+02 -0.71856732390E+00  0.38128634833E+02  0.10000000000E+00 0.  1.
         -5    1    3    3    0  501  0.65427805055E+02 -0.53611176086E+02 -0.87842708749E+02  0.12194796987E+03  0.10000000000E+00 0.  1.
         21    1    1    2  504  502 -0.36346080370E+02  0.28963260464E+02 -0.30552309596E+03  0.30903765172E+03  0.00000000000E+00 0. -1.
<mgrwt>
<rscale>  1 0.13334699E+03</rscale>
<asrwt>0</asrwt>
<pdfrwt beam="1">  1       21 0.57715296E-02 0.13334699E+03</pdfrwt>
<pdfrwt beam="2">  1       21 0.66399894E-01 0.13334699E+03</pdfrwt>
<totfact> 0.44288609E+05</totfact>
</mgrwt>
</event>
<event>
 6    1  0.4259848E-002  0.1274453E+03  0.7546771E-02  0.1231296E+00
         21   -1    0    0  503  502  0.00000000000E+00  0.00000000000E+00  0.20490178475E+03  0.20490178475E+03  0.00000000000E+00 0. -1.
         21   -1    0    0  504  503 -0.00000000000E+00 -0.00000000000E+00 -0.31429301598E+02  0.31429301598E+02  0.00000000000E+00 0. -1.
         25    2    1    2    0    0  0.19856804689E+02  0.14878400669E+02  0.16808907558E+03  0.21094131329E+03  0.12500656313E+03 0.  0.
          5    1    3    3  501    0 -0.27623319054E+02  0.42811673546E+02  0.23296359826E+02  0.56023365916E+02  0.10000000000E+00 0. -1.
         -5    1    3    3    0  501  0.47480123743E+02 -0.27933272877E+02  0.14479271575E+03  0.15491794738E+03  0.10000000000E+00 0. -1.
         21    1    1    2  504  502 -0.19856804689E+02 -0.14878400669E+02  0.53834075778E+01  0.25389773061E+02  0.00000000000E+00 0. -1.
<mgrwt>
<rscale>  1 0.12744528E+03</rscale>
<asrwt>0</asrwt>
<pdfrwt beam="1">  1       21 0.31523351E-01 0.12744528E+03</pdfrwt>
<pdfrwt beam="2">  1       21 0.48352773E-02 0.12744528E+03</pdfrwt>
<totfact> 0.27297985E+06</totfact>
</mgrwt>
</event>
<event>
 6    1  0.4259848E-002  0.1272334E+03  0.7546771E-02  0.1231620E+00
         21   -1    0    0  504  502  0.00000000000E+00  0.00000000000E+00  0.47917228015E+02  0.47917228015E+02  0.00000000000E+00 0. -1.
         21   -1    0    0  502  503 -0.00000000000E+00 -0.00000000000E+00 -0.11960658048E+03  0.11960658048E+03  0.00000000000E+00 0. -1.
         25    2    1    2    0    0  0.11430670598E+02 -0.20798128312E+02 -0.55597761738E+02  0.13885044692E+03  0.12500045252E+03 0.  0.
          5    1    3    3  501    0  0.55672035557E+02 -0.32316519611E+02 -0.65755575333E+02  0.92019229893E+02  0.10000000000E+00 0. -1.
         -5    1    3    3    0  501 -0.44241364959E+02  0.11518391299E+02  0.10157813595E+02  0.46831217031E+02  0.10000000000E+00 0. -1.
         21    1    1    2  504  503 -0.11430670598E+02  0.20798128312E+02 -0.16091590724E+02  0.28673361568E+02  0.00000000000E+00 0. -1.
<mgrwt>
<rscale>  1 0.12723339E+03</rscale>
<asrwt>0</asrwt>
<pdfrwt beam="1">  1       21 0.73718812E-02 0.12723339E+03</pdfrwt>
<pdfrwt beam="2">  1       21 0.18401012E-01 0.12723339E+03</pdfrwt>
<totfact> 0.36814572E+06</totfact>
</mgrwt>
</event>
<event>
 6    1  0.4259848E-002  0.1261753E+03  0.7546771E-02  0.1233244E+00
         21   -1    0    0  504  502  0.00000000000E+00  0.00000000000E+00  0.89741715402E+02  0.89741715402E+02  0.00000000000E+00 0.  1.
         21   -1    0    0  502  503 -0.00000000000E+00 -0.00000000000E+00 -0.11713690617E+03  0.11713690617E+03  0.00000000000E+00 0. -1.
         25    2    1    2    0    0 -0.17086504046E+02  0.20815098330E+01  0.43854499182E+02  0.13357923807E+03  0.12499565769E+03 0.  0.
          5    1    3    3  501    0 -0.27911690317E+02 -0.50174996363E+02 -0.94076485104E+01  0.58181668650E+02  0.10000000000E+00 0. -1.
         -5    1    3    3    0  501  0.10825186271E+02  0.52256506196E+02  0.53262147692E+02  0.75397569420E+02  0.10000000000E+00 0. -1.
         21    1    1    2  504  503  0.17086504046E+02 -0.20815098330E+01 -0.71249689947E+02  0.73299383498E+02  0.00000000000E+00 0. -1.
<mgrwt>
<rscale>  1 0.12617526E+03</rscale>
<asrwt>0</asrwt>
<pdfrwt beam="1">  1       21 0.13806418E-01 0.12617526E+03</pdfrwt>
<pdfrwt beam="2">  1       21 0.18021062E-01 0.12617526E+03</pdfrwt>
<totfact> 0.12750204E+06</totfact>
</mgrwt>
</event>
<event>
 6    1  0.4259848E-002  0.1276108E+03  0.7546771E-02  0.1231045E+00
         21   -1    0    0  504  502  0.00000000000E+00  0.00000000000E+00  0.17576009774E+03  0.17576009774E+03  0.00000000000E+00 0. -1.
         21   -1    0    0  502  503 -0.00000000000E+00 -0.00000000000E+00 -0.34171084094E+02  0.34171084094E+02  0.00000000000E+00 0. -1.
         25    2    1    2    0    0 -0.46024685373E+01 -0.25274915371E+02  0.12849875039E+03  0.18109788414E+03  0.12499804288E+03 0.  0.
          5    1    3    3  501    0  0.20295719336E+02 -0.69102259733E+02  0.99866522351E+02  0.12312745758E+03  0.10000000000E+00 0. -1.
         -5    1    3    3    0  501 -0.24898187874E+02  0.43827344362E+02  0.28632228038E+02  0.57970426560E+02  0.10000000000E+00 0. -1.
         21    1    1    2  504  503  0.46024685373E+01  0.25274915371E+02  0.13090263254E+02  0.28833297691E+02  0.00000000000E+00 0. -1.
<mgrwt>
<rscale>  1 0.12761079E+03</rscale>
<asrwt>0</asrwt>
<pdfrwt beam="1">  1       21 0.27040015E-01 0.12761079E+03</pdfrwt>
<pdfrwt beam="2">  1       21 0.52570900E-02 0.12761079E+03</pdfrwt>
<totfact> 0.31858075E+06</totfact>
</mgrwt>
</event>
<event>
 6    1  0.4259848E-002  0.1330857E+03  0.7546771E-02  0.1222948E+00
         21   -1    0    0  503  502  0.00000000000E+00  0.00000000000E+00  0.21048012731E+02  0.21048012731E+02  0.00000000000E+00 0. -1.
         21   -1    0    0  504  503 -0.00000000000E+00 -0.00000000000E+00 -0.42383123740E+03  0.42383123740E+03  0.00000000000E+00 0. -1.
         25    2    1    2    0    0 -0.42683834452E+02  0.16286797230E+02 -0.22586900427E+03  0.26216140517E+03  0.12499850313E+03 0.  0.
          5    1    3    3  501    0 -0.66549481029E+02 -0.30787954294E+02 -0.88063609717E+02  0.11459468099E+03  0.10000000000E+00 0.  1.
         -5    1    3    3    0  501  0.23865646578E+02  0.47074751524E+02 -0.13780539456E+03  0.14756672418E+03  0.10000000000E+00 0.  1.
         21    1    1    2  504  502  0.42683834452E+02 -0.16286797230E+02 -0.17691422040E+03  0.18271784496E+03  0.00000000000E+00 0. -1.
<mgrwt>
<rscale>  1 0.13308567E+03</rscale>
<asrwt>0</asrwt>
<pdfrwt beam="1">  1       21 0.32381558E-02 0.13308567E+03</pdfrwt>
<pdfrwt beam="2">  1       21 0.65204806E-01 0.13308567E+03</pdfrwt>
<totfact> 0.12085787E+06</totfact>
</mgrwt>
</event>
<event>
 6    1  0.4259848E-002  0.1290770E+03  0.7546771E-02  0.1228832E+00
         21   -1    0    0  503  502  0.00000000000E+00  0.00000000000E+00  0.10829503620E+03  0.10829503620E+03  0.00000000000E+00 0. -1.
         21   -1    0    0  504  503 -0.00000000000E+00 -0.00000000000E+00 -0.84122103169E+02  0.84122103169E+02  0.00000000000E+00 0. -1.
         25    2    1    2    0    0 -0.18901180142E+02 -0.26024132131E+02  0.61638591825E+02  0.14303915183E+03  0.12500549144E+03 0.  0.
          5    1    3    3  501    0 -0.11495260089E+02 -0.47727583670E+01 -0.38469248876E+02  0.40432824982E+02  0.10000000000E+00 0.  1.
         -5    1    3    3    0  501 -0.74059200528E+01 -0.21251373764E+02  0.10010784070E+03  0.10260632685E+03  0.10000000000E+00 0.  1.
         21    1    1    2  504  502  0.18901180142E+02  0.26024132131E+02 -0.37465658799E+02  0.49377987537E+02  0.00000000000E+00 0. -1.
<mgrwt>
<rscale>  1 0.12907704E+03</rscale>
<asrwt>0</asrwt>
<pdfrwt beam="1">  1       21 0.16660775E-01 0.12907704E+03</pdfrwt>
<pdfrwt beam="2">  1       21 0.12941862E-01 0.12907704E+03</pdfrwt>
<totfact> 0.16521373E+06</totfact>
</mgrwt>
</event>
<event>
 6    1  0.4259848E-002  0.1297350E+03  0.7546771E-02  0.1227849E+00
         21   -1    0    0  503  502  0.00000000000E+00  0.00000000000E+00  0.30375950975E+02  0.30375950975E+02  0.00000000000E+00 0.  1.
         21   -1    0    0  504  503 -0.00000000000E+00 -0.00000000000E+00 -0.37152297928E+03  0.37152297928E+03  0.00000000000E+00 0.  1.
         25    2    1    2    0    0  0.10417229855E+02  0.33127842794E+02 -0.11582197500E+03  0.17391350903E+03  0.12500082433E+03 0.  0.
          5    1    3    3  501    0  0.53008549789E+02  0.18541835466E+02 -0.75606242994E+01  0.56664619057E+02  0.10000000000E+00 0.  1.
         -5    1    3    3    0  501 -0.42591319933E+02  0.14586007328E+02 -0.10826135070E+03  0.11724888997E+03  0.10000000000E+00 0.  1.
         21    1    1    2  504  502 -0.10417229855E+02 -0.33127842794E+02 -0.22532505330E+03  0.22798542123E+03  0.00000000000E+00 0.  1.
<mgrwt>
<rscale>  1 0.12973503E+03</rscale>
<asrwt>0</asrwt>
<pdfrwt beam="1">  1       21 0.46732234E-02 0.12973503E+03</pdfrwt>
<pdfrwt beam="2">  1       21 0.57157379E-01 0.12973503E+03</pdfrwt>
<totfact> 0.87031238E+05</totfact>
</mgrwt>
</event>
<event>
 6    1  0.4259848E-002  0.1260083E+03  0.7546771E-02  0.1233502E+00
         21   -1    0    0  503  502  0.00000000000E+00  0.00000000000E+00  0.11178847945E+04  0.11178847945E+04  0.00000000000E+00 0.  1.
         21   -1    0    0  504  503 -0.00000000000E+00 -0.00000000000E+00 -0.45840835027E+01  0.45840835027E+01  0.00000000000E+00 0.  1.
         25    2    1    2    0    0 -0.13415710650E+02 -0.88783003267E+01  0.10248020482E+04  0.10325198990E+04  0.12497719113E+03 0.  0.
          5    1    3    3  501    0 -0.29304568002E+02 -0.47676065275E+02  0.23367438316E+03  0.24028210972E+03  0.10000000000E+00 0. -1.
         -5    1    3    3    0  501  0.15888857352E+02  0.38797764948E+02  0.79112766508E+03  0.79223778931E+03  0.10000000000E+00 0. -1.
         21    1    1    2  504  502  0.13415710650E+02  0.88783003267E+01  0.88498662777E+02  0.89948978995E+02  0.00000000000E+00 0.  1.
<mgrwt>
<rscale>  1 0.12600835E+03</rscale>
<asrwt>0</asrwt>
<pdfrwt beam="1">  1       21 0.17198206E+00 0.12600835E+03</pdfrwt>
<pdfrwt beam="2">  1       21 0.70524451E-03 0.12600835E+03</pdfrwt>
<totfact> 0.13633881E+06</totfact>
</mgrwt>
</event>
<event>
 6    1  0.4259848E-002  0.1399867E+03  0.7546771E-02  0.1213347E+00
         21   -1    0    0  504  502  0.00000000000E+00  0.00000000000E+00  0.20278533371E+03  0.20278533371E+03  0.00000000000E+00 0. -1.
         21   -1    0    0  502  503 -0.00000000000E+00 -0.00000000000E+00 -0.19050630174E+03  0.19050630174E+03  0.00000000000E+00 0.  1.
         25    2    1    2    0    0  0.56608186811E+02  0.27695462527E+02  0.17189517476E+03  0.22168499660E+03  0.12499904461E+03 0.  0.
          5    1    3    3  501    0  0.23618848271E+02  0.52011230713E+02  0.17143346891E+03  0.18069992356E+03  0.10000000000E+00 0. -1.
         -5    1    3    3    0  501  0.32989338540E+02 -0.24315768186E+02  0.46170585098E+00  0.40985073039E+02  0.10000000000E+00 0. -1.
         21    1    1    2  504  503 -0.56608186811E+02 -0.27695462527E+02 -0.15961614279E+03  0.17160663885E+03  0.00000000000E+00 0.  1.
<mgrwt>
<rscale>  1 0.13998674E+03</rscale>
<asrwt>0</asrwt>
<pdfrwt beam="1">  1       21 0.31197744E-01 0.13998674E+03</pdfrwt>
<pdfrwt beam="2">  1       21 0.29308662E-01 0.13998674E+03</pdfrwt>
<totfact> 0.11221134E+05</totfact>
</mgrwt>
</event>
<event>
 6    1  0.4259848E-002  0.1528918E+03  0.7546771E-02  0.1196964E+00
         21   -1    0    0  504  502  0.00000000000E+00  0.00000000000E+00  0.21381257899E+02  0.21381257899E+02  0.00000000000E+00 0. -1.
         21   -1    0    0  502  503 -0.00000000000E+00 -0.00000000000E+00 -0.13327882830E+04  0.13327882830E+04  0.00000000000E+00 0. -1.
         25    2    1    2    0    0  0.76105768797E+02 -0.44277242925E+02 -0.28010330500E+03  0.31911402288E+03  0.12499334319E+03 0.  0.
          5    1    3    3  501    0  0.82949693782E+02 -0.77895898218E+02 -0.24443541897E+03  0.26962400988E+03  0.10000000000E+00 0. -1.
         -5    1    3    3    0  501 -0.68439249848E+01  0.33618655293E+02 -0.35667886030E+02  0.49490013000E+02  0.10000000000E+00 0. -1.
         21    1    1    2  504  503 -0.76105768797E+02  0.44277242925E+02 -0.10313037201E+04  0.10350555181E+04  0.00000000000E+00 0. -1.
<mgrwt>
<rscale>  1 0.15289179E+03</rscale>
<asrwt>0</asrwt>
<pdfrwt beam="1">  1       21 0.32894236E-02 0.15289179E+03</pdfrwt>
<pdfrwt beam="2">  1       21 0.20504439E+00 0.15289179E+03</pdfrwt>
<totfact> 0.69518375E+04</totfact>
</mgrwt>
</event>
<event>
 6    1  0.4259848E-002  0.1296651E+03  0.7546771E-02  0.1227954E+00
         21   -1    0    0  504  502  0.00000000000E+00  0.00000000000E+00  0.66108227765E+01  0.66108227765E+01  0.00000000000E+00 0.  1.
         21   -1    0    0  502  503 -0.00000000000E+00 -0.00000000000E+00 -0.10204702294E+04  0.10204702294E+04  0.00000000000E+00 0.  1.
         25    2    1    2    0    0 -0.19035644512E+02 -0.28674267141E+02 -0.78055469003E+03  0.79125132516E+03  0.12501386358E+03 0.  0.
          5    1    3    3  501    0 -0.41384005389E+02  0.34306984132E+02 -0.49839251585E+03  0.50128306865E+03  0.10000000000E+00 0.  1.
         -5    1    3    3    0  501  0.22348360877E+02 -0.62981251274E+02 -0.28216217418E+03  0.28996825651E+03  0.10000000000E+00 0.  1.
         21    1    1    2  504  503  0.19035644512E+02  0.28674267141E+02 -0.23330471655E+03  0.23582972697E+03  0.00000000000E+00 0.  1.
<mgrwt>
<rscale>  1 0.12966509E+03</rscale>
<asrwt>0</asrwt>
<pdfrwt beam="1">  1       21 0.10170501E-02 0.12966509E+03</pdfrwt>
<pdfrwt beam="2">  1       21 0.15699536E+00 0.12966509E+03</pdfrwt>
<totfact> 0.97932660E+05</totfact>
</mgrwt>
</event>
<event>
 6    1  0.4259848E-002  0.1268705E+03  0.7546771E-02  0.1232175E+00
         21   -1    0    0  503  502  0.00000000000E+00  0.00000000000E+00  0.17489854371E+03  0.17489854371E+03  0.00000000000E+00 0.  1.
         21   -1    0    0  504  503 -0.00000000000E+00 -0.00000000000E+00 -0.53847053804E+02  0.53847053804E+02  0.00000000000E+00 0.  1.
         25    2    1    2    0    0 -0.34602976281E+01  0.21380651913E+02  0.14750227581E+03  0.19455861154E+03  0.12500810382E+03 0.  0.
          5    1    3    3  501    0  0.15253567383E+02  0.33922803836E+02 -0.74869601427E+01  0.37940644567E+02  0.10000000000E+00 0. -1.
         -5    1    3    3    0  501 -0.18713865012E+02 -0.12542151923E+02  0.15498923595E+03  0.15661796697E+03  0.10000000000E+00 0. -1.
         21    1    1    2  504  502  0.34602976281E+01 -0.21380651913E+02 -0.26450785895E+02  0.34186985979E+02  0.00000000000E+00 0.  1.
<mgrwt>
<rscale>  1 0.12687053E+03</rscale>
<asrwt>0</asrwt>
<pdfrwt beam="1">  1       21 0.26907468E-01 0.12687053E+03</pdfrwt>
<pdfrwt beam="2">  1       21 0.82841622E-02 0.12687053E+03</pdfrwt>
<totfact> 0.14810133E+06</totfact>
</mgrwt>
</event>
<event>
 6    1  0.4259848E-002  0.1267608E+03  0.7546771E-02  0.1232343E+00
         21   -1    0    0  504  502  0.00000000000E+00  0.00000000000E+00  0.10524270045E+03  0.10524270045E+03  0.00000000000E+00 0.  1.
         21   -1    0    0  502  503 -0.00000000000E+00 -0.00000000000E+00 -0.12142167996E+03  0.12142167996E+03  0.00000000000E+00 0.  1.
         25    2    1    2    0    0  0.11221132232E+02 -0.17806515774E+02  0.65243311196E+02  0.14256577616E+03  0.12500130025E+03 0.  0.
          5    1    3    3  501    0 -0.38702884160E+02 -0.46613950556E+02  0.76225305142E+01  0.61064610047E+02  0.10000000000E+00 0. -1.
         -5    1    3    3    0  501  0.49924016392E+02  0.28807434782E+02  0.57620780682E+02  0.81501166114E+02  0.10000000000E+00 0. -1.
         21    1    1    2  504  503 -0.11221132232E+02  0.17806515774E+02 -0.81422290707E+02  0.84098604249E+02  0.00000000000E+00 0.  1.
<mgrwt>
<rscale>  1 0.12676084E+03</rscale>
<asrwt>0</asrwt>
<pdfrwt beam="1">  1       21 0.16191185E-01 0.12676084E+03</pdfrwt>
<pdfrwt beam="2">  1       21 0.18680259E-01 0.12676084E+03</pdfrwt>
<totfact> 0.89597659E+05</totfact>
</mgrwt>
</event>
<event>
 6    1  0.4259848E-002  0.1291085E+03  0.7546771E-02  0.1228785E+00
         21   -1    0    0  503  502  0.00000000000E+00  0.00000000000E+00  0.64240888324E+02  0.64240888324E+02  0.00000000000E+00 0. -1.
         21   -1    0    0  504  503 -0.00000000000E+00 -0.00000000000E+00 -0.10208158528E+03  0.10208158528E+03  0.00000000000E+00 0. -1.
         25    2    1    2    0    0  0.31886862654E+02  0.52166257723E+01 -0.24743603038E+02  0.13145817864E+03  0.12500008658E+03 0.  0.
          5    1    3    3  501    0  0.30640977685E+02 -0.12733521852E+02  0.46977477145E+02  0.57514393426E+02  0.10000000000E+00 0.  1.
         -5    1    3    3    0  501  0.12458849692E+01  0.17950147625E+02 -0.71721080183E+02  0.73943785214E+02  0.10000000000E+00 0.  1.
         21    1    1    2  504  502 -0.31886862654E+02 -0.52166257723E+01 -0.13097093921E+02  0.34864294967E+02  0.00000000000E+00 0. -1.
<mgrwt>
<rscale>  1 0.12910851E+03</rscale>
<asrwt>0</asrwt>
<pdfrwt beam="1">  1       21 0.98832136E-02 0.12910851E+03</pdfrwt>
<pdfrwt beam="2">  1       21 0.15704859E-01 0.12910851E+03</pdfrwt>
<totfact> 0.29593330E+06</totfact>
</mgrwt>
</event>
<event>
 6    1  0.4259848E-002  0.1512131E+03  0.7546771E-02  0.1198990E+00
         21   -1    0    0  504  502  0.00000000000E+00  0.00000000000E+00  0.29842114337E+03  0.29842114337E+03  0.00000000000E+00 0. -1.
         21   -1    0    0  502  503 -0.00000000000E+00 -0.00000000000E+00 -0.53245963092E+02  0.53245963092E+02  0.00000000000E+00 0. -1.
         25    2    1    2    0    0 -0.85070215843E+02 -0.19641421551E+01  0.21185220021E+03  0.26028209413E+03  0.12499845725E+03 0.  0.
          5    1    3    3  501    0 -0.85590593804E+02 -0.52041921490E+02  0.12696153154E+03  0.16171997969E+03  0.10000000000E+00 0.  1.
         -5    1    3    3    0  501  0.52037796112E+00  0.50077779335E+02  0.84890668669E+02  0.98562114442E+02  0.10000000000E+00 0.  1.
         21    1    1    2  504  503  0.85070215843E+02  0.19641421551E+01  0.33322980074E+02  0.91385012333E+02  0.00000000000E+00 0. -1.
<mgrwt>
<rscale>  1 0.15121314E+03</rscale>
<asrwt>0</asrwt>
<pdfrwt beam="1">  1       21 0.45910944E-01 0.15121314E+03</pdfrwt>
<pdfrwt beam="2">  1       21 0.81916868E-02 0.15121314E+03</pdfrwt>
<totfact> 0.52690217E+05</totfact>
</mgrwt>
</event>
<event>
 6    1  0.4259848E-002  0.1268030E+03  0.7546771E-02  0.1232278E+00
         21   -1    0    0  504  502  0.00000000000E+00  0.00000000000E+00  0.26719735096E+02  0.26719735096E+02  0.00000000000E+00 0.  1.
         21   -1    0    0  502  503 -0.00000000000E+00 -0.00000000000E+00 -0.21433605489E+03  0.21433605489E+03  0.00000000000E+00 0.  1.
         25    2    1    2    0    0  0.20134066136E+02  0.74758583296E+01 -0.14040723564E+03  0.18919090106E+03  0.12497094121E+03 0.  0.
          5    1    3    3  501    0 -0.21380889816E+02  0.25586429709E+02  0.77771986008E+01  0.34238905541E+02  0.10000000000E+00 0.  1.
         -5    1    3    3    0  501  0.41514955951E+02 -0.18110571380E+02 -0.14818443424E+03  0.15495199551E+03  0.10000000000E+00 0.  1.
         21    1    1    2  504  503 -0.20134066136E+02 -0.74758583296E+01 -0.47209084161E+02  0.51864888935E+02  0.00000000000E+00 0.  1.
<mgrwt>
<rscale>  1 0.12680302E+03</rscale>
<asrwt>0</asrwt>
<pdfrwt beam="1">  1       21 0.41107285E-02 0.12680302E+03</pdfrwt>
<pdfrwt beam="2">  1       21 0.32974778E-01 0.12680302E+03</pdfrwt>
<totfact> 0.32789994E+06</totfact>
</mgrwt>
</event>
<event>
 6    1  0.4259848E-002  0.1265403E+03  0.7546771E-02  0.1232681E+00
         21   -1    0    0  503  502  0.00000000000E+00  0.00000000000E+00  0.42607598252E+03  0.42607598252E+03  0.00000000000E+00 0.  1.
         21   -1    0    0  504  503 -0.00000000000E+00 -0.00000000000E+00 -0.20520276939E+02  0.20520276939E+02  0.00000000000E+00 0.  1.
         25    2    1    2    0    0 -0.82963546862E+01 -0.17954512172E+02  0.40752582094E+03  0.42671975667E+03  0.12498504708E+03 0.  0.
          5    1    3    3  501    0  0.27987629577E+02 -0.31087608732E+01  0.14370692293E+02  0.31614847785E+02  0.10000000000E+00 0. -1.
         -5    1    3    3    0  501 -0.36283984263E+02 -0.14845751298E+02  0.39315512865E+03  0.39510490889E+03  0.10000000000E+00 0. -1.
         21    1    1    2  504  502  0.82963546862E+01  0.17954512172E+02 -0.19701153604E+01  0.19876502784E+02  0.00000000000E+00 0.  1.
<mgrwt>
<rscale>  1 0.12654033E+03</rscale>
<asrwt>0</asrwt>
<pdfrwt beam="1">  1       21 0.65550145E-01 0.12654033E+03</pdfrwt>
<pdfrwt beam="2">  1       21 0.31569660E-02 0.12654033E+03</pdfrwt>
<totfact> 0.12452914E+06</totfact>
</mgrwt>
</event>
<event>
 6    1  0.4259848E-002  0.1270708E+03  0.7546771E-02  0.1231868E+00
         21   -1    0    0  503  502  0.00000000000E+00  0.00000000000E+00  0.37672114699E+02  0.37672114699E+02  0.00000000000E+00 0.  1.
         21   -1    0    0  504  503 -0.00000000000E+00 -0.00000000000E+00 -0.15722457714E+03  0.15722457714E+03  0.00000000000E+00 0.  1.
         25    2    1    2    0    0  0.13228332221E+02 -0.18622075811E+02 -0.82940959801E+02  0.15174379383E+03  0.12500082269E+03 0.  0.
          5    1    3    3  501    0  0.29697332709E+02 -0.27943177478E+02 -0.11079997838E+03  0.11806522751E+03  0.10000000000E+00 0. -1.
         -5    1    3    3    0  501 -0.16469000488E+02  0.93211016669E+01  0.27859018580E+02  0.33678566323E+02  0.10000000000E+00 0. -1.
         21    1    1    2  504  502 -0.13228332221E+02  0.18622075811E+02 -0.36611502641E+02  0.43152898008E+02  0.00000000000E+00 0.  1.
<mgrwt>
<rscale>  1 0.12707075E+03</rscale>
<asrwt>0</asrwt>
<pdfrwt beam="1">  1       21 0.57957099E-02 0.12707075E+03</pdfrwt>
<pdfrwt beam="2">  1       21 0.24188397E-01 0.12707075E+03</pdfrwt>
<totfact> 0.33366530E+06</totfact>
</mgrwt>
</event>
<event>
 6    1  0.4259848E-002  0.1264715E+03  0.7546771E-02  0.1232787E+00
         21   -1    0    0  503  502  0.00000000000E+00  0.00000000000E+00  0.79463568618E+02  0.79463568618E+02  0.00000000000E+00 0.  1.
         21   -1    0    0  504  503 -0.00000000000E+00 -0.00000000000E+00 -0.67125347411E+02  0.67125347411E+02  0.00000000000E+00 0.  1.
         25    2    1    2    0    0 -0.17983444741E+02 -0.67145166471E+01  0.14371593922E+02  0.12728545460E+03  0.12500622073E+03 0.  0.
          5    1    3    3  501    0  0.22764547848E+02 -0.57179777191E+02  0.49710552455E+01  0.61745226120E+02  0.10000000000E+00 0.  1.
         -5    1    3    3    0  501 -0.40747992589E+02  0.50465260544E+02  0.94005386761E+01  0.65540228480E+02  0.10000000000E+00 0.  1.
         21    1    1    2  504  502  0.17983444741E+02  0.67145166471E+01 -0.20333727145E+01  0.19303461429E+02  0.00000000000E+00 0.  1.
<mgrwt>
<rscale>  1 0.12647152E+03</rscale>
<asrwt>0</asrwt>
<pdfrwt beam="1">  1       21 0.12225164E-01 0.12647152E+03</pdfrwt>
<pdfrwt beam="2">  1       21 0.10326977E-01 0.12647152E+03</pdfrwt>
<totfact> 0.42879414E+06</totfact>
</mgrwt>
</event>
<event>
 6    1  0.4259848E-002  0.1270944E+03  0.7546771E-02  0.1231832E+00
         21   -1    0    0  504  502  0.00000000000E+00  0.00000000000E+00  0.11145349687E+04  0.11145349687E+04  0.00000000000E+00 0. -1.
         21   -1    0    0  502  503 -0.00000000000E+00 -0.00000000000E+00 -0.12231400544E+02  0.12231400544E+02  0.00000000000E+00 0. -1.
         25    2    1    2    0    0  0.22889458987E+01  0.22873287689E+02  0.10954228412E+04  0.11027711412E+04  0.12499824958E+03 0.  0.
          5    1    3    3  501    0  0.70741513982E+01  0.37874636906E+02  0.99140575388E+02  0.10636444626E+03  0.10000000000E+00 0.  1.
         -5    1    3    3    0  501 -0.47852054995E+01 -0.15001349217E+02  0.99628226578E+03  0.99640669497E+03  0.10000000000E+00 0.  1.
         21    1    1    2  504  503 -0.22889458987E+01 -0.22873287689E+02  0.68807269618E+01  0.23995227995E+02  0.00000000000E+00 0. -1.
<mgrwt>
<rscale>  1 0.12709441E+03</rscale>
<asrwt>0</asrwt>
<pdfrwt beam="1">  1       21 0.17146684E+00 0.12709441E+03</pdfrwt>
<pdfrwt beam="2">  1       21 0.18817548E-02 0.12709441E+03</pdfrwt>
<totfact> 0.29066630E+05</totfact>
</mgrwt>
</event>
<event>
 6    1  0.4259848E-002  0.1389310E+03  0.7546771E-02  0.1214775E+00
         21   -1    0    0  504  502  0.00000000000E+00  0.00000000000E+00  0.12916053715E+04  0.12916053715E+04  0.00000000000E+00 0. -1.
         21   -1    0    0  502  503 -0.00000000000E+00 -0.00000000000E+00 -0.22919080287E+02  0.22919080287E+02  0.00000000000E+00 0. -1.
         25    2    1    2    0    0  0.55605909748E+02  0.24190404507E+02  0.12394366310E+04  0.12471988587E+04  0.12499855165E+03 0.  0.
          5    1    3    3  501    0  0.63850444591E+02 -0.15129143550E+02  0.11035158633E+04  0.11054650790E+04  0.10000000000E+00 0. -1.
         -5    1    3    3    0  501 -0.82445348435E+01  0.39319548057E+02  0.13592076766E+03  0.14173377966E+03  0.10000000000E+00 0. -1.
         21    1    1    2  504  503 -0.55605909748E+02 -0.24190404507E+02  0.29249660240E+02  0.67325593152E+02  0.00000000000E+00 0. -1.
<mgrwt>
<rscale>  1 0.13893103E+03</rscale>
<asrwt>0</asrwt>
<pdfrwt beam="1">  1       21 0.19870846E+00 0.13893103E+03</pdfrwt>
<pdfrwt beam="2">  1       21 0.35260134E-02 0.13893103E+03</pdfrwt>
<totfact> 0.68592639E+04</totfact>
</mgrwt>
</event>
<event>
 6    1  0.4259848E-002  0.1261929E+03  0.7546771E-02  0.1233217E+00
         21   -1    0    0  503  502  0.00000000000E+00  0.00000000000E+00  0.14868403749E+03  0.14868403749E+03  0.00000000000E+00 0. -1.
         21   -1    0    0  504  503 -0.00000000000E+00 -0.00000000000E+00 -0.54082807029E+02  0.54082807029E+02  0.00000000000E+00 0. -1.
         25    2    1    2    0    0  0.13144179230E+02 -0.11344979310E+02  0.11857834241E+03  0.17316313021E+03  0.12499267328E+03 0.  0.
          5    1    3    3  501    0 -0.39648937682E+02  0.16542885515E+02  0.29908562866E+01  0.43065769954E+02  0.10000000000E+00 0. -1.
         -5    1    3    3    0  501  0.52793116911E+02 -0.27887864825E+02  0.11558748612E+03  0.13009736026E+03  0.10000000000E+00 0. -1.
         21    1    1    2  504  502 -0.13144179230E+02  0.11344979310E+02 -0.23977111951E+02  0.29603714305E+02  0.00000000000E+00 0. -1.
<mgrwt>
<rscale>  1 0.12619289E+03</rscale>
<asrwt>0</asrwt>
<pdfrwt beam="1">  1       21 0.22874467E-01 0.12619289E+03</pdfrwt>
<pdfrwt beam="2">  1       21 0.83204319E-02 0.12619289E+03</pdfrwt>
<totfact> 0.19967666E+06</totfact>
</mgrwt>
</event>
<event>
 6    1  0.4259848E-002  0.1266503E+03  0.7546771E-02  0.1232513E+00
         21   -1    0    0  504  502  0.00000000000E+00  0.00000000000E+00  0.81273982461E+01  0.81273982461E+01  0.00000000000E+00 0. -1.
         21   -1    0    0  502  503 -0.00000000000E+00 -0.00000000000E+00 -0.94086691052E+03  0.94086691052E+03  0.00000000000E+00 0. -1.
         25    2    1    2    0    0  0.15460466473E+02 -0.13241846952E+02 -0.50049707436E+03  0.51627280749E+03  0.12500367105E+03 0.  0.
          5    1    3    3  501    0  0.31072310858E+02 -0.61118095477E+02 -0.37190279064E+03  0.37817007521E+03  0.10000000000E+00 0. -1.
         -5    1    3    3    0  501 -0.15611844385E+02  0.47876248525E+02 -0.12859428372E+03  0.13810273228E+03  0.10000000000E+00 0. -1.
         21    1    1    2  504  503 -0.15460466473E+02  0.13241846952E+02 -0.43224243791E+03  0.43272150127E+03  0.00000000000E+00 0. -1.
<mgrwt>
<rscale>  1 0.12665027E+03</rscale>
<asrwt>0</asrwt>
<pdfrwt beam="1">  1       21 0.12503687E-02 0.12665027E+03</pdfrwt>
<pdfrwt beam="2">  1       21 0.14474878E+00 0.12665027E+03</pdfrwt>
<totfact> 0.87250434E+05</totfact>
</mgrwt>
</event>
<event>
 6    1  0.4259848E-002  0.1279539E+03  0.7546771E-02  0.1230524E+00
         21   -1    0    0  504  502  0.00000000000E+00  0.00000000000E+00  0.22078357655E+03  0.22078357655E+03  0.00000000000E+00 0.  1.
         21   -1    0    0  502  503 -0.00000000000E+00 -0.00000000000E+00 -0.35159790176E+02  0.35159790176E+02  0.00000000000E+00 0.  1.
         25    2    1    2    0    0  0.96146939175E+01 -0.25601091877E+02  0.18915667038E+03  0.22836911217E+03  0.12499738877E+03 0.  0.
          5    1    3    3  501    0  0.33502957403E+02 -0.56782392419E+02  0.17433594313E+03  0.18638594183E+03  0.10000000000E+00 0.  1.
         -5    1    3    3    0  501 -0.23888263486E+02  0.31181300542E+02  0.14820727248E+02  0.41983170343E+02  0.10000000000E+00 0.  1.
         21    1    1    2  504  503 -0.96146939175E+01  0.25601091877E+02 -0.35328840123E+01  0.27574254548E+02  0.00000000000E+00 0.  1.
<mgrwt>
<rscale>  1 0.12795392E+03</rscale>
<asrwt>0</asrwt>
<pdfrwt beam="1">  1       21 0.33966703E-01 0.12795392E+03</pdfrwt>
<pdfrwt beam="2">  1       21 0.54091986E-02 0.12795392E+03</pdfrwt>
<totfact> 0.19549743E+06</totfact>
</mgrwt>
</event>
<event>
 6    1  0.4259848E-002  0.1265318E+03  0.7546771E-02  0.1232695E+00
         21   -1    0    0  503  502  0.00000000000E+00  0.00000000000E+00  0.24848656323E+03  0.24848656323E+03  0.00000000000E+00 0.  1.
         21   -1    0    0  504  503 -0.00000000000E+00 -0.00000000000E+00 -0.18146956743E+03  0.18146956743E+03  0.00000000000E+00 0.  1.
         25    2    1    2    0    0  0.41574607575E+01  0.19174138853E+02  0.23175883714E+03  0.26405011398E+03  0.12500148806E+03 0.  0.
          5    1    3    3  501    0  0.63304460893E+02 -0.26616034189E+01  0.11035972028E+03  0.12725492825E+03  0.10000000000E+00 0. -1.
         -5    1    3    3    0  501 -0.59147000136E+02  0.21835742272E+02  0.12139911686E+03  0.13679518573E+03  0.10000000000E+00 0. -1.
         21    1    1    2  504  502 -0.41574607575E+01 -0.19174138853E+02 -0.16474184134E+03  0.16590601667E+03  0.00000000000E+00 0.  1.
<mgrwt>
<rscale>  1 0.12653183E+03</rscale>
<asrwt>0</asrwt>
<pdfrwt beam="1">  1       21 0.38228702E-01 0.12653183E+03</pdfrwt>
<pdfrwt beam="2">  1       21 0.27918395E-01 0.12653183E+03</pdfrwt>
<totfact> 0.83110593E+04</totfact>
</mgrwt>
</event>
<event>
 6    1  0.4259848E-002  0.1341917E+03  0.7546771E-02  0.1221365E+00
         21   -1    0    0  503  502  0.00000000000E+00  0.00000000000E+00  0.14192925486E+04  0.14192925486E+04  0.00000000000E+00 0. -1.
         21   -1    0    0  504  503 -0.00000000000E+00 -0.00000000000E+00 -0.77084731461E+01  0.77084731461E+01  0.00000000000E+00 0. -1.
         25    2    1    2    0    0  0.16270776385E+02 -0.46010651493E+02  0.12734217569E+04  0.12804727157E+04  0.12500274557E+03 0.  0.
          5    1    3    3  501    0 -0.50724740161E+02 -0.38335371090E+02  0.75728287250E+03  0.75994733958E+03  0.10000000000E+00 0. -1.
         -5    1    3    3    0  501  0.66995516546E+02 -0.76752804022E+01  0.51613888442E+03  0.52052537611E+03  0.10000000000E+00 0. -1.
         21    1    1    2  504  502 -0.16270776385E+02  0.46010651493E+02  0.13816231855E+03  0.14652830608E+03  0.00000000000E+00 0. -1.
<mgrwt>
<rscale>  1 0.13419167E+03</rscale>
<asrwt>0</asrwt>
<pdfrwt beam="1">  1       21 0.21835249E+00 0.13419167E+03</pdfrwt>
<pdfrwt beam="2">  1       21 0.11859201E-02 0.13419167E+03</pdfrwt>
<totfact> 0.30334665E+05</totfact>
</mgrwt>
</event>
<event>
 6    1  0.4259848E-002  0.1259814E+03  0.7546771E-02  0.1233543E+00
         21   -1    0    0  503  502  0.00000000000E+00  0.00000000000E+00  0.20132627922E+02  0.20132627922E+02  0.00000000000E+00 0. -1.
         21   -1    0    0  504  503 -0.00000000000E+00 -0.00000000000E+00 -0.26769714722E+03  0.26769714722E+03  0.00000000000E+00 0. -1.
         25    2    1    2    0    0 -0.79736213944E+01  0.13508003049E+02 -0.18854184827E+03  0.22675833763E+03  0.12500108140E+03 0.  0.
          5    1    3    3  501    0 -0.48097683047E+02  0.44167026809E+02 -0.60103800568E+02  0.88750156137E+02  0.10000000000E+00 0.  1.
         -5    1    3    3    0  501  0.40124061653E+02 -0.30659023759E+02 -0.12843804770E+03  0.13800818149E+03  0.10000000000E+00 0.  1.
         21    1    1    2  504  502  0.79736213944E+01 -0.13508003049E+02 -0.59022671029E+02  0.61071437513E+02  0.00000000000E+00 0. -1.
<mgrwt>
<rscale>  1 0.12598141E+03</rscale>
<asrwt>0</asrwt>
<pdfrwt beam="1">  1       21 0.30973276E-02 0.12598141E+03</pdfrwt>
<pdfrwt beam="2">  1       21 0.41184174E-01 0.12598141E+03</pdfrwt>
<totfact> 0.33717644E+06</totfact>
</mgrwt>
</event>
<event>
 6    1  0.4259848E-002  0.1326763E+03  0.7546771E-02  0.1223538E+00
         21   -1    0    0  504  502  0.00000000000E+00  0.00000000000E+00  0.13161604726E+04  0.13161604726E+04  0.00000000000E+00 0. -1.
         21   -1    0    0  502  503 -0.00000000000E+00 -0.00000000000E+00 -0.36225226080E+02  0.36225226080E+02  0.00000000000E+00 0. -1.
         25    2    1    2    0    0 -0.39932298787E+02 -0.19626662894E+02  0.12977079213E+04  0.13044726278E+04  0.12499277380E+03 0.  0.
          5    1    3    3  501    0 -0.26392036200E+02 -0.38901776437E+02  0.16622304083E+03  0.17274257462E+03  0.10000000000E+00 0.  1.
         -5    1    3    3    0  501 -0.13540262587E+02  0.19275113543E+02  0.11314848804E+04  0.11317300532E+04  0.10000000000E+00 0.  1.
         21    1    1    2  504  503  0.39932298787E+02  0.19626662894E+02 -0.17772674794E+02  0.47913070786E+02  0.00000000000E+00 0. -1.
<mgrwt>
<rscale>  1 0.13267625E+03</rscale>
<asrwt>0</asrwt>
<pdfrwt beam="1">  1       21 0.20248619E+00 0.13267625E+03</pdfrwt>
<pdfrwt beam="2">  1       21 0.55731127E-02 0.13267625E+03</pdfrwt>
<totfact> 0.30358250E+04</totfact>
</mgrwt>
</event>
<event>
 6    1  0.4259848E-002  0.1266583E+03  0.7546771E-02  0.1232500E+00
         21   -1    0    0  504  502  0.00000000000E+00  0.00000000000E+00  0.10503809012E+03  0.10503809012E+03  0.00000000000E+00 0. -1.
         21   -1    0    0  502  503 -0.00000000000E+00 -0.00000000000E+00 -0.59565815131E+02  0.59565815131E+02  0.00000000000E+00 0. -1.
         25    2    1    2    0    0 -0.16125295758E+02 -0.12536996335E+02  0.59386333623E+02  0.13988948703E+03  0.12500052208E+03 0.  0.
          5    1    3    3  501    0  0.97977353636E+01 -0.38201235832E+02  0.86082177728E+02  0.94686225818E+02  0.10000000000E+00 0. -1.
         -5    1    3    3    0  501 -0.25923031122E+02  0.25664239497E+02 -0.26695844105E+02  0.45203261210E+02  0.10000000000E+00 0. -1.
         21    1    1    2  504  503  0.16125295758E+02  0.12536996335E+02 -0.13914058634E+02  0.24714418222E+02  0.00000000000E+00 0. -1.
<mgrwt>
<rscale>  1 0.12665833E+03</rscale>
<asrwt>0</asrwt>
<pdfrwt beam="1">  1       21 0.16159706E-01 0.12665833E+03</pdfrwt>
<pdfrwt beam="2">  1       21 0.91639715E-02 0.12665833E+03</pdfrwt>
<totfact> 0.32033910E+06</totfact>
</mgrwt>
</event>
<event>
 6    1  0.4259848E-002  0.1845194E+03  0.7546771E-02  0.1163499E+00
         21   -1    0    0  504  502  0.00000000000E+00  0.00000000000E+00  0.18829975201E+03  0.18829975201E+03  0.00000000000E+00 0. -1.
         21   -1    0    0  502  503 -0.00000000000E+00 -0.00000000000E+00 -0.14354359366E+03  0.14354359366E+03  0.00000000000E+00 0. -1.
         25    2    1    2    0    0 -0.13571309385E+03 -0.18564053675E+01 -0.11597292777E+02  0.18488348197E+03  0.12500365844E+03 0.  0.
          5    1    3    3  501    0 -0.42679561214E+02 -0.44102180452E+02  0.37080610752E+02  0.71704455648E+02  0.10000000000E+00 0.  1.
         -5    1    3    3    0  501 -0.93033532639E+02  0.42245775085E+02 -0.48677903529E+02  0.11317902632E+03  0.10000000000E+00 0.  1.
         21    1    1    2  504  503  0.13571309385E+03  0.18564053675E+01  0.56353451124E+02  0.14695986370E+03  0.00000000000E+00 0. -1.
<mgrwt>
<rscale>  1 0.18451939E+03</rscale>
<asrwt>0</asrwt>
<pdfrwt beam="1">  1       21 0.28969193E-01 0.18451939E+03</pdfrwt>
<pdfrwt beam="2">  1       21 0.22083630E-01 0.18451939E+03</pdfrwt>
<totfact> 0.21908413E+05</totfact>
</mgrwt>
</event>
<event>
 6    1  0.4259848E-002  0.1656007E+03  0.7546771E-02  0.1182515E+00
         21   -1    0    0  504  502  0.00000000000E+00  0.00000000000E+00  0.55406831821E+02  0.55406831821E+02  0.00000000000E+00 0. -1.
         21   -1    0    0  502  503 -0.00000000000E+00 -0.00000000000E+00 -0.45782212293E+03  0.45782212293E+03  0.00000000000E+00 0. -1.
         25    2    1    2    0    0 -0.14263446931E+00 -0.10860577894E+03 -0.10371728997E+03  0.19539923391E+03  0.12501339453E+03 0.  0.
          5    1    3    3  501    0 -0.32015489407E+02 -0.10314862553E+03 -0.11807362772E+03  0.16001881788E+03  0.10000000000E+00 0. -1.
         -5    1    3    3    0  501  0.31872854938E+02 -0.54571534095E+01  0.14356337755E+02  0.35380416037E+02  0.10000000000E+00 0. -1.
         21    1    1    2  504  503  0.14263446931E+00  0.10860577894E+03 -0.29869800114E+03  0.31782972084E+03  0.00000000000E+00 0. -1.
<mgrwt>
<rscale>  1 0.16560068E+03</rscale>
<asrwt>0</asrwt>
<pdfrwt beam="1">  1       21 0.85241281E-02 0.16560068E+03</pdfrwt>
<pdfrwt beam="2">  1       21 0.70434172E-01 0.16560068E+03</pdfrwt>
<totfact> 0.19801182E+05</totfact>
</mgrwt>
</event>
<event>
 6    1  0.4259848E-002  0.1344304E+03  0.7546771E-02  0.1221026E+00
         21   -1    0    0  503  502  0.00000000000E+00  0.00000000000E+00  0.11700758747E+03  0.11700758747E+03  0.00000000000E+00 0. -1.
         21   -1    0    0  504  503 -0.00000000000E+00 -0.00000000000E+00 -0.14960787263E+03  0.14960787263E+03  0.00000000000E+00 0. -1.
         25    2    1    2    0    0  0.17646542726E+02  0.46134481235E+02  0.70864545642E+02  0.15196485154E+03  0.12502696287E+03 0.  0.
          5    1    3    3  501    0 -0.46320467169E+01 -0.42443063135E+02  0.28102363902E+02  0.51113817329E+02  0.10000000000E+00 0. -1.
         -5    1    3    3    0  501  0.22278589443E+02  0.88577544370E+02  0.42762181740E+02  0.10085103421E+03  0.10000000000E+00 0. -1.
         21    1    1    2  504  502 -0.17646542726E+02 -0.46134481235E+02 -0.10346483081E+03  0.11465060856E+03  0.00000000000E+00 0. -1.
<mgrwt>
<rscale>  1 0.13443040E+03</rscale>
<asrwt>0</asrwt>
<pdfrwt beam="1">  1       21 0.18001167E-01 0.13443040E+03</pdfrwt>
<pdfrwt beam="2">  1       21 0.23016596E-01 0.13443040E+03</pdfrwt>
<totfact> 0.50132825E+05</totfact>
</mgrwt>
</event>
<event>
 6    1  0.4259848E-002  0.1311813E+03  0.7546771E-02  0.1225713E+00
         21   -1    0    0  504  502  0.00000000000E+00  0.00000000000E+00  0.12249348262E+03  0.12249348262E+03  0.00000000000E+00 0.  1.
         21   -1    0    0  502  503 -0.00000000000E+00 -0.00000000000E+00 -0.59983335155E+02  0.59983335155E+02  0.00000000000E+00 0.  1.
         25    2    1    2    0    0  0.22934224728E+02 -0.32548059811E+02  0.53385367026E+02  0.14162811548E+03  0.12499268306E+03 0.  0.
          5    1    3    3  501    0  0.22369773888E+01 -0.56714794001E+00 -0.40366417252E+02  0.40432454370E+02  0.10000000000E+00 0.  1.
         -5    1    3    3    0  501  0.20697247339E+02 -0.31980911871E+02  0.93751784278E+02  0.10119566111E+03  0.10000000000E+00 0.  1.
         21    1    1    2  504  503 -0.22934224728E+02  0.32548059811E+02  0.91247804383E+01  0.40848702297E+02  0.00000000000E+00 0.  1.
<mgrwt>
<rscale>  1 0.13118127E+03</rscale>
<asrwt>0</asrwt>
<pdfrwt beam="1">  1       21 0.18845151E-01 0.13118127E+03</pdfrwt>
<pdfrwt beam="2">  1       21 0.92282055E-02 0.13118127E+03</pdfrwt>
<totfact> 0.23933791E+06</totfact>
</mgrwt>
</event>
<event>
 6    1  0.4259848E-002  0.1260888E+03  0.7546771E-02  0.1233377E+00
         21   -1    0    0  503  502  0.00000000000E+00  0.00000000000E+00  0.24024359493E+02  0.24024359493E+02  0.00000000000E+00 0.  1.
         21   -1    0    0  504  503 -0.00000000000E+00 -0.00000000000E+00 -0.24132836864E+03  0.24132836864E+03  0.00000000000E+00 0.  1.
         25    2    1    2    0    0  0.70683639042E+01  0.14771208473E+02 -0.14937115899E+03  0.19547410123E+03  0.12502092123E+03 0.  0.
          5    1    3    3  501    0 -0.32764256016E+02  0.58403467473E+02 -0.81896564825E+02  0.10578997502E+03  0.10000000000E+00 0. -1.
         -5    1    3    3    0  501  0.39832619920E+02 -0.43632259000E+02 -0.67474594166E+02  0.89684126204E+02  0.10000000000E+00 0. -1.
         21    1    1    2  504  502 -0.70683639042E+01 -0.14771208473E+02 -0.67932850158E+02  0.69878626908E+02  0.00000000000E+00 0. -1.
<mgrwt>
<rscale>  1 0.12608878E+03</rscale>
<asrwt>0</asrwt>
<pdfrwt beam="1">  1       21 0.36960553E-02 0.12608878E+03</pdfrwt>
<pdfrwt beam="2">  1       21 0.37127441E-01 0.12608878E+03</pdfrwt>
<totfact> 0.30980729E+06</totfact>
</mgrwt>
</event>
<event>
 6    1  0.4259848E-002  0.1259373E+03  0.7546771E-02  0.1233612E+00
         21   -1    0    0  503  502  0.00000000000E+00  0.00000000000E+00  0.14244189328E+03  0.14244189328E+03  0.00000000000E+00 0.  1.
         21   -1    0    0  504  503 -0.00000000000E+00 -0.00000000000E+00 -0.35705383894E+02  0.35705383894E+02  0.00000000000E+00 0.  1.
         25    2    1    2    0    0  0.91507028795E+01  0.12224673816E+02  0.10228397157E+03  0.16224120582E+03  0.12500807978E+03 0.  0.
          5    1    3    3  501    0 -0.15435987803E+02 -0.45009700135E+02  0.65593422938E+01  0.48033090647E+02  0.10000000000E+00 0. -1.
         -5    1    3    3    0  501  0.24586690683E+02  0.57234373952E+02  0.95724629278E+02  0.11420811517E+03  0.10000000000E+00 0. -1.
         21    1    1    2  504  502 -0.91507028795E+01 -0.12224673816E+02  0.44525378171E+01  0.15906071360E+02  0.00000000000E+00 0.  1.
<mgrwt>
<rscale>  1 0.12593728E+03</rscale>
<asrwt>0</asrwt>
<pdfrwt beam="1">  1       21 0.21914137E-01 0.12593728E+03</pdfrwt>
<pdfrwt beam="2">  1       21 0.54931360E-02 0.12593728E+03</pdfrwt>
<totfact> 0.43933503E+06</totfact>
</mgrwt>
</event>
<event>
 6    1  0.4259848E-002  0.1259475E+03  0.7546771E-02  0.1233596E+00
         21   -1    0    0  503  502  0.00000000000E+00  0.00000000000E+00  0.83892594870E+02  0.83892594870E+02  0.00000000000E+00 0.  1.
         21   -1    0    0  504  503 -0.00000000000E+00 -0.00000000000E+00 -0.59666849358E+02  0.59666849358E+02  0.00000000000E+00 0.  1.
         25    2    1    2    0    0 -0.12322559097E+02 -0.92102420604E+01  0.19378084131E+02  0.12742953901E+03  0.12500441291E+03 0.  0.
          5    1    3    3  501    0 -0.53026513807E+01 -0.64730987219E+02 -0.74400957994E+01  0.65372653636E+02  0.10000000000E+00 0.  1.
         -5    1    3    3    0  501 -0.70199077168E+01  0.55520745158E+02  0.26818179931E+02  0.62056885372E+02  0.10000000000E+00 0.  1.
         21    1    1    2  504  502  0.12322559097E+02  0.92102420604E+01  0.48476613808E+01  0.16129905219E+02  0.00000000000E+00 0.  1.
<mgrwt>
<rscale>  1 0.12594752E+03</rscale>
<asrwt>0</asrwt>
<pdfrwt beam="1">  1       21 0.12906553E-01 0.12594752E+03</pdfrwt>
<pdfrwt beam="2">  1       21 0.91795153E-02 0.12594752E+03</pdfrwt>
<totfact> 0.47818399E+06</totfact>
</mgrwt>
</event>
<event>
 6    1  0.4259848E-002  0.1359509E+03  0.7546771E-02  0.1218884E+00
         21   -1    0    0  504  502  0.00000000000E+00  0.00000000000E+00  0.79337947052E+02  0.79337947052E+02  0.00000000000E+00 0.  1.
         21   -1    0    0  502  503 -0.00000000000E+00 -0.00000000000E+00 -0.11607445159E+03  0.11607445159E+03  0.00000000000E+00 0.  1.
         25    2    1    2    0    0  0.50642290069E+02 -0.17095315396E+02 -0.11890452002E+02  0.13646990397E+03  0.12500304192E+03 0.  0.
          5    1    3    3  501    0  0.81395124733E+02  0.14054299194E+02 -0.31634735399E+02  0.88450303221E+02  0.10000000000E+00 0. -1.
         -5    1    3    3    0  501 -0.30752834664E+02 -0.31149614590E+02  0.19744283397E+02  0.48019600747E+02  0.10000000000E+00 0. -1.
         21    1    1    2  504  503 -0.50642290069E+02  0.17095315396E+02 -0.24846052539E+02  0.58942494676E+02  0.00000000000E+00 0.  1.
<mgrwt>
<rscale>  1 0.13595092E+03</rscale>
<asrwt>0</asrwt>
<pdfrwt beam="1">  1       21 0.12205838E-01 0.13595092E+03</pdfrwt>
<pdfrwt beam="2">  1       21 0.17857608E-01 0.13595092E+03</pdfrwt>
<totfact> 0.16172046E+06</totfact>
</mgrwt>
</event>
<event>
 6    1  0.4259848E-002  0.1653900E+03  0.7546771E-02  0.1182742E+00
         21   -1    0    0  503  502  0.00000000000E+00  0.00000000000E+00  0.97073745093E+02  0.97073745093E+02  0.00000000000E+00 0. -1.
         21   -1    0    0  504  503 -0.00000000000E+00 -0.00000000000E+00 -0.28634673911E+03  0.28634673911E+03  0.00000000000E+00 0.  1.
         25    2    1    2    0    0 -0.58073162493E+02  0.91428433952E+02 -0.49234147347E-01  0.16539002295E+03  0.12498882562E+03 0.  0.
          5    1    3    3  501    0 -0.59331727809E+02 -0.94578349092E+01 -0.18411240219E+02  0.62838589516E+02  0.10000000000E+00 0. -1.
         -5    1    3    3    0  501  0.12585653155E+01  0.10088626886E+03  0.18362006072E+02  0.10255143343E+03  0.10000000000E+00 0. -1.
         21    1    1    2  504  502  0.58073162493E+02 -0.91428433952E+02 -0.18922375987E+03  0.21803046126E+03  0.00000000000E+00 0.  1.
<mgrwt>
<rscale>  1 0.16539002E+03</rscale>
<asrwt>0</asrwt>
<pdfrwt beam="1">  1       21 0.14934422E-01 0.16539002E+03</pdfrwt>
<pdfrwt beam="2">  1       21 0.44053344E-01 0.16539002E+03</pdfrwt>
<totfact> 0.19731816E+05</totfact>
</mgrwt>
</event>
<event>
 6    1  0.4259848E-002  0.1529153E+03  0.7546771E-02  0.1196936E+00
         21   -1    0    0  503  502  0.00000000000E+00  0.00000000000E+00  0.68398791808E+03  0.68398791808E+03  0.00000000000E+00 0. -1.
         21   -1    0    0  504  503 -0.00000000000E+00 -0.00000000000E+00 -0.49119757443E+02  0.49119757443E+02  0.00000000000E+00 0.  1.
         25    2    1    2    0    0 -0.56657595279E+02  0.67437740291E+02  0.62620315229E+03  0.64460335762E+03  0.12500067519E+03 0.  0.
          5    1    3    3  501    0 -0.67963006551E+02  0.28313995522E+02  0.15450419355E+03  0.17114966675E+03  0.10000000000E+00 0.  1.
         -5    1    3    3    0  501  0.11305411272E+02  0.39123744769E+02  0.47169895874E+03  0.47345369087E+03  0.10000000000E+00 0.  1.
         21    1    1    2  504  502  0.56657595279E+02 -0.67437740291E+02  0.86650083492E+01  0.88504317906E+02  0.00000000000E+00 0.  1.
<mgrwt>
<rscale>  1 0.15291534E+03</rscale>
<asrwt>0</asrwt>
<pdfrwt beam="1">  1       21 0.10522890E+00 0.15291534E+03</pdfrwt>
<pdfrwt beam="2">  1       21 0.75568863E-02 0.15291534E+03</pdfrwt>
<totfact> 0.97963507E+04</totfact>
</mgrwt>
</event>
<event>
 6    1  0.4259848E-002  0.1261201E+03  0.7546771E-02  0.1233329E+00
         21   -1    0    0  504  502  0.00000000000E+00  0.00000000000E+00  0.34630022804E+02  0.34630022804E+02  0.00000000000E+00 0.  1.
         21   -1    0    0  502  503 -0.00000000000E+00 -0.00000000000E+00 -0.14832197518E+03  0.14832197518E+03  0.00000000000E+00 0.  1.
         25    2    1    2    0    0 -0.14418106630E+02  0.86538476891E+01 -0.95648080355E+02  0.15828720129E+03  0.12499404761E+03 0.  0.
          5    1    3    3  501    0  0.25712240024E+02  0.88745287342E+01 -0.11177490757E+03  0.11503702234E+03  0.10000000000E+00 0. -1.
         -5    1    3    3    0  501 -0.40130346653E+02 -0.22068104506E+00  0.16126827214E+02  0.43250178943E+02  0.10000000000E+00 0. -1.
         21    1    1    2  504  503  0.14418106630E+02 -0.86538476891E+01 -0.18043872021E+02  0.24664796697E+02  0.00000000000E+00 0. -1.
<mgrwt>
<rscale>  1 0.12612011E+03</rscale>
<asrwt>0</asrwt>
<pdfrwt beam="1">  1       21 0.53276959E-02 0.12612011E+03</pdfrwt>
<pdfrwt beam="2">  1       21 0.22818765E-01 0.12612011E+03</pdfrwt>
<totfact> 0.42894253E+06</totfact>
</mgrwt>
</event>
<event>
 6    1  0.4259848E-002  0.1313747E+03  0.7546771E-02  0.1225430E+00
         21   -1    0    0  504  502  0.00000000000E+00  0.00000000000E+00  0.15490685677E+03  0.15490685677E+03  0.00000000000E+00 0.  1.
         21   -1    0    0  502  503 -0.00000000000E+00 -0.00000000000E+00 -0.13288625957E+03  0.13288625957E+03  0.00000000000E+00 0.  1.
         25    2    1    2    0    0 -0.35532053626E+02  0.19269692473E+02  0.12241424647E+03  0.17956773717E+03  0.12500190643E+03 0.  0.
          5    1    3    3  501    0 -0.60577711920E+02 -0.76493243876E+01  0.12852816418E+03  0.14229430886E+03  0.10000000000E+00 0. -1.
         -5    1    3    3    0  501  0.25045658294E+02  0.26919016860E+02 -0.61139177172E+01  0.37273428310E+02  0.10000000000E+00 0. -1.
         21    1    1    2  504  503  0.35532053626E+02 -0.19269692473E+02 -0.10039364927E+03  0.10822537917E+03  0.00000000000E+00 0.  1.
<mgrwt>
<rscale>  1 0.13137475E+03</rscale>
<asrwt>0</asrwt>
<pdfrwt beam="1">  1       21 0.23831824E-01 0.13137475E+03</pdfrwt>
<pdfrwt beam="2">  1       21 0.20444040E-01 0.13137475E+03</pdfrwt>
<totfact> 0.37153983E+05</totfact>
</mgrwt>
</event>
<event>
 6    1  0.4259848E-002  0.1273754E+03  0.7546771E-02  0.1231403E+00
         21   -1    0    0  504  502  0.00000000000E+00  0.00000000000E+00  0.14048002746E+04  0.14048002746E+04  0.00000000000E+00 0. -1.
         21   -1    0    0  502  503 -0.00000000000E+00 -0.00000000000E+00 -0.41771692387E+01  0.41771692387E+01  0.00000000000E+00 0. -1.
         25    2    1    2    0    0 -0.71663294589E+01  0.23391012591E+02  0.12360919223E+04  0.12426374128E+04  0.12500401356E+03 0.  0.
          5    1    3    3  501    0  0.98752905444E+01  0.38755137204E+02  0.11942304994E+04  0.11948999865E+04  0.10000000000E+00 0.  1.
         -5    1    3    3    0  501 -0.17041620003E+02 -0.15364124612E+02  0.41861422934E+02  0.47737426277E+02  0.10000000000E+00 0.  1.
         21    1    1    2  504  503  0.71663294589E+01 -0.23391012591E+02  0.16453118305E+03  0.16634003109E+03  0.00000000000E+00 0. -1.
<mgrwt>
<rscale>  1 0.12737543E+03</rscale>
<asrwt>0</asrwt>
<pdfrwt beam="1">  1       21 0.21612274E+00 0.12737543E+03</pdfrwt>
<pdfrwt beam="2">  1       21 0.64264254E-03 0.12737543E+03</pdfrwt>
<totfact> 0.82142022E+05</totfact>
</mgrwt>
</event>
<event>
 6    1  0.4259848E-002  0.1262809E+03  0.7546771E-02  0.1233081E+00
         21   -1    0    0  504  502  0.00000000000E+00  0.00000000000E+00  0.90212240175E+02  0.90212240175E+02  0.00000000000E+00 0.  1.
         21   -1    0    0  502  503 -0.00000000000E+00 -0.00000000000E+00 -0.65830668318E+02  0.65830668318E+02  0.00000000000E+00 0.  1.
         25    2    1    2    0    0  0.15087204737E+02  0.98676133917E+01  0.39712395034E+02  0.13237800452E+03  0.12498747225E+03 0.  0.
          5    1    3    3  501    0 -0.37410023040E+02 -0.39208915374E+02  0.20982684033E+02  0.58113095752E+02  0.10000000000E+00 0.  1.
         -5    1    3    3    0  501  0.52497227777E+02  0.49076528766E+02  0.18729711002E+02  0.74264908767E+02  0.10000000000E+00 0.  1.
         21    1    1    2  504  503 -0.15087204737E+02 -0.98676133917E+01 -0.15330823178E+02  0.23664903974E+02  0.00000000000E+00 0.  1.
<mgrwt>
<rscale>  1 0.12628088E+03</rscale>
<asrwt>0</asrwt>
<pdfrwt beam="1">  1       21 0.13878806E-01 0.12628088E+03</pdfrwt>
<pdfrwt beam="2">  1       21 0.10127795E-01 0.12628088E+03</pdfrwt>
<totfact> 0.35388069E+06</totfact>
</mgrwt>
</event>
<event>
 6    1  0.4259848E-002  0.1261163E+03  0.7546771E-02  0.1233335E+00
         21   -1    0    0  503  502  0.00000000000E+00  0.00000000000E+00  0.27838118999E+04  0.27838118999E+04  0.00000000000E+00 0.  1.
         21   -1    0    0  504  503 -0.00000000000E+00 -0.00000000000E+00 -0.22261482269E+01  0.22261482269E+01  0.00000000000E+00 0.  1.
         25    2    1    2    0    0 -0.15270749848E+02  0.69407812455E+01  0.26882700905E+04  0.26912267468E+04  0.12499581110E+03 0.  0.
          5    1    3    3  501    0 -0.50268064237E+02  0.46735294307E+02  0.18578175811E+04  0.18590850547E+04  0.10000000000E+00 0.  1.
         -5    1    3    3    0  501  0.34997314389E+02 -0.39794513061E+02  0.83045250942E+03  0.83214169208E+03  0.10000000000E+00 0.  1.
         21    1    1    2  504  502  0.15270749848E+02 -0.69407812455E+01  0.93315661105E+02  0.94811301292E+02  0.00000000000E+00 0.  1.
<mgrwt>
<rscale>  1 0.12611631E+03</rscale>
<asrwt>0</asrwt>
<pdfrwt beam="1">  1       21 0.42827597E+00 0.12611631E+03</pdfrwt>
<pdfrwt beam="2">  1       21 0.34248657E-03 0.12611631E+03</pdfrwt>
<totfact> 0.12588539E+05</totfact>
</mgrwt>
</event>
<event>
 6    1  0.4259848E-002  0.1815674E+03  0.7546771E-02  0.1166295E+00
         21   -1    0    0  504  502  0.00000000000E+00  0.00000000000E+00  0.10987886070E+03  0.10987886070E+03  0.00000000000E+00 0. -1.
         21   -1    0    0  502  503 -0.00000000000E+00 -0.00000000000E+00 -0.23051268140E+03  0.23051268140E+03  0.00000000000E+00 0. -1.
         25    2    1    2    0    0 -0.12288449549E+03  0.47338291977E+02 -0.39813698128E+02  0.18588133101E+03  0.12500090217E+03 0.  0.
          5    1    3    3  501    0  0.12693910346E-01  0.19714309489E+02  0.34423565970E+02  0.39669207880E+02  0.10000000000E+00 0. -1.
         -5    1    3    3    0  501 -0.12289718940E+03  0.27623982489E+02 -0.74237264098E+02  0.14621212313E+03  0.10000000000E+00 0. -1.
         21    1    1    2  504  503  0.12288449549E+03 -0.47338291977E+02 -0.80820122570E+02  0.15451021109E+03  0.00000000000E+00 0. -1.
<mgrwt>
<rscale>  1 0.18156745E+03</rscale>
<asrwt>0</asrwt>
<pdfrwt beam="1">  1       21 0.16904440E-01 0.18156745E+03</pdfrwt>
<pdfrwt beam="2">  1       21 0.35463489E-01 0.18156745E+03</pdfrwt>
<totfact> 0.24235175E+05</totfact>
</mgrwt>
</event>
<event>
 6    1  0.4259848E-002  0.1267857E+03  0.7546771E-02  0.1232305E+00
         21   -1    0    0  503  502  0.00000000000E+00  0.00000000000E+00  0.37490749187E+02  0.37490749187E+02  0.00000000000E+00 0. -1.
         21   -1    0    0  504  503 -0.00000000000E+00 -0.00000000000E+00 -0.14867123150E+03  0.14867123150E+03  0.00000000000E+00 0. -1.
         25    2    1    2    0    0 -0.64103014283E+01 -0.20417243307E+02 -0.86430921516E+02  0.15344353714E+03  0.12496663197E+03 0.  0.
          5    1    3    3  501    0 -0.60729768115E+02  0.61009420215E+01 -0.65364844769E+02  0.89430974280E+02  0.10000000000E+00 0.  1.
         -5    1    3    3    0  501  0.54319466687E+02 -0.26518185328E+02 -0.21066076747E+02  0.64012562859E+02  0.10000000000E+00 0.  1.
         21    1    1    2  504  502  0.64103014283E+01  0.20417243307E+02 -0.24749560797E+02  0.32718443549E+02  0.00000000000E+00 0. -1.
<mgrwt>
<rscale>  1 0.12678570E+03</rscale>
<asrwt>0</asrwt>
<pdfrwt beam="1">  1       21 0.57678076E-02 0.12678570E+03</pdfrwt>
<pdfrwt beam="2">  1       21 0.22872497E-01 0.12678570E+03</pdfrwt>
<totfact> 0.37361111E+06</totfact>
</mgrwt>
</event>
<event>
 6    1  0.4259848E-002  0.1267134E+03  0.7546771E-02  0.1232416E+00
         21   -1    0    0  504  502  0.00000000000E+00  0.00000000000E+00  0.33432038655E+02  0.33432038655E+02  0.00000000000E+00 0.  1.
         21   -1    0    0  502  503 -0.00000000000E+00 -0.00000000000E+00 -0.24418614690E+03  0.24418614690E+03  0.00000000000E+00 0.  1.
         25    2    1    2    0    0 -0.11826764934E+02 -0.17061820443E+02 -0.90816468149E+02  0.15589712905E+03  0.12500122348E+03 0.  0.
          5    1    3    3  501    0  0.44509000901E+02 -0.22252006060E+02 -0.85690118585E+02  0.99090914609E+02  0.10000000000E+00 0. -1.
         -5    1    3    3    0  501 -0.56335765835E+02  0.51901856175E+01 -0.51263495634E+01  0.56806214438E+02  0.10000000000E+00 0. -1.
         21    1    1    2  504  503  0.11826764934E+02  0.17061820443E+02 -0.11993764010E+03  0.12172105651E+03  0.00000000000E+00 0.  1.
<mgrwt>
<rscale>  1 0.12671339E+03</rscale>
<asrwt>0</asrwt>
<pdfrwt beam="1">  1       21 0.51433907E-02 0.12671339E+03</pdfrwt>
<pdfrwt beam="2">  1       21 0.37567099E-01 0.12671339E+03</pdfrwt>
<totfact> 0.17447852E+06</totfact>
</mgrwt>
</event>
<event>
 6    1  0.4259848E-002  0.1279026E+03  0.7546771E-02  0.1230601E+00
         21   -1    0    0  503  502  0.00000000000E+00  0.00000000000E+00  0.22500558571E+02  0.22500558571E+02  0.00000000000E+00 0. -1.
         21   -1    0    0  504  503 -0.00000000000E+00 -0.00000000000E+00 -0.26710825661E+03  0.26710825661E+03  0.00000000000E+00 0. -1.
         25    2    1    2    0    0  0.24953927397E+02 -0.10569545896E+02 -0.19909108834E+03  0.23663546763E+03  0.12499867714E+03 0.  0.
          5    1    3    3  501    0  0.43082178327E+01 -0.67344877966E+02 -0.10378364615E+03  0.12379397617E+03  0.10000000000E+00 0. -1.
         -5    1    3    3    0  501  0.20645709565E+02  0.56775332070E+02 -0.95307442198E+02  0.11284149145E+03  0.10000000000E+00 0. -1.
         21    1    1    2  504  502 -0.24953927397E+02  0.10569545896E+02 -0.45516609691E+02  0.52973347551E+02  0.00000000000E+00 0.  1.
<mgrwt>
<rscale>  1 0.12790263E+03</rscale>
<asrwt>0</asrwt>
<pdfrwt beam="1">  1       21 0.34616241E-02 0.12790263E+03</pdfrwt>
<pdfrwt beam="2">  1       21 0.41093581E-01 0.12790263E+03</pdfrwt>
<totfact> 0.28218708E+06</totfact>
</mgrwt>
</event>
<event>
 6    1  0.4259848E-002  0.1262778E+03  0.7546771E-02  0.1233086E+00
         21   -1    0    0  503  502  0.00000000000E+00  0.00000000000E+00  0.15093486657E+04  0.15093486657E+04  0.00000000000E+00 0. -1.
         21   -1    0    0  504  503 -0.00000000000E+00 -0.00000000000E+00 -0.39698871123E+01  0.39698871123E+01  0.00000000000E+00 0. -1.
         25    2    1    2    0    0  0.15125010214E+02 -0.96217315116E+01  0.14400163873E+04  0.14455425552E+04  0.12499895872E+03 0.  0.
          5    1    3    3  501    0  0.18669230550E+02  0.35741218070E+02  0.12296758354E+04  0.12303368014E+04  0.10000000000E+00 0. -1.
         -5    1    3    3    0  501 -0.35442203363E+01 -0.45362949581E+02  0.21034055190E+03  0.21520575379E+03  0.10000000000E+00 0. -1.
         21    1    1    2  504  502 -0.15125010214E+02  0.96217315116E+01  0.65362391270E+02  0.67775997549E+02  0.00000000000E+00 0. -1.
<mgrwt>
<rscale>  1 0.12627780E+03</rscale>
<asrwt>0</asrwt>
<pdfrwt beam="1">  1       21 0.23220703E+00 0.12627780E+03</pdfrwt>
<pdfrwt beam="2">  1       21 0.61075306E-03 0.12627780E+03</pdfrwt>
<totfact> 0.71356039E+05</totfact>
</mgrwt>
</event>
<event>
 6    1  0.4259848E-002  0.1276177E+03  0.7546771E-02  0.1231034E+00
         21   -1    0    0  503  502  0.00000000000E+00  0.00000000000E+00  0.86482095978E+01  0.86482095978E+01  0.00000000000E+00 0. -1.
         21   -1    0    0  504  503 -0.00000000000E+00 -0.00000000000E+00 -0.20407125859E+04  0.20407125859E+04  0.00000000000E+00 0. -1.
         25    2    1    2    0    0 -0.14774334484E+02 -0.21085307148E+02 -0.46809648139E+03  0.48518099526E+03  0.12499364440E+03 0.  0.
          5    1    3    3  501    0 -0.16394981698E+02  0.11341379181E+01  0.11987671119E+00  0.16434903837E+02  0.10000000000E+00 0. -1.
         -5    1    3    3    0  501  0.16206472147E+01 -0.22219445067E+02 -0.46821635810E+03  0.46874609143E+03  0.10000000000E+00 0. -1.
         21    1    1    2  504  502  0.14774334484E+02  0.21085307148E+02 -0.15639678949E+04  0.15641798002E+04  0.00000000000E+00 0. -1.
<mgrwt>
<rscale>  1 0.12761772E+03</rscale>
<asrwt>0</asrwt>
<pdfrwt beam="1">  1       21 0.13304928E-02 0.12761772E+03</pdfrwt>
<pdfrwt beam="2">  1       21 0.31395601E+00 0.12761772E+03</pdfrwt>
<totfact> 0.72126704E+04</totfact>
</mgrwt>
</event>
<event>
 6    1  0.4259848E-002  0.1342885E+03  0.7546771E-02  0.1221228E+00
         21   -1    0    0  504  502  0.00000000000E+00  0.00000000000E+00  0.73439367926E+02  0.73439367926E+02  0.00000000000E+00 0.  1.
         21   -1    0    0  502  503 -0.00000000000E+00 -0.00000000000E+00 -0.60683015018E+03  0.60683015018E+03  0.00000000000E+00 0.  1.
         25    2    1    2    0    0 -0.35116306148E+02  0.34281455572E+02  0.10006421231E+02  0.13466078109E+03  0.12500009738E+03 0.  0.
          5    1    3    3  501    0  0.26237346062E+01  0.77134247218E+02  0.64394973415E+01  0.77447099385E+02  0.10000000000E+00 0. -1.
         -5    1    3    3    0  501 -0.37740040754E+02 -0.42852791646E+02  0.35669238897E+01  0.57213681703E+02  0.10000000000E+00 0. -1.
         21    1    1    2  504  503  0.35116306148E+02 -0.34281455572E+02 -0.54339720349E+03  0.54560873702E+03  0.00000000000E+00 0.  1.
<mgrwt>
<rscale>  1 0.13428849E+03</rscale>
<asrwt>0</asrwt>
<pdfrwt beam="1">  1       21 0.11298364E-01 0.13428849E+03</pdfrwt>
<pdfrwt beam="2">  1       21 0.93358487E-01 0.13428849E+03</pdfrwt>
<totfact> 0.64845723E+04</totfact>
</mgrwt>
</event>
<event>
 6    1  0.4259848E-002  0.1345413E+03  0.7546771E-02  0.1220869E+00
         21   -1    0    0  504  502  0.00000000000E+00  0.00000000000E+00  0.23436618531E+02  0.23436618531E+02  0.00000000000E+00 0. -1.
         21   -1    0    0  502  503 -0.00000000000E+00 -0.00000000000E+00 -0.47783737264E+03  0.47783737264E+03  0.00000000000E+00 0. -1.
         25    2    1    2    0    0  0.47657215574E+02 -0.14318948871E+02 -0.41935751220E+03  0.44041126616E+03  0.12500047128E+03 0.  0.
          5    1    3    3  501    0  0.60017802335E+02 -0.90219593271E+01 -0.42230497762E+03  0.42664392234E+03  0.10000000000E+00 0. -1.
         -5    1    3    3    0  501 -0.12360586760E+02 -0.52969895438E+01  0.29474654176E+01  0.13767343813E+02  0.10000000000E+00 0. -1.
         21    1    1    2  504  503 -0.47657215574E+02  0.14318948871E+02 -0.35043241903E+02  0.60862725014E+02  0.00000000000E+00 0. -1.
<mgrwt>
<rscale>  1 0.13454130E+03</rscale>
<asrwt>0</asrwt>
<pdfrwt beam="1">  1       21 0.36056337E-02 0.13454130E+03</pdfrwt>
<pdfrwt beam="2">  1       21 0.73513441E-01 0.13454130E+03</pdfrwt>
<totfact> 0.77934875E+05</totfact>
</mgrwt>
</event>
<event>
 6    1  0.4259848E-002  0.1264204E+03  0.7546771E-02  0.1232866E+00
         21   -1    0    0  504  502  0.00000000000E+00  0.00000000000E+00  0.16255135717E+03  0.16255135717E+03  0.00000000000E+00 0. -1.
         21   -1    0    0  502  503 -0.00000000000E+00 -0.00000000000E+00 -0.35426726803E+02  0.35426726803E+02  0.00000000000E+00 0. -1.
         25    2    1    2    0    0  0.17641755112E+02 -0.67965087368E+01  0.12682254003E+03  0.17907000863E+03  0.12499874910E+03 0.  0.
          5    1    3    3  501    0 -0.17888250055E+02 -0.38521815761E+01  0.13990272746E+03  0.14109433704E+03  0.10000000000E+00 0. -1.
         -5    1    3    3    0  501  0.35530005167E+02 -0.29443271607E+01 -0.13080187433E+02  0.37975671593E+02  0.10000000000E+00 0. -1.
         21    1    1    2  504  503 -0.17641755112E+02  0.67965087368E+01  0.30209033480E+00  0.18908075339E+02  0.00000000000E+00 0.  1.
<mgrwt>
<rscale>  1 0.12642038E+03</rscale>
<asrwt>0</asrwt>
<pdfrwt beam="1">  1       21 0.25007901E-01 0.12642038E+03</pdfrwt>
<pdfrwt beam="2">  1       21 0.54502658E-02 0.12642038E+03</pdfrwt>
<totfact> 0.34754160E+06</totfact>
</mgrwt>
</event>
<event>
 6    1  0.4259848E-002  0.1279128E+03  0.7546771E-02  0.1230586E+00
         21   -1    0    0  503  502  0.00000000000E+00  0.00000000000E+00  0.54075324383E+03  0.54075324383E+03  0.00000000000E+00 0.  1.
         21   -1    0    0  504  503 -0.00000000000E+00 -0.00000000000E+00 -0.14830564072E+02  0.14830564072E+02  0.00000000000E+00 0.  1.
         25    2    1    2    0    0  0.21162975141E+02  0.17012036143E+02  0.50597004157E+03  0.52188827910E+03  0.12499764801E+03 0.  0.
          5    1    3    3  501    0 -0.48328830784E+02 -0.12307635184E+02  0.15202179530E+03  0.15999309365E+03  0.10000000000E+00 0.  1.
         -5    1    3    3    0  501  0.69491805924E+02  0.29319671327E+02  0.35394824627E+03  0.36189518545E+03  0.10000000000E+00 0.  1.
         21    1    1    2  504  502 -0.21162975141E+02 -0.17012036143E+02  0.19952638189E+02  0.33695528802E+02  0.00000000000E+00 0.  1.
<mgrwt>
<rscale>  1 0.12791283E+03</rscale>
<asrwt>0</asrwt>
<pdfrwt beam="1">  1       21 0.83192792E-01 0.12791283E+03</pdfrwt>
<pdfrwt beam="2">  1       21 0.22816257E-02 0.12791283E+03</pdfrwt>
<totfact> 0.12520286E+06</totfact>
</mgrwt>
</event>
<event>
 6    1  0.4259848E-002  0.1260637E+03  0.7546771E-02  0.1233416E+00
         21   -1    0    0  503  502  0.00000000000E+00  0.00000000000E+00  0.24654366319E+02  0.24654366319E+02  0.00000000000E+00 0. -1.
         21   -1    0    0  504  503 -0.00000000000E+00 -0.00000000000E+00 -0.23480412396E+03  0.23480412396E+03  0.00000000000E+00 0. -1.
         25    2    1    2    0    0  0.77899504686E+00  0.16294412188E+02 -0.14426411359E+03  0.19158336381E+03  0.12500374441E+03 0.  0.
          5    1    3    3  501    0 -0.55506402100E+02 -0.20077544799E+02 -0.65741528486E+02  0.88351723509E+02  0.10000000000E+00 0.  1.
         -5    1    3    3    0  501  0.56285397147E+02  0.36371956987E+02 -0.78522585107E+02  0.10323164030E+03  0.10000000000E+00 0.  1.
         21    1    1    2  504  502 -0.77899504686E+00 -0.16294412188E+02 -0.65885644051E+02  0.67875126474E+02  0.00000000000E+00 0. -1.
<mgrwt>
<rscale>  1 0.12606368E+03</rscale>
<asrwt>0</asrwt>
<pdfrwt beam="1">  1       21 0.37929791E-02 0.12606368E+03</pdfrwt>
<pdfrwt beam="2">  1       21 0.36123714E-01 0.12606368E+03</pdfrwt>
<totfact> 0.31331392E+06</totfact>
</mgrwt>
</event>
<event>
 6    1  0.4259848E-002  0.1408430E+03  0.7546771E-02  0.1212199E+00
         21   -1    0    0  504  502  0.00000000000E+00  0.00000000000E+00  0.13158123930E+03  0.13158123930E+03  0.00000000000E+00 0. -1.
         21   -1    0    0  502  503 -0.00000000000E+00 -0.00000000000E+00 -0.16894739559E+03  0.16894739559E+03  0.00000000000E+00 0. -1.
         25    2    1    2    0    0  0.25172103679E+02 -0.59811101692E+02  0.83219046109E+02  0.16359144590E+03  0.12500299535E+03 0.  0.
          5    1    3    3  501    0  0.24934269068E+02 -0.95328764251E+02  0.81766425449E+02  0.12804315444E+03  0.10000000000E+00 0. -1.
         -5    1    3    3    0  501  0.23783461105E+00  0.35517662559E+02  0.14526206597E+01  0.35548291461E+02  0.10000000000E+00 0. -1.
         21    1    1    2  504  503 -0.25172103679E+02  0.59811101692E+02 -0.12058520240E+03  0.13693718899E+03  0.00000000000E+00 0. -1.
<mgrwt>
<rscale>  1 0.14084300E+03</rscale>
<asrwt>0</asrwt>
<pdfrwt beam="1">  1       21 0.20243268E-01 0.14084300E+03</pdfrwt>
<pdfrwt beam="2">  1       21 0.25991907E-01 0.14084300E+03</pdfrwt>
<totfact> 0.32065400E+05</totfact>
</mgrwt>
</event>
<event>
 6    1  0.4259848E-002  0.1367569E+03  0.7546771E-02  0.1217761E+00
         21   -1    0    0  504  502  0.00000000000E+00  0.00000000000E+00  0.22800424602E+03  0.22800424602E+03  0.00000000000E+00 0. -1.
         21   -1    0    0  502  503 -0.00000000000E+00 -0.00000000000E+00 -0.45903692765E+02  0.45903692765E+02  0.00000000000E+00 0. -1.
         25    2    1    2    0    0  0.54096923340E+02  0.12268386394E+02  0.16809062633E+03  0.21669545350E+03  0.12500188194E+03 0.  0.
          5    1    3    3  501    0  0.75503300593E+02  0.34526590178E+02  0.55301859910E+02  0.99755398547E+02  0.10000000000E+00 0.  1.
         -5    1    3    3    0  501 -0.21406377253E+02 -0.22258203784E+02  0.11278876642E+03  0.11694005495E+03  0.10000000000E+00 0.  1.
         21    1    1    2  504  503 -0.54096923340E+02 -0.12268386394E+02  0.14009926923E+02  0.57212485280E+02  0.00000000000E+00 0. -1.
<mgrwt>
<rscale>  1 0.13675694E+03</rscale>
<asrwt>0</asrwt>
<pdfrwt beam="1">  1       21 0.35077576E-01 0.13675694E+03</pdfrwt>
<pdfrwt beam="2">  1       21 0.70621067E-02 0.13675694E+03</pdfrwt>
<totfact> 0.11678420E+06</totfact>
</mgrwt>
</event>
<event>
 6    1  0.4259848E-002  0.1297432E+03  0.7546771E-02  0.1227837E+00
         21   -1    0    0  503  502  0.00000000000E+00  0.00000000000E+00  0.25371910329E+02  0.25371910329E+02  0.00000000000E+00 0.  1.
         21   -1    0    0  504  503 -0.00000000000E+00 -0.00000000000E+00 -0.87184620681E+03  0.87184620681E+03  0.00000000000E+00 0.  1.
         25    2    1    2    0    0  0.33547112238E+02 -0.90995753317E+01 -0.14377991365E+03  0.19366456077E+03  0.12500035008E+03 0.  0.
          5    1    3    3  501    0 -0.58059830602E+01  0.48423102636E+02 -0.10027194080E+03  0.11150326641E+03  0.10000000000E+00 0. -1.
         -5    1    3    3    0  501  0.39353095298E+02 -0.57522677967E+02 -0.43507972845E+02  0.82161294361E+02  0.10000000000E+00 0. -1.
         21    1    1    2  504  502 -0.33547112238E+02  0.90995753317E+01 -0.70269438283E+03  0.70355355636E+03  0.00000000000E+00 0.  1.
<mgrwt>
<rscale>  1 0.12974320E+03</rscale>
<asrwt>0</asrwt>
<pdfrwt beam="1">  1       21 0.39033710E-02 0.12974320E+03</pdfrwt>
<pdfrwt beam="2">  1       21 0.13413018E+00 0.12974320E+03</pdfrwt>
<totfact> 0.16714362E+05</totfact>
</mgrwt>
</event>
<event>
 6    1  0.4259848E-002  0.1270682E+03  0.7546771E-02  0.1231872E+00
         21   -1    0    0  503  502  0.00000000000E+00  0.00000000000E+00  0.62219189368E+03  0.62219189368E+03  0.00000000000E+00 0.  1.
         21   -1    0    0  504  503 -0.00000000000E+00 -0.00000000000E+00 -0.18344571829E+02  0.18344571829E+02  0.00000000000E+00 0.  1.
         25    2    1    2    0    0 -0.19058754479E+02  0.12574613765E+02  0.60448325700E+03  0.61769436738E+03  0.12499986584E+03 0.  0.
          5    1    3    3  501    0 -0.70402705509E+02  0.47498485926E+01  0.42613620269E+03  0.43193885591E+03  0.10000000000E+00 0. -1.
         -5    1    3    3    0  501  0.51343951029E+02  0.78247651724E+01  0.17834705432E+03  0.18575551147E+03  0.10000000000E+00 0. -1.
         21    1    1    2  504  502  0.19058754479E+02 -0.12574613765E+02 -0.63593514971E+00  0.22842098134E+02  0.00000000000E+00 0.  1.
<mgrwt>
<rscale>  1 0.12706818E+03</rscale>
<asrwt>0</asrwt>
<pdfrwt beam="1">  1       21 0.95721814E-01 0.12706818E+03</pdfrwt>
<pdfrwt beam="2">  1       21 0.28222423E-02 0.12706818E+03</pdfrwt>
<totfact> 0.64302757E+05</totfact>
</mgrwt>
</event>
<event>
 6    1  0.4259848E-002  0.1389444E+03  0.7546771E-02  0.1214757E+00
         21   -1    0    0  503  502  0.00000000000E+00  0.00000000000E+00  0.91661011077E+02  0.91661011077E+02  0.00000000000E+00 0.  1.
         21   -1    0    0  504  503 -0.00000000000E+00 -0.00000000000E+00 -0.19953109654E+03  0.19953109654E+03  0.00000000000E+00 0. -1.
         25    2    1    2    0    0  0.59419490143E+02 -0.12179167537E+02  0.28593376587E+02  0.14185596194E+03  0.12500609914E+03 0.  0.
          5    1    3    3  501    0 -0.22946450902E+02 -0.44608147177E+02  0.14527733632E+02  0.52225390837E+02  0.10000000000E+00 0.  1.
         -5    1    3    3    0  501  0.82365941045E+02  0.32428979640E+02  0.14065642955E+02  0.89630571104E+02  0.10000000000E+00 0.  1.
         21    1    1    2  504  502 -0.59419490143E+02  0.12179167537E+02 -0.13646346205E+03  0.14933614567E+03  0.00000000000E+00 0. -1.
<mgrwt>
<rscale>  1 0.13894435E+03</rscale>
<asrwt>0</asrwt>
<pdfrwt beam="1">  1       21 0.14101694E-01 0.13894435E+03</pdfrwt>
<pdfrwt beam="2">  1       21 0.30697091E-01 0.13894435E+03</pdfrwt>
<totfact> 0.45078854E+05</totfact>
</mgrwt>
</event>
<event>
 6    1  0.4259848E-002  0.1262485E+03  0.7546771E-02  0.1233131E+00
         21   -1    0    0  504  502  0.00000000000E+00  0.00000000000E+00  0.14860624726E+03  0.14860624726E+03  0.00000000000E+00 0. -1.
         21   -1    0    0  502  503 -0.00000000000E+00 -0.00000000000E+00 -0.42688233372E+02  0.42688233372E+02  0.00000000000E+00 0. -1.
         25    2    1    2    0    0  0.14567811185E+02 -0.96570905363E+01  0.55456258957E+02  0.13789158529E+03  0.12503284415E+03 0.  0.
          5    1    3    3  501    0 -0.11398319301E+01 -0.40158291338E+02 -0.27120148374E+02  0.48471641481E+02  0.10000000000E+00 0. -1.
         -5    1    3    3    0  501  0.15707643115E+02  0.30501200802E+02  0.82576407332E+02  0.89419943807E+02  0.10000000000E+00 0. -1.
         21    1    1    2  504  503 -0.14567811185E+02  0.96570905363E+01  0.50461754928E+02  0.53402895340E+02  0.00000000000E+00 0. -1.
<mgrwt>
<rscale>  1 0.12624854E+03</rscale>
<asrwt>0</asrwt>
<pdfrwt beam="1">  1       21 0.22862499E-01 0.12624854E+03</pdfrwt>
<pdfrwt beam="2">  1       21 0.65674206E-02 0.12624854E+03</pdfrwt>
<totfact> 0.29991431E+06</totfact>
</mgrwt>
</event>
<event>
 6    1  0.4259848E-002  0.1276376E+03  0.7546771E-02  0.1231004E+00
         21   -1    0    0  504  502  0.00000000000E+00  0.00000000000E+00  0.14042792954E+02  0.14042792954E+02  0.00000000000E+00 0.  1.
         21   -1    0    0  502  503 -0.00000000000E+00 -0.00000000000E+00 -0.85042759778E+03  0.85042759778E+03  0.00000000000E+00 0.  1.
         25    2    1    2    0    0  0.25758801768E+02  0.17366941733E+01 -0.28263615261E+03  0.31012022901E+03  0.12499931881E+03 0.  0.
          5    1    3    3  501    0 -0.21564924864E+01  0.76140573692E+00 -0.28217462607E+03  0.28218391130E+03  0.10000000000E+00 0.  1.
         -5    1    3    3    0  501  0.27915294254E+02  0.97528843643E+00 -0.46152654817E+00  0.27936317717E+02  0.10000000000E+00 0.  1.
         21    1    1    2  504  503 -0.25758801768E+02 -0.17366941733E+01 -0.55374865221E+03  0.55435016172E+03  0.00000000000E+00 0.  1.
<mgrwt>
<rscale>  1 0.12763762E+03</rscale>
<asrwt>0</asrwt>
<pdfrwt beam="1">  1       21 0.21604295E-02 0.12763762E+03</pdfrwt>
<pdfrwt beam="2">  1       21 0.13083502E+00 0.12763762E+03</pdfrwt>
<totfact> 0.46896506E+05</totfact>
</mgrwt>
</event>
<event>
 6    1  0.4259848E-002  0.1280252E+03  0.7546771E-02  0.1230416E+00
         21   -1    0    0  504  502  0.00000000000E+00  0.00000000000E+00  0.17565180687E+03  0.17565180687E+03  0.00000000000E+00 0. -1.
         21   -1    0    0  502  503 -0.00000000000E+00 -0.00000000000E+00 -0.12211729758E+03  0.12211729758E+03  0.00000000000E+00 0.  1.
         25    2    1    2    0    0  0.86250554983E+00  0.27649303510E+02  0.15012136645E+03  0.19729896522E+03  0.12500091646E+03 0.  0.
          5    1    3    3  501    0 -0.58948094591E+01  0.22255717532E+02  0.17212472024E+03  0.17365769508E+03  0.10000000000E+00 0. -1.
         -5    1    3    3    0  501  0.67573150089E+01  0.53935859786E+01 -0.22003353797E+02  0.23641270146E+02  0.10000000000E+00 0. -1.
         21    1    1    2  504  503 -0.86250554983E+00 -0.27649303510E+02 -0.96586857157E+02  0.10047013922E+03  0.00000000000E+00 0.  1.
<mgrwt>
<rscale>  1 0.12802522E+03</rscale>
<asrwt>0</asrwt>
<pdfrwt beam="1">  1       21 0.27023355E-01 0.12802522E+03</pdfrwt>
<pdfrwt beam="2">  1       21 0.18787277E-01 0.12802522E+03</pdfrwt>
<totfact> 0.34246846E+05</totfact>
</mgrwt>
</event>
<event>
 6    1  0.4259848E-002  0.1288162E+03  0.7546771E-02  0.1229223E+00
         21   -1    0    0  504  502  0.00000000000E+00  0.00000000000E+00  0.28553564549E+02  0.28553564549E+02  0.00000000000E+00 0.  1.
         21   -1    0    0  502  503 -0.00000000000E+00 -0.00000000000E+00 -0.24830571778E+03  0.24830571778E+03  0.00000000000E+00 0.  1.
         25    2    1    2    0    0  0.27157602475E+02 -0.15206243231E+02 -0.13511580675E+03  0.18668125645E+03  0.12499938028E+03 0.  0.
          5    1    3    3  501    0  0.47223653989E+01  0.48337498835E+02 -0.98891083863E+02  0.11017382174E+03  0.10000000000E+00 0.  1.
         -5    1    3    3    0  501  0.22435237076E+02 -0.63543742066E+02 -0.36224722886E+02  0.76507434714E+02  0.10000000000E+00 0.  1.
         21    1    1    2  504  503 -0.27157602475E+02  0.15206243231E+02 -0.84636346480E+02  0.90178025876E+02  0.00000000000E+00 0.  1.
<mgrwt>
<rscale>  1 0.12881619E+03</rscale>
<asrwt>0</asrwt>
<pdfrwt beam="1">  1       21 0.43928561E-02 0.12881619E+03</pdfrwt>
<pdfrwt beam="2">  1       21 0.38200880E-01 0.12881619E+03</pdfrwt>
<totfact> 0.21991456E+06</totfact>
</mgrwt>
</event>
<event>
 6    1  0.4259848E-002  0.1261685E+03  0.7546771E-02  0.1233254E+00
         21   -1    0    0  503  502  0.00000000000E+00  0.00000000000E+00  0.54787799662E+02  0.54787799662E+02  0.00000000000E+00 0.  1.
         21   -1    0    0  504  503 -0.00000000000E+00 -0.00000000000E+00 -0.15292026056E+03  0.15292026056E+03  0.00000000000E+00 0.  1.
         25    2    1    2    0    0  0.12476173578E+02  0.11743890377E+02 -0.20030341844E+02  0.12774860256E+03  0.12499966798E+03 0.  0.
          5    1    3    3  501    0 -0.46459961120E+02 -0.23917532251E+02 -0.26444084294E+02  0.58565142623E+02  0.10000000000E+00 0.  1.
         -5    1    3    3    0  501  0.58936134698E+02  0.35661422628E+02  0.64137424501E+01  0.69183459940E+02  0.10000000000E+00 0.  1.
         21    1    1    2  504  502 -0.12476173578E+02 -0.11743890377E+02 -0.78102119059E+02  0.79959457664E+02  0.00000000000E+00 0.  1.
<mgrwt>
<rscale>  1 0.12616850E+03</rscale>
<asrwt>0</asrwt>
<pdfrwt beam="1">  1       21 0.84288923E-02 0.12616850E+03</pdfrwt>
<pdfrwt beam="2">  1       21 0.23526194E-01 0.12616850E+03</pdfrwt>
<totfact> 0.18524131E+06</totfact>
</mgrwt>
</event>
<event>
 6    1  0.4259848E-002  0.1287139E+03  0.7546771E-02  0.1229377E+00
         21   -1    0    0  503  502  0.00000000000E+00  0.00000000000E+00  0.45704646848E+03  0.45704646848E+03  0.00000000000E+00 0. -1.
         21   -1    0    0  504  503 -0.00000000000E+00 -0.00000000000E+00 -0.23355676615E+02  0.23355676615E+02  0.00000000000E+00 0. -1.
         25    2    1    2    0    0 -0.24215165328E+02  0.18901140150E+02  0.43071936003E+03  0.44954024726E+03  0.12499455778E+03 0.  0.
          5    1    3    3  501    0  0.40686874070E+00 -0.30929310544E+01  0.41114861867E+03  0.41116046551E+03  0.10000000000E+00 0. -1.
         -5    1    3    3    0  501 -0.24622034068E+02  0.21994071205E+02  0.19570741356E+02  0.38379781748E+02  0.10000000000E+00 0. -1.
         21    1    1    2  504  502  0.24215165328E+02 -0.18901140150E+02  0.29714318381E+01  0.30861897835E+02  0.00000000000E+00 0. -1.
<mgrwt>
<rscale>  1 0.12871390E+03</rscale>
<asrwt>0</asrwt>
<pdfrwt beam="1">  1       21 0.70314835E-01 0.12871390E+03</pdfrwt>
<pdfrwt beam="2">  1       21 0.35931814E-02 0.12871390E+03</pdfrwt>
<totfact> 0.86419835E+05</totfact>
</mgrwt>
</event>
<event>
 6    1  0.4259848E-002  0.1305828E+03  0.7546771E-02  0.1226594E+00
         21   -1    0    0  503  502  0.00000000000E+00  0.00000000000E+00  0.14140553297E+03  0.14140553297E+03  0.00000000000E+00 0. -1.
         21   -1    0    0  504  503 -0.00000000000E+00 -0.00000000000E+00 -0.59289390631E+02  0.59289390631E+02  0.00000000000E+00 0. -1.
         25    2    1    2    0    0  0.78354885332E+01  0.36939216495E+02  0.94237618933E+02  0.16103599282E+03  0.12500384621E+03 0.  0.
          5    1    3    3  501    0 -0.20981412790E+02  0.75010288584E+02  0.36226211481E+02  0.85901754780E+02  0.10000000000E+00 0.  1.
         -5    1    3    3    0  501  0.28816901323E+02 -0.38071072089E+02  0.58011407452E+02  0.75134238044E+02  0.10000000000E+00 0.  1.
         21    1    1    2  504  502 -0.78354885332E+01 -0.36939216495E+02 -0.12121476591E+02  0.39658930779E+02  0.00000000000E+00 0. -1.
<mgrwt>
<rscale>  1 0.13058278E+03</rscale>
<asrwt>0</asrwt>
<pdfrwt beam="1">  1       21 0.21754697E-01 0.13058278E+03</pdfrwt>
<pdfrwt beam="2">  1       21 0.91214447E-02 0.13058278E+03</pdfrwt>
<totfact> 0.18718568E+06</totfact>
</mgrwt>
</event>
<event>
 6    1  0.4259848E-002  0.1269545E+03  0.7546771E-02  0.1232046E+00
         21   -1    0    0  504  502  0.00000000000E+00  0.00000000000E+00  0.77433412868E+03  0.77433412868E+03  0.00000000000E+00 0.  1.
         21   -1    0    0  502  503 -0.00000000000E+00 -0.00000000000E+00 -0.90841686967E+01  0.90841686967E+01  0.00000000000E+00 0.  1.
         25    2    1    2    0    0  0.11363994709E+02 -0.19045851832E+02  0.73514119916E+03  0.74602281201E+03  0.12500227391E+03 0.  0.
          5    1    3    3  501    0  0.28479892166E+02  0.51793312172E+01  0.69749378905E+03  0.69809420962E+03  0.10000000000E+00 0. -1.
         -5    1    3    3    0  501 -0.17115897456E+02 -0.24225183050E+02  0.37647410109E+02  0.47928602394E+02  0.10000000000E+00 0. -1.
         21    1    1    2  504  503 -0.11363994709E+02  0.19045851832E+02  0.30108760824E+02  0.37395485371E+02  0.00000000000E+00 0.  1.
<mgrwt>
<rscale>  1 0.12695453E+03</rscale>
<asrwt>0</asrwt>
<pdfrwt beam="1">  1       21 0.11912828E+00 0.12695453E+03</pdfrwt>
<pdfrwt beam="2">  1       21 0.13975650E-02 0.12695453E+03</pdfrwt>
<totfact> 0.11888314E+06</totfact>
</mgrwt>
</event>
<event>
 6    1  0.4259848E-002  0.1350035E+03  0.7546771E-02  0.1220215E+00
         21   -1    0    0  504  502  0.00000000000E+00  0.00000000000E+00  0.23304857483E+02  0.23304857483E+02  0.00000000000E+00 0.  1.
         21   -1    0    0  502  503 -0.00000000000E+00 -0.00000000000E+00 -0.58729908225E+03  0.58729908225E+03  0.00000000000E+00 0.  1.
         25    2    1    2    0    0  0.50642742911E+02  0.60367345688E+01 -0.18960798923E+03  0.23275981455E+03  0.12499924846E+03 0.  0.
          5    1    3    3  501    0  0.84391059149E+02 -0.46392715502E+01 -0.75645532790E+02  0.11342676199E+03  0.10000000000E+00 0.  1.
         -5    1    3    3    0  501 -0.33748316238E+02  0.10676006119E+02 -0.11396245644E+03  0.11933305256E+03  0.10000000000E+00 0.  1.
         21    1    1    2  504  503 -0.50642742911E+02 -0.60367345688E+01 -0.37438623554E+03  0.37784412518E+03  0.00000000000E+00 0.  1.
<mgrwt>
<rscale>  1 0.13500349E+03</rscale>
<asrwt>0</asrwt>
<pdfrwt beam="1">  1       21 0.35853629E-02 0.13500349E+03</pdfrwt>
<pdfrwt beam="2">  1       21 0.90353699E-01 0.13500349E+03</pdfrwt>
<totfact> 0.49498997E+05</totfact>
</mgrwt>
</event>
<event>
 6    1  0.4259848E-002  0.1466664E+03  0.7546771E-02  0.1204630E+00
         21   -1    0    0  504  502  0.00000000000E+00  0.00000000000E+00  0.29182131247E+03  0.29182131247E+03  0.00000000000E+00 0. -1.
         21   -1    0    0  502  503 -0.00000000000E+00 -0.00000000000E+00 -0.59954329686E+02  0.59954329686E+02  0.00000000000E+00 0.  1.
         25    2    1    2    0    0  0.75148415682E+02  0.15485611282E+02  0.23267608819E+03  0.27504401121E+03  0.12499583013E+03 0.  0.
          5    1    3    3  501    0 -0.28548062650E+02  0.12934724691E+02  0.11007368115E+03  0.11444878447E+03  0.10000000000E+00 0.  1.
         -5    1    3    3    0  501  0.10369647833E+03  0.25508865909E+01  0.12260240704E+03  0.16059522675E+03  0.10000000000E+00 0.  1.
         21    1    1    2  504  503 -0.75148415682E+02 -0.15485611282E+02 -0.80910540445E+00  0.76731630948E+02  0.00000000000E+00 0.  1.
<mgrwt>
<rscale>  1 0.14666644E+03</rscale>
<asrwt>0</asrwt>
<pdfrwt beam="1">  1       21 0.44895586E-01 0.14666644E+03</pdfrwt>
<pdfrwt beam="2">  1       21 0.92237432E-02 0.14666644E+03</pdfrwt>
<totfact> 0.44887749E+05</totfact>
</mgrwt>
</event>
<event>
 6    1  0.4259848E-002  0.1285378E+03  0.7546771E-02  0.1229642E+00
         21   -1    0    0  503  502  0.00000000000E+00  0.00000000000E+00  0.83575037393E+02  0.83575037393E+02  0.00000000000E+00 0. -1.
         21   -1    0    0  504  503 -0.00000000000E+00 -0.00000000000E+00 -0.69613751704E+03  0.69613751704E+03  0.00000000000E+00 0. -1.
         25    2    1    2    0    0  0.10480700516E+02  0.28391390950E+02  0.33588002934E+02  0.13285371179E+03  0.12492413151E+03 0.  0.
          5    1    3    3  501    0 -0.16912179642E+01 -0.84856360412E+01 -0.44664536424E+02  0.45495022268E+02  0.10000000000E+00 0. -1.
         -5    1    3    3    0  501  0.12171918480E+02  0.36877026991E+02  0.78252539358E+02  0.87358689523E+02  0.10000000000E+00 0. -1.
         21    1    1    2  504  502 -0.10480700516E+02 -0.28391390950E+02 -0.64615048258E+03  0.64685884264E+03  0.00000000000E+00 0. -1.
<mgrwt>
<rscale>  1 0.12853776E+03</rscale>
<asrwt>0</asrwt>
<pdfrwt beam="1">  1       21 0.12857698E-01 0.12853776E+03</pdfrwt>
<pdfrwt beam="2">  1       21 0.10709808E+00 0.12853776E+03</pdfrwt>
<totfact> 0.37502227E+04</totfact>
</mgrwt>
</event>
<event>
 6    1  0.4259848E-002  0.1325626E+03  0.7546771E-02  0.1223702E+00
         21   -1    0    0  504  502  0.00000000000E+00  0.00000000000E+00  0.11045752425E+03  0.11045752425E+03  0.00000000000E+00 0. -1.
         21   -1    0    0  502  503 -0.00000000000E+00 -0.00000000000E+00 -0.85946779368E+02  0.85946779368E+02  0.00000000000E+00 0. -1.
         25    2    1    2    0    0 -0.12677147441E+02 -0.42267881598E+02  0.54203845831E+02  0.14321629627E+03  0.12500226691E+03 0.  0.
          5    1    3    3  501    0 -0.22329858994E+02  0.10704712085E+02 -0.32678737224E+02  0.41001503998E+02  0.10000000000E+00 0.  1.
         -5    1    3    3    0  501  0.96527115535E+01 -0.52972593683E+02  0.86882583055E+02  0.10221479228E+03  0.10000000000E+00 0.  1.
         21    1    1    2  504  503  0.12677147441E+02  0.42267881598E+02 -0.29693100944E+02  0.53188007348E+02  0.00000000000E+00 0. -1.
<mgrwt>
<rscale>  1 0.13256263E+03</rscale>
<asrwt>0</asrwt>
<pdfrwt beam="1">  1       21 0.16993465E-01 0.13256263E+03</pdfrwt>
<pdfrwt beam="2">  1       21 0.13222581E-01 0.13256263E+03</pdfrwt>
<totfact> 0.15347899E+06</totfact>
</mgrwt>
</event>
<event>
 6    1  0.4259848E-002  0.1265412E+03  0.7546771E-02  0.1232680E+00
         21   -1    0    0  504  502  0.00000000000E+00  0.00000000000E+00  0.42458907961E+02  0.42458907961E+02  0.00000000000E+00 0.  1.
         21   -1    0    0  502  503 -0.00000000000E+00 -0.00000000000E+00 -0.14907709313E+03  0.14907709313E+03  0.00000000000E+00 0.  1.
         25    2    1    2    0    0 -0.19776832012E+02  0.12799718530E+01 -0.58327685964E+02  0.13933701905E+03  0.12497969642E+03 0.  0.
          5    1    3    3  501    0 -0.12693721610E+02  0.41484344404E+02  0.22436585725E+02  0.48841496475E+02  0.10000000000E+00 0.  1.
         -5    1    3    3    0  501 -0.70831104020E+01 -0.40204372551E+02 -0.80764271689E+02  0.90495522578E+02  0.10000000000E+00 0.  1.
         21    1    1    2  504  503  0.19776832012E+02 -0.12799718530E+01 -0.48290499209E+02  0.52198982042E+02  0.00000000000E+00 0.  1.
<mgrwt>
<rscale>  1 0.12654124E+03</rscale>
<asrwt>0</asrwt>
<pdfrwt beam="1">  1       21 0.65321396E-02 0.12654124E+03</pdfrwt>
<pdfrwt beam="2">  1       21 0.22934938E-01 0.12654124E+03</pdfrwt>
<totfact> 0.30091850E+06</totfact>
</mgrwt>
</event>
<event>
 6    1  0.4259848E-002  0.1281950E+03  0.7546771E-02  0.1230159E+00
         21   -1    0    0  504  502  0.00000000000E+00  0.00000000000E+00  0.38507318502E+03  0.38507318502E+03  0.00000000000E+00 0.  1.
         21   -1    0    0  502  503 -0.00000000000E+00 -0.00000000000E+00 -0.29611133396E+02  0.29611133396E+02  0.00000000000E+00 0. -1.
         25    2    1    2    0    0 -0.24486708267E+02  0.14513887565E+02  0.36322191987E+03  0.38518063443E+03  0.12499482490E+03 0.  0.
          5    1    3    3  501    0 -0.22446421918E+02 -0.43690735695E+02  0.65810279797E+02  0.82120187344E+02  0.10000000000E+00 0.  1.
         -5    1    3    3    0  501 -0.20402863495E+01  0.58204623260E+02  0.29741164007E+03  0.30306044708E+03  0.10000000000E+00 0.  1.
         21    1    1    2  504  503  0.24486708267E+02 -0.14513887565E+02 -0.77598682395E+01  0.29503683992E+02  0.00000000000E+00 0. -1.
<mgrwt>
<rscale>  1 0.12819500E+03</rscale>
<asrwt>0</asrwt>
<pdfrwt beam="1">  1       21 0.59242025E-01 0.12819500E+03</pdfrwt>
<pdfrwt beam="2">  1       21 0.45555593E-02 0.12819500E+03</pdfrwt>
<totfact> 0.84200532E+05</totfact>
</mgrwt>
</event>
<event>
 6    1  0.4259848E-002  0.1350428E+03  0.7546771E-02  0.1220159E+00
         21   -1    0    0  504  502  0.00000000000E+00  0.00000000000E+00  0.43391023899E+03  0.43391023899E+03  0.00000000000E+00 0.  1.
         21   -1    0    0  502  503 -0.00000000000E+00 -0.00000000000E+00 -0.47036692642E+02  0.47036692642E+02  0.00000000000E+00 0.  1.
         25    2    1    2    0    0 -0.30390338004E+02 -0.40990973978E+02  0.40490196276E+03  0.42682802191E+03  0.12503090917E+03 0.  0.
          5    1    3    3  501    0  0.15396418325E+02  0.12650413420E+02  0.47192601501E+01  0.20478380632E+02  0.10000000000E+00 0.  1.
         -5    1    3    3    0  501 -0.45786756329E+02 -0.53641387398E+02  0.40018270261E+03  0.40634964128E+03  0.10000000000E+00 0.  1.
         21    1    1    2  504  503  0.30390338004E+02  0.40990973978E+02 -0.18028416410E+02  0.54118909726E+02  0.00000000000E+00 0.  1.
<mgrwt>
<rscale>  1 0.13504281E+03</rscale>
<asrwt>0</asrwt>
<pdfrwt beam="1">  1       21 0.66755419E-01 0.13504281E+03</pdfrwt>
<pdfrwt beam="2">  1       21 0.72364146E-02 0.13504281E+03</pdfrwt>
<totfact> 0.29764603E+05</totfact>
</mgrwt>
</event>
<event>
 6    1  0.4259848E-002  0.1259449E+03  0.7546771E-02  0.1233600E+00
         21   -1    0    0  504  502  0.00000000000E+00  0.00000000000E+00  0.93139071564E+01  0.93139071564E+01  0.00000000000E+00 0. -1.
         21   -1    0    0  502  503 -0.00000000000E+00 -0.00000000000E+00 -0.12830582393E+04  0.12830582393E+04  0.00000000000E+00 0. -1.
         25    2    1    2    0    0  0.12967648571E+02 -0.79811148902E+01 -0.41964334585E+03  0.43813543869E+03  0.12502106549E+03 0.  0.
          5    1    3    3  501    0 -0.16151931070E+02  0.54581618497E+02 -0.18622827881E+03  0.19473320154E+03  0.10000000000E+00 0. -1.
         -5    1    3    3    0  501  0.29119579641E+02 -0.62562733387E+02 -0.23341506704E+03  0.24340223715E+03  0.10000000000E+00 0. -1.
         21    1    1    2  504  503 -0.12967648571E+02  0.79811148902E+01 -0.85410098630E+03  0.85423670777E+03  0.00000000000E+00 0. -1.
<mgrwt>
<rscale>  1 0.12594493E+03</rscale>
<asrwt>0</asrwt>
<pdfrwt beam="1">  1       21 0.14329097E-02 0.12594493E+03</pdfrwt>
<pdfrwt beam="2">  1       21 0.19739346E+00 0.12594493E+03</pdfrwt>
<totfact> 0.30377350E+05</totfact>
</mgrwt>
</event>
<event>
 6    1  0.4259848E-002  0.1289052E+03  0.7546771E-02  0.1229089E+00
         21   -1    0    0  504  502  0.00000000000E+00  0.00000000000E+00  0.11457046119E+04  0.11457046119E+04  0.00000000000E+00 0.  1.
         21   -1    0    0  502  503 -0.00000000000E+00 -0.00000000000E+00 -0.81781201132E+01  0.81781201132E+01  0.00000000000E+00 0.  1.
         25    2    1    2    0    0  0.27789351026E+02  0.14727400630E+02  0.10852199366E+04  0.10928489702E+04  0.12500966605E+03 0.  0.
          5    1    3    3  501    0  0.75747068695E+01 -0.53127372354E+02  0.33206428716E+03  0.33637270205E+03  0.10000000000E+00 0.  1.
         -5    1    3    3    0  501  0.20214644156E+02  0.67854772985E+02  0.75315564944E+03  0.75647626819E+03  0.10000000000E+00 0.  1.
         21    1    1    2  504  503 -0.27789351026E+02 -0.14727400630E+02  0.52306555153E+02  0.61033761737E+02  0.00000000000E+00 0. -1.
<mgrwt>
<rscale>  1 0.12890524E+03</rscale>
<asrwt>0</asrwt>
<pdfrwt beam="1">  1       21 0.17626212E+00 0.12890524E+03</pdfrwt>
<pdfrwt beam="2">  1       21 0.12581732E-02 0.12890524E+03</pdfrwt>
<totfact> 0.51264636E+05</totfact>
</mgrwt>
</event>
<event>
 6    1  0.4259848E-002  0.1263879E+03  0.7546771E-02  0.1232916E+00
         21   -1    0    0  503  502  0.00000000000E+00  0.00000000000E+00  0.59073504334E+02  0.59073504334E+02  0.00000000000E+00 0.  1.
         21   -1    0    0  504  503 -0.00000000000E+00 -0.00000000000E+00 -0.91719377826E+02  0.91719377826E+02  0.00000000000E+00 0.  1.
         25    2    1    2    0    0  0.93448464961E+01  0.16179497571E+02 -0.19349672642E+02  0.12786056316E+03  0.12499924593E+03 0.  0.
          5    1    3    3  501    0  0.12249745074E+02  0.24828082614E+02 -0.70584333384E+02  0.75819839488E+02  0.10000000000E+00 0. -1.
         -5    1    3    3    0  501 -0.29048985784E+01 -0.86485850425E+01  0.51234660742E+02  0.52040723672E+02  0.10000000000E+00 0. -1.
         21    1    1    2  504  502 -0.93448464961E+01 -0.16179497571E+02 -0.13296200851E+02  0.22932319001E+02  0.00000000000E+00 0.  1.
<mgrwt>
<rscale>  1 0.12638795E+03</rscale>
<asrwt>0</asrwt>
<pdfrwt beam="1">  1       21 0.90882315E-02 0.12638795E+03</pdfrwt>
<pdfrwt beam="2">  1       21 0.14110673E-01 0.12638795E+03</pdfrwt>
<totfact> 0.41494951E+06</totfact>
</mgrwt>
</event>
<event>
 6    1  0.4259848E-002  0.1517036E+03  0.7546771E-02  0.1198395E+00
         21   -1    0    0  503  502  0.00000000000E+00  0.00000000000E+00  0.62224661418E+03  0.62224661418E+03  0.00000000000E+00 0.  1.
         21   -1    0    0  504  503 -0.00000000000E+00 -0.00000000000E+00 -0.39592033379E+02  0.39592033379E+02  0.00000000000E+00 0.  1.
         25    2    1    2    0    0 -0.84678507496E+02  0.15019327823E+02  0.54885558014E+03  0.56943517205E+03  0.12497174671E+03 0.  0.
          5    1    3    3  501    0 -0.51174959207E+02  0.51168383387E+02  0.13979316511E+03  0.15741416366E+03  0.10000000000E+00 0.  1.
         -5    1    3    3    0  501 -0.33503548288E+02 -0.36149055564E+02  0.40906241503E+03  0.41202100839E+03  0.10000000000E+00 0.  1.
         21    1    1    2  504  502  0.84678507496E+02 -0.15019327823E+02  0.33799000654E+02  0.92403475504E+02  0.00000000000E+00 0.  1.
<mgrwt>
<rscale>  1 0.15170355E+03</rscale>
<asrwt>0</asrwt>
<pdfrwt beam="1">  1       21 0.95730241E-01 0.15170355E+03</pdfrwt>
<pdfrwt beam="2">  1       21 0.60910825E-02 0.15170355E+03</pdfrwt>
<totfact> 0.17728662E+05</totfact>
</mgrwt>
</event>
<event>
 6    1  0.4259848E-002  0.1292417E+03  0.7546771E-02  0.1228585E+00
         21   -1    0    0  504  502  0.00000000000E+00  0.00000000000E+00  0.43647729980E+02  0.43647729980E+02  0.00000000000E+00 0.  1.
         21   -1    0    0  502  503 -0.00000000000E+00 -0.00000000000E+00 -0.26985184590E+03  0.26985184590E+03  0.00000000000E+00 0.  1.
         25    2    1    2    0    0  0.12718376368E+02 -0.30285577363E+02 -0.57201692338E+02  0.14133456065E+03  0.12499780451E+03 0.  0.
          5    1    3    3  501    0  0.20277754673E+02 -0.65376687098E+02 -0.74769857391E+02  0.10136981861E+03  0.10000000000E+00 0.  1.
         -5    1    3    3    0  501 -0.75593783047E+01  0.35091109735E+02  0.17568165053E+02  0.39964742038E+02  0.10000000000E+00 0.  1.
         21    1    1    2  504  503 -0.12718376368E+02  0.30285577363E+02 -0.16900242358E+03  0.17216501523E+03  0.00000000000E+00 0.  1.
<mgrwt>
<rscale>  1 0.12924173E+03</rscale>
<asrwt>0</asrwt>
<pdfrwt beam="1">  1       21 0.67150354E-02 0.12924173E+03</pdfrwt>
<pdfrwt beam="2">  1       21 0.41515669E-01 0.12924173E+03</pdfrwt>
<totfact> 0.91023748E+05</totfact>
</mgrwt>
</event>
<event>
 6    1  0.4259848E-002  0.1260686E+03  0.7546771E-02  0.1233409E+00
         21   -1    0    0  504  502  0.00000000000E+00  0.00000000000E+00  0.45975214846E+02  0.45975214846E+02  0.00000000000E+00 0.  1.
         21   -1    0    0  502  503 -0.00000000000E+00 -0.00000000000E+00 -0.11039889562E+03  0.11039889562E+03  0.00000000000E+00 0.  1.
         25    2    1    2    0    0 -0.93459616363E+01  0.13467501246E+02 -0.57944191498E+02  0.13874730219E+03  0.12499825578E+03 0.  0.
          5    1    3    3  501    0 -0.30891533096E+02  0.51342616039E+02 -0.71335168907E+02  0.93161512234E+02  0.10000000000E+00 0.  1.
         -5    1    3    3    0  501  0.21545571460E+02 -0.37875114793E+02  0.13390977409E+02  0.45585789958E+02  0.10000000000E+00 0.  1.
         21    1    1    2  504  503  0.93459616363E+01 -0.13467501246E+02 -0.64794892802E+01  0.17626808278E+02  0.00000000000E+00 0.  1.
<mgrwt>
<rscale>  1 0.12606857E+03</rscale>
<asrwt>0</asrwt>
<pdfrwt beam="1">  1       21 0.70731099E-02 0.12606857E+03</pdfrwt>
<pdfrwt beam="2">  1       21 0.16984446E-01 0.12606857E+03</pdfrwt>
<totfact> 0.45725526E+06</totfact>
</mgrwt>
</event>
<event>
 6    1  0.4259848E-002  0.1432694E+03  0.7546771E-02  0.1208996E+00
         21   -1    0    0  504  502  0.00000000000E+00  0.00000000000E+00  0.10531023163E+03  0.10531023163E+03  0.00000000000E+00 0. -1.
         21   -1    0    0  502  503 -0.00000000000E+00 -0.00000000000E+00 -0.11291389817E+03  0.11291389817E+03  0.00000000000E+00 0. -1.
         25    2    1    2    0    0 -0.85379770449E+01  0.69487223717E+02 -0.26521198787E+02  0.14570348214E+03  0.12499903763E+03 0.  0.
          5    1    3    3  501    0 -0.16886156557E+02  0.10432753742E+03 -0.29579057780E+02  0.10974656261E+03  0.10000000000E+00 0. -1.
         -5    1    3    3    0  501  0.83481795122E+01 -0.34840313699E+02  0.30578589928E+01  0.35956919521E+02  0.10000000000E+00 0. -1.
         21    1    1    2  504  503  0.85379770449E+01 -0.69487223717E+02  0.18917532245E+02  0.72520647668E+02  0.00000000000E+00 0. -1.
<mgrwt>
<rscale>  1 0.14326943E+03</rscale>
<asrwt>0</asrwt>
<pdfrwt beam="1">  1       21 0.16201574E-01 0.14326943E+03</pdfrwt>
<pdfrwt beam="2">  1       21 0.17371369E-01 0.14326943E+03</pdfrwt>
<totfact> 0.10231482E+06</totfact>
</mgrwt>
</event>
<event>
 6    1  0.4259848E-002  0.1896266E+03  0.7546771E-02  0.1158799E+00
         21   -1    0    0  503  502  0.00000000000E+00  0.00000000000E+00  0.33595009585E+02  0.33595009585E+02  0.00000000000E+00 0. -1.
         21   -1    0    0  504  503 -0.00000000000E+00 -0.00000000000E+00 -0.82351110467E+03  0.82351110467E+03  0.00000000000E+00 0.  1.
         25    2    1    2    0    0 -0.11881723209E+03 -0.78840235234E+02 -0.47252734492E+03  0.50915649712E+03  0.12499971812E+03 0.  0.
          5    1    3    3  501    0 -0.96999877879E+02 -0.11175258904E+03 -0.33846475975E+03  0.36939954122E+03  0.10000000000E+00 0.  1.
         -5    1    3    3    0  501 -0.21817354208E+02  0.32912353808E+02 -0.13406258518E+03  0.13975695590E+03  0.10000000000E+00 0.  1.
         21    1    1    2  504  502  0.11881723209E+03  0.78840235234E+02 -0.31738875016E+03  0.34794961713E+03  0.00000000000E+00 0. -1.
<mgrwt>
<rscale>  1 0.18962660E+03</rscale>
<asrwt>0</asrwt>
<pdfrwt beam="1">  1       21 0.51684635E-02 0.18962660E+03</pdfrwt>
<pdfrwt beam="2">  1       21 0.12669400E+00 0.18962660E+03</pdfrwt>
<totfact> 0.11742595E+05</totfact>
</mgrwt>
</event>
<event>
 6    1  0.4259848E-002  0.1785014E+03  0.7546771E-02  0.1169261E+00
         21   -1    0    0  503  502  0.00000000000E+00  0.00000000000E+00  0.15022596105E+03  0.15022596105E+03  0.00000000000E+00 0.  1.
         21   -1    0    0  504  503 -0.00000000000E+00 -0.00000000000E+00 -0.17110777057E+03  0.17110777057E+03  0.00000000000E+00 0.  1.
         25    2    1    2    0    0 -0.11649547197E+03 -0.51625136279E+02  0.35496402826E+02  0.18199654163E+03  0.12500558735E+03 0.  0.
          5    1    3    3  501    0 -0.10040791516E+03 -0.22012300032E+02 -0.31069897596E+02  0.10738547070E+03  0.10000000000E+00 0.  1.
         -5    1    3    3    0  501 -0.16087556805E+02 -0.29612836246E+02  0.66566300422E+02  0.74611070937E+02  0.10000000000E+00 0.  1.
         21    1    1    2  504  502  0.11649547197E+03  0.51625136279E+02 -0.56378212344E+02  0.13933718998E+03  0.00000000000E+00 0.  1.
<mgrwt>
<rscale>  1 0.17850139E+03</rscale>
<asrwt>0</asrwt>
<pdfrwt beam="1">  1       21 0.23111687E-01 0.17850139E+03</pdfrwt>
<pdfrwt beam="2">  1       21 0.26324272E-01 0.17850139E+03</pdfrwt>
<totfact> 0.24219373E+05</totfact>
</mgrwt>
</event>
<event>
 6    1  0.4259848E-002  0.2190088E+03  0.7546771E-02  0.1134624E+00
         21   -1    0    0  504  502  0.00000000000E+00  0.00000000000E+00  0.88279142283E+03  0.88279142283E+03  0.00000000000E+00 0.  1.
         21   -1    0    0  502  503 -0.00000000000E+00 -0.00000000000E+00 -0.39549268320E+03  0.39549268320E+03  0.00000000000E+00 0.  1.
         25    2    1    2    0    0 -0.28020059212E+01 -0.17980874815E+03  0.84768626295E+03  0.87552089505E+03  0.12500320051E+03 0.  0.
          5    1    3    3  501    0 -0.11954873167E+02 -0.31964732995E+02  0.32982875496E+02  0.47460965265E+02  0.10000000000E+00 0.  1.
         -5    1    3    3    0  501  0.91528672460E+01 -0.14784401516E+03  0.81470338745E+03  0.82805992979E+03  0.10000000000E+00 0.  1.
         21    1    1    2  504  503  0.28020059212E+01  0.17980874815E+03 -0.36038752332E+03  0.40276321097E+03  0.00000000000E+00 0.  1.
<mgrwt>
<rscale>  1 0.21900876E+03</rscale>
<asrwt>0</asrwt>
<pdfrwt beam="1">  1       21 0.13581406E+00 0.21900876E+03</pdfrwt>
<pdfrwt beam="2">  1       21 0.60845028E-01 0.21900876E+03</pdfrwt>
<totfact> 0.94760057E+02</totfact>
</mgrwt>
</event>
<event>
 6    1  0.4259848E-002  0.1263933E+03  0.7546771E-02  0.1232908E+00
         21   -1    0    0  503  502  0.00000000000E+00  0.00000000000E+00  0.48312932868E+02  0.48312932868E+02  0.00000000000E+00 0. -1.
         21   -1    0    0  504  503 -0.00000000000E+00 -0.00000000000E+00 -0.18579506410E+03  0.18579506410E+03  0.00000000000E+00 0. -1.
         25    2    1    2    0    0  0.13694032313E+02  0.12711039798E+02 -0.36707244777E+02  0.13161568119E+03  0.12500467456E+03 0.  0.
          5    1    3    3  501    0 -0.92970075934E+01  0.54647863208E+02 -0.57137910232E+02  0.79608881974E+02  0.10000000000E+00 0. -1.
         -5    1    3    3    0  501  0.22991039907E+02 -0.41936823410E+02  0.20430665455E+02  0.52006799216E+02  0.10000000000E+00 0. -1.
         21    1    1    2  504  502 -0.13694032313E+02 -0.12711039798E+02 -0.10077488646E+03  0.10249231578E+03  0.00000000000E+00 0. -1.
<mgrwt>
<rscale>  1 0.12639330E+03</rscale>
<asrwt>0</asrwt>
<pdfrwt beam="1">  1       21 0.74327589E-02 0.12639330E+03</pdfrwt>
<pdfrwt beam="2">  1       21 0.28583856E-01 0.12639330E+03</pdfrwt>
<totfact> 0.15901537E+06</totfact>
</mgrwt>
</event>
<event>
 6    1  0.4259848E-002  0.1260385E+03  0.7546771E-02  0.1233455E+00
         21   -1    0    0  503  502  0.00000000000E+00  0.00000000000E+00  0.41118899509E+02  0.41118899509E+02  0.00000000000E+00 0.  1.
         21   -1    0    0  504  503 -0.00000000000E+00 -0.00000000000E+00 -0.12601431834E+03  0.12601431834E+03  0.00000000000E+00 0.  1.
         25    2    1    2    0    0  0.13600946554E+02 -0.86861417771E+01 -0.65963223716E+02  0.14225626430E+03  0.12500105217E+03 0.  0.
          5    1    3    3  501    0  0.56768592695E+02 -0.10559284034E+02  0.62745430958E+01  0.58082282040E+02  0.10000000000E+00 0. -1.
         -5    1    3    3    0  501 -0.43167646141E+02  0.18731422573E+01 -0.72237766812E+02  0.84173982258E+02  0.10000000000E+00 0. -1.
         21    1    1    2  504  502 -0.13600946554E+02  0.86861417771E+01 -0.18932195117E+02  0.24876953553E+02  0.00000000000E+00 0. -1.
<mgrwt>
<rscale>  1 0.12603848E+03</rscale>
<asrwt>0</asrwt>
<pdfrwt beam="1">  1       21 0.63259846E-02 0.12603848E+03</pdfrwt>
<pdfrwt beam="2">  1       21 0.19386818E-01 0.12603848E+03</pdfrwt>
<totfact> 0.43414591E+06</totfact>
</mgrwt>
</event>
<event>
 6    1  0.4259848E-002  0.1271210E+03  0.7546771E-02  0.1231791E+00
         21   -1    0    0  504  502  0.00000000000E+00  0.00000000000E+00  0.51528460254E+02  0.51528460254E+02  0.00000000000E+00 0. -1.
         21   -1    0    0  502  503 -0.00000000000E+00 -0.00000000000E+00 -0.78584079037E+03  0.78584079037E+03  0.00000000000E+00 0. -1.
         25    2    1    2    0    0  0.66131243548E+01 -0.21924473383E+02 -0.27342133395E+02  0.13002826143E+03  0.12504135542E+03 0.  0.
          5    1    3    3  501    0  0.50651860176E+02 -0.51246574523E+02 -0.38996345557E+01  0.72159819078E+02  0.10000000000E+00 0. -1.
         -5    1    3    3    0  501 -0.44038735821E+02  0.29322101141E+02 -0.23442498839E+02  0.57868442349E+02  0.10000000000E+00 0. -1.
         21    1    1    2  504  503 -0.66131243548E+01  0.21924473383E+02 -0.70697019672E+03  0.70734098920E+03  0.00000000000E+00 0. -1.
<mgrwt>
<rscale>  1 0.12712103E+03</rscale>
<asrwt>0</asrwt>
<pdfrwt beam="1">  1       21 0.79274557E-02 0.12712103E+03</pdfrwt>
<pdfrwt beam="2">  1       21 0.12089858E+00 0.12712103E+03</pdfrwt>
<totfact> 0.65385484E+04</totfact>
</mgrwt>
</event>
<event>
 6    1  0.4259848E-002  0.1297765E+03  0.7546771E-02  0.1227788E+00
         21   -1    0    0  503  502  0.00000000000E+00  0.00000000000E+00  0.44488984773E+02  0.44488984773E+02  0.00000000000E+00 0. -1.
         21   -1    0    0  504  503 -0.00000000000E+00 -0.00000000000E+00 -0.16145856461E+03  0.16145856461E+03  0.00000000000E+00 0. -1.
         25    2    1    2    0    0 -0.24314027932E+02  0.25028219189E+02 -0.70050515064E+02  0.14747548469E+03  0.12499744083E+03 0.  0.
          5    1    3    3  501    0 -0.44259668448E+02  0.34097934034E+01  0.22922878850E+02  0.49960117263E+02  0.10000000000E+00 0. -1.
         -5    1    3    3    0  501  0.19945640516E+02  0.21618425785E+02 -0.92973393914E+02  0.97515367429E+02  0.10000000000E+00 0. -1.
         21    1    1    2  504  502  0.24314027932E+02 -0.25028219189E+02 -0.46919064773E+02  0.58472064691E+02  0.00000000000E+00 0. -1.
<mgrwt>
<rscale>  1 0.12977652E+03</rscale>
<asrwt>0</asrwt>
<pdfrwt beam="1">  1       21 0.68444592E-02 0.12977652E+03</pdfrwt>
<pdfrwt beam="2">  1       21 0.24839779E-01 0.12977652E+03</pdfrwt>
<totfact> 0.23937254E+06</totfact>
</mgrwt>
</event>
<event>
 6    1  0.4259848E-002  0.1304188E+03  0.7546771E-02  0.1226836E+00
         21   -1    0    0  504  502  0.00000000000E+00  0.00000000000E+00  0.14819209396E+03  0.14819209396E+03  0.00000000000E+00 0. -1.
         21   -1    0    0  502  503 -0.00000000000E+00 -0.00000000000E+00 -0.51961063094E+02  0.51961063094E+02  0.00000000000E+00 0. -1.
         25    2    1    2    0    0  0.12504763555E+02 -0.34892057075E+02  0.97861836646E+02  0.16305215590E+03  0.12504096015E+03 0.  0.
          5    1    3    3  501    0  0.59254819207E+02 -0.17254306196E+02  0.10775605016E+02  0.62649567796E+02  0.10000000000E+00 0.  1.
         -5    1    3    3    0  501 -0.46750055651E+02 -0.17637750879E+02  0.87086231630E+02  0.10040258811E+03  0.10000000000E+00 0.  1.
         21    1    1    2  504  503 -0.12504763555E+02  0.34892057075E+02 -0.16308057832E+01  0.37101001146E+02  0.00000000000E+00 0. -1.
<mgrwt>
<rscale>  1 0.13041881E+03</rscale>
<asrwt>0</asrwt>
<pdfrwt beam="1">  1       21 0.22798783E-01 0.13041881E+03</pdfrwt>
<pdfrwt beam="2">  1       21 0.79940098E-02 0.13041881E+03</pdfrwt>
<totfact> 0.21549395E+06</totfact>
</mgrwt>
</event>
<event>
 6    1  0.4259848E-002  0.1352134E+03  0.7546771E-02  0.1219919E+00
         21   -1    0    0  504  502  0.00000000000E+00  0.00000000000E+00  0.18032570957E+03  0.18032570957E+03  0.00000000000E+00 0.  1.
         21   -1    0    0  502  503 -0.00000000000E+00 -0.00000000000E+00 -0.13554469748E+03  0.13554469748E+03  0.00000000000E+00 0.  1.
         25    2    1    2    0    0  0.17519770242E+02  0.48484072897E+02  0.14801683788E+03  0.20047853819E+03  0.12500004922E+03 0.  0.
          5    1    3    3  501    0 -0.52727495898E+02  0.71096990669E+01  0.50290067747E+02  0.73210911471E+02  0.10000000000E+00 0. -1.
         -5    1    3    3    0  501  0.70247266140E+02  0.41374373830E+02  0.97726770129E+02  0.12726762672E+03  0.10000000000E+00 0. -1.
         21    1    1    2  504  503 -0.17519770242E+02 -0.48484072897E+02 -0.10323582578E+03  0.11539186886E+03  0.00000000000E+00 0.  1.
<mgrwt>
<rscale>  1 0.13521339E+03</rscale>
<asrwt>0</asrwt>
<pdfrwt beam="1">  1       21 0.27742417E-01 0.13521339E+03</pdfrwt>
<pdfrwt beam="2">  1       21 0.20853030E-01 0.13521339E+03</pdfrwt>
<totfact> 0.26826291E+05</totfact>
</mgrwt>
</event>
<event>
 6    1  0.4259848E-002  0.1270013E+03  0.7546771E-02  0.1231974E+00
         21   -1    0    0  503  502  0.00000000000E+00  0.00000000000E+00  0.10559990712E+03  0.10559990712E+03  0.00000000000E+00 0.  1.
         21   -1    0    0  504  503 -0.00000000000E+00 -0.00000000000E+00 -0.53185685444E+02  0.53185685444E+02  0.00000000000E+00 0.  1.
         25    2    1    2    0    0  0.19150819443E+02  0.11772242211E+02  0.40256312296E+02  0.13322870832E+03  0.12499591381E+03 0.  0.
          5    1    3    3  501    0  0.50934393541E+02 -0.19785983680E+02  0.62667750874E+02  0.83144780925E+02  0.10000000000E+00 0.  1.
         -5    1    3    3    0  501 -0.31783574098E+02  0.31558225891E+02 -0.22411438578E+02  0.50083927391E+02  0.10000000000E+00 0.  1.
         21    1    1    2  504  502 -0.19150819443E+02 -0.11772242211E+02  0.12157909383E+02  0.25556884250E+02  0.00000000000E+00 0.  1.
<mgrwt>
<rscale>  1 0.12700125E+03</rscale>
<asrwt>0</asrwt>
<pdfrwt beam="1">  1       21 0.16246140E-01 0.12700125E+03</pdfrwt>
<pdfrwt beam="2">  1       21 0.81824132E-02 0.12700125E+03</pdfrwt>
<totfact> 0.38607667E+06</totfact>
</mgrwt>
</event>
<event>
 6    1  0.4259848E-002  0.1409980E+03  0.7546771E-02  0.1211992E+00
         21   -1    0    0  503  502  0.00000000000E+00  0.00000000000E+00  0.22642148908E+04  0.22642148908E+04  0.00000000000E+00 0.  1.
         21   -1    0    0  504  503 -0.00000000000E+00 -0.00000000000E+00 -0.60042514510E+01  0.60042514510E+01  0.00000000000E+00 0.  1.
         25    2    1    2    0    0  0.63602956688E+02 -0.14498450994E+02  0.19546201622E+04  0.19596990640E+04  0.12499960718E+03 0.  0.
          5    1    3    3  501    0 -0.11523814586E+02  0.21903463178E+02  0.12357528584E+04  0.12360006865E+04  0.10000000000E+00 0. -1.
         -5    1    3    3    0  501  0.75126771274E+02 -0.36401914171E+02  0.71886730375E+03  0.72369837745E+03  0.10000000000E+00 0. -1.
         21    1    1    2  504  502 -0.63602956688E+02  0.14498450994E+02  0.30359047722E+03  0.31052007832E+03  0.00000000000E+00 0.  1.
<mgrwt>
<rscale>  1 0.14099802E+03</rscale>
<asrwt>0</asrwt>
<pdfrwt beam="1">  1       21 0.34834007E+00 0.14099802E+03</pdfrwt>
<pdfrwt beam="2">  1       21 0.92373280E-03 0.14099802E+03</pdfrwt>
<totfact> 0.80476863E+04</totfact>
</mgrwt>
</event>
<event>
 6    1  0.4259848E-002  0.1407637E+03  0.7546771E-02  0.1212305E+00
         21   -1    0    0  503  502  0.00000000000E+00  0.00000000000E+00  0.12059682094E+04  0.12059682094E+04  0.00000000000E+00 0. -1.
         21   -1    0    0  504  503 -0.00000000000E+00 -0.00000000000E+00 -0.10167912661E+02  0.10167912661E+02  0.00000000000E+00 0.  1.
         25    2    1    2    0    0  0.53079186325E+02  0.37032778648E+02  0.10014048308E+04  0.10112497538E+04  0.12500241088E+03 0.  0.
          5    1    3    3  501    0 -0.71842184780E-01  0.67908781187E+02  0.72076653772E+03  0.72395857590E+03  0.10000000000E+00 0. -1.
         -5    1    3    3    0  501  0.53151028509E+02 -0.30876002539E+02  0.28063829307E+03  0.28729117790E+03  0.10000000000E+00 0. -1.
         21    1    1    2  504  502 -0.53079186325E+02 -0.37032778648E+02  0.19439546596E+03  0.20488636826E+03  0.00000000000E+00 0.  1.
<mgrwt>
<rscale>  1 0.14076374E+03</rscale>
<asrwt>0</asrwt>
<pdfrwt beam="1">  1       21 0.18553346E+00 0.14076374E+03</pdfrwt>
<pdfrwt beam="2">  1       21 0.15642952E-02 0.14076374E+03</pdfrwt>
<totfact> 0.31276153E+05</totfact>
</mgrwt>
</event>
<event>
 6    1  0.4259848E-002  0.1274035E+03  0.7546771E-02  0.1231360E+00
         21   -1    0    0  503  502  0.00000000000E+00  0.00000000000E+00  0.68884271059E+02  0.68884271059E+02  0.00000000000E+00 0.  1.
         21   -1    0    0  504  503 -0.00000000000E+00 -0.00000000000E+00 -0.22277666866E+03  0.22277666866E+03  0.00000000000E+00 0.  1.
         25    2    1    2    0    0 -0.10369455825E+02  0.22350788432E+02  0.82374434782E+01  0.12766957188E+03  0.12499832299E+03 0.  0.
          5    1    3    3  501    0 -0.63328113025E+01  0.74633164026E+02  0.68367498480E+01  0.75212796917E+02  0.10000000000E+00 0.  1.
         -5    1    3    3    0  501 -0.40366445222E+01 -0.52282375594E+02  0.14006936302E+01  0.52456774962E+02  0.10000000000E+00 0.  1.
         21    1    1    2  504  502  0.10369455825E+02 -0.22350788432E+02 -0.16212984108E+03  0.16399136784E+03  0.00000000000E+00 0.  1.
<mgrwt>
<rscale>  1 0.12740355E+03</rscale>
<asrwt>0</asrwt>
<pdfrwt beam="1">  1       21 0.10597580E-01 0.12740355E+03</pdfrwt>
<pdfrwt beam="2">  1       21 0.34273334E-01 0.12740355E+03</pdfrwt>
<totfact> 0.60452603E+05</totfact>
</mgrwt>
</event>
<event>
 6    1  0.4259848E-002  0.1295426E+03  0.7546771E-02  0.1228136E+00
         21   -1    0    0  503  502  0.00000000000E+00  0.00000000000E+00  0.79117938396E+02  0.79117938396E+02  0.00000000000E+00 0. -1.
         21   -1    0    0  504  503 -0.00000000000E+00 -0.00000000000E+00 -0.11118811295E+03  0.11118811295E+03  0.00000000000E+00 0. -1.
         25    2    1    2    0    0  0.28536127625E+02  0.18463875500E+02  0.16958996665E+02  0.13064798476E+03  0.12500425223E+03 0.  0.
          5    1    3    3  501    0  0.48714780956E+02  0.18312986605E+02 -0.42921110471E+02  0.67459077122E+02  0.10000000000E+00 0. -1.
         -5    1    3    3    0  501 -0.20178653332E+02  0.15088889452E+00  0.59880107136E+02  0.63188907638E+02  0.10000000000E+00 0. -1.
         21    1    1    2  504  502 -0.28536127625E+02 -0.18463875500E+02 -0.49029171218E+02  0.59658066585E+02  0.00000000000E+00 0. -1.
<mgrwt>
<rscale>  1 0.12954261E+03</rscale>
<asrwt>0</asrwt>
<pdfrwt beam="1">  1       21 0.12171991E-01 0.12954261E+03</pdfrwt>
<pdfrwt beam="2">  1       21 0.17105863E-01 0.12954261E+03</pdfrwt>
<totfact> 0.17562361E+06</totfact>
</mgrwt>
</event>
<event>
 6    1  0.4259848E-002  0.1295518E+03  0.7546771E-02  0.1228122E+00
         21   -1    0    0  504  502  0.00000000000E+00  0.00000000000E+00  0.11240803875E+03  0.11240803875E+03  0.00000000000E+00 0.  1.
         21   -1    0    0  502  503 -0.00000000000E+00 -0.00000000000E+00 -0.60076999188E+02  0.60076999188E+02  0.00000000000E+00 0.  1.
         25    2    1    2    0    0 -0.58205937407E+01  0.33551633065E+02  0.47999270977E+02  0.13815785320E+03  0.12499628392E+03 0.  0.
          5    1    3    3  501    0 -0.11604233567E+01  0.17602949709E+01  0.87338633373E+02  0.87364135091E+02  0.10000000000E+00 0. -1.
         -5    1    3    3    0  501 -0.46601703840E+01  0.31791338094E+02 -0.39339362396E+02  0.50793718111E+02  0.10000000000E+00 0. -1.
         21    1    1    2  504  503  0.58205937407E+01 -0.33551633065E+02  0.43317685849E+01  0.34327184736E+02  0.00000000000E+00 0.  1.
<mgrwt>
<rscale>  1 0.12955177E+03</rscale>
<asrwt>0</asrwt>
<pdfrwt beam="1">  1       21 0.17293544E-01 0.12955177E+03</pdfrwt>
<pdfrwt beam="2">  1       21 0.92426153E-02 0.12955177E+03</pdfrwt>
<totfact> 0.27924323E+06</totfact>
</mgrwt>
</event>
<event>
 6    1  0.4259848E-002  0.1320793E+03  0.7546771E-02  0.1224403E+00
         21   -1    0    0  503  502  0.00000000000E+00  0.00000000000E+00  0.11504921081E+04  0.11504921081E+04  0.00000000000E+00 0. -1.
         21   -1    0    0  504  503 -0.00000000000E+00 -0.00000000000E+00 -0.96915155239E+03  0.96915155239E+03  0.00000000000E+00 0. -1.
         25    2    1    2    0    0  0.42615330216E+02 -0.14581960520E+01  0.11462289432E+04  0.11538135549E+04  0.12500694564E+03 0.  0.
          5    1    3    3  501    0  0.77258496250E+02 -0.32999351419E+02  0.80786411878E+03  0.81222058386E+03  0.10000000000E+00 0. -1.
         -5    1    3    3    0  501 -0.34643166035E+02  0.31541155367E+02  0.33836482443E+03  0.34159297101E+03  0.10000000000E+00 0. -1.
         21    1    1    2  504  502 -0.42615330216E+02  0.14581960520E+01 -0.96488838747E+03  0.96583010565E+03  0.00000000000E+00 0. -1.
<mgrwt>
<rscale>  1 0.13207925E+03</rscale>
<asrwt>0</asrwt>
<pdfrwt beam="1">  1       21 0.17699879E+00 0.13207925E+03</pdfrwt>
<pdfrwt beam="2">  1       21 0.14910024E+00 0.13207925E+03</pdfrwt>
<totfact> 0.64574605E+01</totfact>
</mgrwt>
</event>
<event>
 6    1  0.4259848E-002  0.1260397E+03  0.7546771E-02  0.1233453E+00
         21   -1    0    0  503  502  0.00000000000E+00  0.00000000000E+00  0.93173173163E+02  0.93173173163E+02  0.00000000000E+00 0.  1.
         21   -1    0    0  504  503 -0.00000000000E+00 -0.00000000000E+00 -0.54970692824E+02  0.54970692824E+02  0.00000000000E+00 0.  1.
         25    2    1    2    0    0  0.43677224774E+01  0.15654644844E+02  0.28521208088E+02  0.12922636253E+03  0.12498739359E+03 0.  0.
          5    1    3    3  501    0 -0.73375456983E+01 -0.49584317192E+02  0.37144101328E+02  0.62387004670E+02  0.10000000000E+00 0.  1.
         -5    1    3    3    0  501  0.11705268176E+02  0.65238962036E+02 -0.86228932394E+01  0.66839357855E+02  0.10000000000E+00 0.  1.
         21    1    1    2  504  502 -0.43677224774E+01 -0.15654644844E+02  0.96812722507E+01  0.18917503462E+02  0.00000000000E+00 0.  1.
<mgrwt>
<rscale>  1 0.12603965E+03</rscale>
<asrwt>0</asrwt>
<pdfrwt beam="1">  1       21 0.14334334E-01 0.12603965E+03</pdfrwt>
<pdfrwt beam="2">  1       21 0.84570297E-02 0.12603965E+03</pdfrwt>
<totfact> 0.45694069E+06</totfact>
</mgrwt>
</event>
<event>
 6    1  0.4259848E-002  0.1355896E+03  0.7546771E-02  0.1219390E+00
         21   -1    0    0  504  502  0.00000000000E+00  0.00000000000E+00  0.13750798855E+04  0.13750798855E+04  0.00000000000E+00 0.  1.
         21   -1    0    0  502  503 -0.00000000000E+00 -0.00000000000E+00 -0.57455321144E+02  0.57455321144E+02  0.00000000000E+00 0. -1.
         25    2    1    2    0    0  0.28120567086E+02  0.44377931581E+02  0.13589468498E+04  0.13656943630E+04  0.12499754164E+03 0.  0.
          5    1    3    3  501    0  0.37941715366E+02  0.70292682910E+02  0.12704711773E+04  0.12729798338E+04  0.10000000000E+00 0.  1.
         -5    1    3    3    0  501 -0.98211482795E+01 -0.25914751328E+02  0.88475672554E+02  0.92714529194E+02  0.10000000000E+00 0.  1.
         21    1    1    2  504  503 -0.28120567086E+02 -0.44377931581E+02 -0.41322285451E+02  0.66840843648E+02  0.00000000000E+00 0. -1.
<mgrwt>
<rscale>  1 0.13558965E+03</rscale>
<asrwt>0</asrwt>
<pdfrwt beam="1">  1       21 0.21155073E+00 0.13558965E+03</pdfrwt>
<pdfrwt beam="2">  1       21 0.88392812E-02 0.13558965E+03</pdfrwt>
<totfact> 0.12074097E+04</totfact>
</mgrwt>
</event>
<event>
 6    1  0.4259848E-002  0.2004333E+03  0.7546771E-02  0.1149374E+00
         21   -1    0    0  504  502  0.00000000000E+00  0.00000000000E+00  0.87275435869E+02  0.87275435869E+02  0.00000000000E+00 0. -1.
         21   -1    0    0  502  503 -0.00000000000E+00 -0.00000000000E+00 -0.37655113222E+03  0.37655113222E+03  0.00000000000E+00 0. -1.
         25    2    1    2    0    0 -0.14616674189E+03 -0.56427176178E+02 -0.12205177628E+03  0.23467032862E+03  0.12499913758E+03 0.  0.
          5    1    3    3  501    0  0.21231544299E+02 -0.18787209900E+02 -0.23350568727E+02  0.36728691632E+02  0.10000000000E+00 0. -1.
         -5    1    3    3    0  501 -0.16739828619E+03 -0.37639966278E+02 -0.98701207552E+02  0.19794163698E+03  0.10000000000E+00 0. -1.
         21    1    1    2  504  503  0.14616674189E+03  0.56427176178E+02 -0.16722392007E+03  0.22915623947E+03  0.00000000000E+00 0. -1.
<mgrwt>
<rscale>  1 0.20043335E+03</rscale>
<asrwt>0</asrwt>
<pdfrwt beam="1">  1       21 0.13426990E-01 0.20043335E+03</pdfrwt>
<pdfrwt beam="2">  1       21 0.57930943E-01 0.20043335E+03</pdfrwt>
<totfact> 0.13356556E+05</totfact>
</mgrwt>
</event>
<event>
 6    1  0.4259848E-002  0.1260530E+03  0.7546771E-02  0.1233433E+00
         21   -1    0    0  504  502  0.00000000000E+00  0.00000000000E+00  0.75912334283E+01  0.75912334283E+01  0.00000000000E+00 0. -1.
         21   -1    0    0  502  503 -0.00000000000E+00 -0.00000000000E+00 -0.67073803981E+03  0.67073803981E+03  0.00000000000E+00 0. -1.
         25    2    1    2    0    0  0.81962630781E+01  0.14024573187E+02 -0.56943455418E+03  0.58321958080E+03  0.12500200223E+03 0.  0.
          5    1    3    3  501    0  0.44911697882E+02 -0.36758523212E+02 -0.35871058856E+03  0.36337521377E+03  0.10000000000E+00 0.  1.
         -5    1    3    3    0  501 -0.36715434804E+02  0.50783096399E+02 -0.21072396561E+03  0.21984436703E+03  0.10000000000E+00 0.  1.
         21    1    1    2  504  503 -0.81962630781E+01 -0.14024573187E+02 -0.93712252203E+02  0.95109692432E+02  0.00000000000E+00 0.  1.
<mgrwt>
<rscale>  1 0.12605304E+03</rscale>
<asrwt>0</asrwt>
<pdfrwt beam="1">  1       21 0.11678820E-02 0.12605304E+03</pdfrwt>
<pdfrwt beam="2">  1       21 0.10319047E+00 0.12605304E+03</pdfrwt>
<totfact> 0.22284993E+06</totfact>
</mgrwt>
</event>
<event>
 6    1  0.4259848E-002  0.1372486E+03  0.7546771E-02  0.1217080E+00
         21   -1    0    0  504  502  0.00000000000E+00  0.00000000000E+00  0.19978353409E+02  0.19978353409E+02  0.00000000000E+00 0. -1.
         21   -1    0    0  502  503 -0.00000000000E+00 -0.00000000000E+00 -0.55208626500E+03  0.55208626500E+03  0.00000000000E+00 0. -1.
         25    2    1    2    0    0  0.50994986080E+02 -0.24738582149E+02 -0.46175498896E+03  0.48172072114E+03  0.12499878915E+03 0.  0.
          5    1    3    3  501    0  0.32746426718E+02  0.14596208451E+01 -0.44396109862E+03  0.44516954752E+03  0.10000000000E+00 0.  1.
         -5    1    3    3    0  501  0.18248559362E+02 -0.26198202994E+02 -0.17793890344E+02  0.36551173613E+02  0.10000000000E+00 0.  1.
         21    1    1    2  504  503 -0.50994986080E+02  0.24738582149E+02 -0.70352922631E+02  0.90343897274E+02  0.00000000000E+00 0. -1.
<mgrwt>
<rscale>  1 0.13724862E+03</rscale>
<asrwt>0</asrwt>
<pdfrwt beam="1">  1       21 0.30735926E-02 0.13724862E+03</pdfrwt>
<pdfrwt beam="2">  1       21 0.84936354E-01 0.13724862E+03</pdfrwt>
<totfact> 0.73449135E+05</totfact>
</mgrwt>
</event>
<event>
 6    1  0.4259848E-002  0.1423342E+03  0.7546771E-02  0.1210222E+00
         21   -1    0    0  503  502  0.00000000000E+00  0.00000000000E+00  0.11207864848E+04  0.11207864848E+04  0.00000000000E+00 0. -1.
         21   -1    0    0  504  503 -0.00000000000E+00 -0.00000000000E+00 -0.13990945376E+02  0.13990945376E+02  0.00000000000E+00 0. -1.
         25    2    1    2    0    0 -0.67751639764E+02  0.65949674631E+01  0.98516466724E+03  0.99539361707E+03  0.12500101220E+03 0.  0.
          5    1    3    3  501    0  0.37305303509E+01 -0.54563593097E+01 -0.89686438197E+00  0.66710628340E+01  0.10000000000E+00 0.  1.
         -5    1    3    3    0  501 -0.71482170115E+02  0.12051326773E+02  0.98606153162E+03  0.98872255424E+03  0.10000000000E+00 0.  1.
         21    1    1    2  504  502  0.67751639764E+02 -0.65949674631E+01  0.12163087219E+03  0.13938381311E+03  0.00000000000E+00 0. -1.
<mgrwt>
<rscale>  1 0.14233422E+03</rscale>
<asrwt>0</asrwt>
<pdfrwt beam="1">  1       21 0.17242862E+00 0.14233422E+03</pdfrwt>
<pdfrwt beam="2">  1       21 0.21524540E-02 0.14233422E+03</pdfrwt>
<totfact> 0.22893158E+05</totfact>
</mgrwt>
</event>
<event>
 6    1  0.4259848E-002  0.1359567E+03  0.7546771E-02  0.1218875E+00
         21   -1    0    0  504  502  0.00000000000E+00  0.00000000000E+00  0.29612175297E+03  0.29612175297E+03  0.00000000000E+00 0.  1.
         21   -1    0    0  502  503 -0.00000000000E+00 -0.00000000000E+00 -0.80488030499E+02  0.80488030499E+02  0.00000000000E+00 0.  1.
         25    2    1    2    0    0  0.36056345790E+02  0.39564712997E+02  0.26876054238E+03  0.30119171149E+03  0.12497516291E+03 0.  0.
          5    1    3    3  501    0  0.37045168484E+02 -0.42285627452E+01  0.25127488204E+03  0.25402618289E+03  0.10000000000E+00 0.  1.
         -5    1    3    3    0  501 -0.98882269358E+00  0.43793275743E+02  0.17485660342E+02  0.47165528601E+02  0.10000000000E+00 0.  1.
         21    1    1    2  504  503 -0.36056345790E+02 -0.39564712997E+02 -0.53126819913E+02  0.75418071975E+02  0.00000000000E+00 0.  1.
<mgrwt>
<rscale>  1 0.13595668E+03</rscale>
<asrwt>0</asrwt>
<pdfrwt beam="1">  1       21 0.45557192E-01 0.13595668E+03</pdfrwt>
<pdfrwt beam="2">  1       21 0.12382774E-01 0.13595668E+03</pdfrwt>
<totfact> 0.25979693E+05</totfact>
</mgrwt>
</event>
<event>
 6    1  0.4259848E-002  0.1267960E+03  0.7546771E-02  0.1232289E+00
         21   -1    0    0  503  502  0.00000000000E+00  0.00000000000E+00  0.37252890647E+03  0.37252890647E+03  0.00000000000E+00 0. -1.
         21   -1    0    0  504  503 -0.00000000000E+00 -0.00000000000E+00 -0.29296574460E+03  0.29296574460E+03  0.00000000000E+00 0.  1.
         25    2    1    2    0    0  0.15101787196E+02  0.14987385723E+02  0.36132695192E+03  0.38292869577E+03  0.12499813660E+03 0.  0.
          5    1    3    3  501    0  0.52254838850E+02  0.42344723146E+02  0.29204301331E+03  0.29968779653E+03  0.10000000000E+00 0. -1.
         -5    1    3    3    0  501 -0.37153051655E+02 -0.27357337424E+02  0.69283938608E+02  0.83240899246E+02  0.10000000000E+00 0. -1.
         21    1    1    2  504  502 -0.15101787196E+02 -0.14987385723E+02 -0.28176379005E+03  0.28256595529E+03  0.00000000000E+00 0.  1.
<mgrwt>
<rscale>  1 0.12679598E+03</rscale>
<asrwt>0</asrwt>
<pdfrwt beam="1">  1       21 0.57312140E-01 0.12679598E+03</pdfrwt>
<pdfrwt beam="2">  1       21 0.45071653E-01 0.12679598E+03</pdfrwt>
<totfact> 0.14149542E+04</totfact>
</mgrwt>
</event>
<event>
 6    1  0.4259848E-002  0.1325643E+03  0.7546771E-02  0.1223700E+00
         21   -1    0    0  504  502  0.00000000000E+00  0.00000000000E+00  0.55135842298E+02  0.55135842298E+02  0.00000000000E+00 0.  1.
         21   -1    0    0  502  503 -0.00000000000E+00 -0.00000000000E+00 -0.30804174640E+03  0.30804174640E+03  0.00000000000E+00 0.  1.
         25    2    1    2    0    0  0.13169954465E+02 -0.42121917089E+02 -0.29962788663E+02  0.13590828518E+03  0.12500235868E+03 0.  0.
          5    1    3    3  501    0 -0.35864699646E+02  0.10924438406E+02 -0.48527158130E+02  0.61323038993E+02  0.10000000000E+00 0.  1.
         -5    1    3    3    0  501  0.49034654111E+02 -0.53046355494E+02  0.18564369466E+02  0.74585246187E+02  0.10000000000E+00 0.  1.
         21    1    1    2  504  503 -0.13169954465E+02  0.42121917089E+02 -0.22294311544E+03  0.22726930352E+03  0.00000000000E+00 0.  1.
<mgrwt>
<rscale>  1 0.13256430E+03</rscale>
<asrwt>0</asrwt>
<pdfrwt beam="1">  1       21 0.84824372E-02 0.13256430E+03</pdfrwt>
<pdfrwt beam="2">  1       21 0.47391038E-01 0.13256430E+03</pdfrwt>
<totfact> 0.46567028E+05</totfact>
</mgrwt>
</event>
<event>
 6    1  0.4259848E-002  0.1259424E+03  0.7546771E-02  0.1233604E+00
         21   -1    0    0  504  502  0.00000000000E+00  0.00000000000E+00  0.18680000806E+04  0.18680000806E+04  0.00000000000E+00 0.  1.
         21   -1    0    0  502  503 -0.00000000000E+00 -0.00000000000E+00 -0.86489143435E+01  0.86489143435E+01  0.00000000000E+00 0.  1.
         25    2    1    2    0    0 -0.15188661058E+02  0.25359875365E+01  0.18567686667E+04  0.18610350281E+04  0.12499746976E+03 0.  0.
          5    1    3    3  501    0 -0.30479446762E+02 -0.29593803705E+02  0.23081548343E+03  0.23469253777E+03  0.10000000000E+00 0. -1.
         -5    1    3    3    0  501  0.15290785704E+02  0.32129791241E+02  0.16259531833E+04  0.16263424903E+04  0.10000000000E+00 0. -1.
         21    1    1    2  504  503  0.15188661058E+02 -0.25359875365E+01  0.25824995676E+01  0.15613966874E+02  0.00000000000E+00 0.  1.
<mgrwt>
<rscale>  1 0.12594242E+03</rscale>
<asrwt>0</asrwt>
<pdfrwt beam="1">  1       21 0.28738431E+00 0.12594242E+03</pdfrwt>
<pdfrwt beam="2">  1       21 0.13306037E-02 0.12594242E+03</pdfrwt>
<totfact> 0.10187423E+05</totfact>
</mgrwt>
</event>
<event>
 6    1  0.4259848E-002  0.1473239E+03  0.7546771E-02  0.1203801E+00
         21   -1    0    0  503  502  0.00000000000E+00  0.00000000000E+00  0.89612111837E+02  0.89612111837E+02  0.00000000000E+00 0. -1.
         21   -1    0    0  504  503 -0.00000000000E+00 -0.00000000000E+00 -0.15004472004E+03  0.15004472004E+03  0.00000000000E+00 0. -1.
         25    2    1    2    0    0  0.72978849893E+02 -0.27481552580E+02 -0.11894675367E+02  0.14780325716E+03  0.12499268483E+03 0.  0.
          5    1    3    3  501    0  0.57750706607E+02  0.32782229342E+02  0.29975342367E+02  0.72858423153E+02  0.10000000000E+00 0.  1.
         -5    1    3    3    0  501  0.15228143286E+02 -0.60263781922E+02 -0.41870017734E+02  0.74944834008E+02  0.10000000000E+00 0.  1.
         21    1    1    2  504  502 -0.72978849893E+02  0.27481552580E+02 -0.48537932837E+02  0.91853574715E+02  0.00000000000E+00 0. -1.
<mgrwt>
<rscale>  1 0.14732386E+03</rscale>
<asrwt>0</asrwt>
<pdfrwt beam="1">  1       21 0.13786479E-01 0.14732386E+03</pdfrwt>
<pdfrwt beam="2">  1       21 0.23083803E-01 0.14732386E+03</pdfrwt>
<totfact> 0.80848345E+05</totfact>
</mgrwt>
</event>
<event>
 6    1  0.4259848E-002  0.1285177E+03  0.7546771E-02  0.1229672E+00
         21   -1    0    0  503  502  0.00000000000E+00  0.00000000000E+00  0.10519175677E+03  0.10519175677E+03  0.00000000000E+00 0. -1.
         21   -1    0    0  504  503 -0.00000000000E+00 -0.00000000000E+00 -0.96332434846E+02  0.96332434846E+02  0.00000000000E+00 0. -1.
         25    2    1    2    0    0 -0.27889537126E+02 -0.10971050112E+02  0.60322485074E+02  0.14197045636E+03  0.12497446960E+03 0.  0.
          5    1    3    3  501    0  0.43277347930E+02 -0.30033785700E+02  0.38113579913E+02  0.65020089982E+02  0.10000000000E+00 0. -1.
         -5    1    3    3    0  501 -0.71166885057E+02  0.19062735588E+02  0.22208905161E+02  0.76950366375E+02  0.10000000000E+00 0. -1.
         21    1    1    2  504  502  0.27889537126E+02  0.10971050112E+02 -0.51463163152E+02  0.59553735259E+02  0.00000000000E+00 0. -1.
<mgrwt>
<rscale>  1 0.12851774E+03</rscale>
<asrwt>0</asrwt>
<pdfrwt beam="1">  1       21 0.16183347E-01 0.12851774E+03</pdfrwt>
<pdfrwt beam="2">  1       21 0.14820375E-01 0.12851774E+03</pdfrwt>
<totfact> 0.13661158E+06</totfact>
</mgrwt>
</event>
<event>
 6    1  0.4259848E-002  0.1260769E+03  0.7546771E-02  0.1233396E+00
         21   -1    0    0  504  502  0.00000000000E+00  0.00000000000E+00  0.27527958686E+02  0.27527958686E+02  0.00000000000E+00 0. -1.
         21   -1    0    0  502  503 -0.00000000000E+00 -0.00000000000E+00 -0.37420698407E+03  0.37420698407E+03  0.00000000000E+00 0. -1.
         25    2    1    2    0    0 -0.65034273202E+01  0.15071992249E+02 -0.11868800859E+03  0.17315374656E+03  0.12500366813E+03 0.  0.
          5    1    3    3  501    0 -0.78386707425E+00 -0.45536081985E+02 -0.99329274160E+02  0.10927242980E+03  0.10000000000E+00 0.  1.
         -5    1    3    3    0  501 -0.57195602459E+01  0.60608074234E+02 -0.19358734434E+02  0.63881316757E+02  0.10000000000E+00 0.  1.
         21    1    1    2  504  503  0.65034273202E+01 -0.15071992249E+02 -0.22799101679E+03  0.22858119619E+03  0.00000000000E+00 0. -1.
<mgrwt>
<rscale>  1 0.12607687E+03</rscale>
<asrwt>0</asrwt>
<pdfrwt beam="1">  1       21 0.42350704E-02 0.12607687E+03</pdfrwt>
<pdfrwt beam="2">  1       21 0.57570307E-01 0.12607687E+03</pdfrwt>
<totfact> 0.10102258E+06</totfact>
</mgrwt>
</event>
<event>
 6    1  0.4259848E-002  0.1300306E+03  0.7546771E-02  0.1227410E+00
         21   -1    0    0  503  502  0.00000000000E+00  0.00000000000E+00  0.18040469961E+03  0.18040469961E+03  0.00000000000E+00 0. -1.
         21   -1    0    0  504  503 -0.00000000000E+00 -0.00000000000E+00 -0.56957711372E+02  0.56957711372E+02  0.00000000000E+00 0. -1.
         25    2    1    2    0    0  0.14620638760E+02  0.32680320235E+02  0.14563939200E+03  0.19524033609E+03  0.12500475962E+03 0.  0.
          5    1    3    3  501    0 -0.38671355695E+02  0.52403932679E+02  0.43379154156E+02  0.78252200779E+02  0.10000000000E+00 0.  1.
         -5    1    3    3    0  501  0.53291994455E+02 -0.19723612444E+02  0.10226023784E+03  0.11698813531E+03  0.10000000000E+00 0.  1.
         21    1    1    2  504  502 -0.14620638760E+02 -0.32680320235E+02 -0.22192403759E+02  0.42122074889E+02  0.00000000000E+00 0. -1.
<mgrwt>
<rscale>  1 0.13003060E+03</rscale>
<asrwt>0</asrwt>
<pdfrwt beam="1">  1       21 0.27754569E-01 0.13003060E+03</pdfrwt>
<pdfrwt beam="2">  1       21 0.87627249E-02 0.13003060E+03</pdfrwt>
<totfact> 0.12672292E+06</totfact>
</mgrwt>
</event>
<event>
 6    1  0.4259848E-002  0.1264572E+03  0.7546771E-02  0.1232809E+00
         21   -1    0    0  503  502  0.00000000000E+00  0.00000000000E+00  0.23473198146E+03  0.23473198146E+03  0.00000000000E+00 0. -1.
         21   -1    0    0  504  503 -0.00000000000E+00 -0.00000000000E+00 -0.23192063905E+02  0.23192063905E+02  0.00000000000E+00 0. -1.
         25    2    1    2    0    0  0.17557309859E+02  0.76576351552E+01  0.19602149367E+03  0.23327206805E+03  0.12499813297E+03 0.  0.
          5    1    3    3  501    0  0.18360515290E+02 -0.57969606832E+02  0.96191904762E+02  0.11380015984E+03  0.10000000000E+00 0.  1.
         -5    1    3    3    0  501 -0.80320543008E+00  0.65627241987E+02  0.99829588904E+02  0.11947190821E+03  0.10000000000E+00 0.  1.
         21    1    1    2  504  502 -0.17557309859E+02 -0.76576351552E+01  0.15518423890E+02  0.24651977318E+02  0.00000000000E+00 0.  1.
<mgrwt>
<rscale>  1 0.12645723E+03</rscale>
<asrwt>0</asrwt>
<pdfrwt beam="1">  1       21 0.36112611E-01 0.12645723E+03</pdfrwt>
<pdfrwt beam="2">  1       21 0.35680100E-02 0.12645723E+03</pdfrwt>
<totfact> 0.34690661E+06</totfact>
</mgrwt>
</event>
<event>
 6    1  0.4259848E-002  0.1285963E+03  0.7546771E-02  0.1229554E+00
         21   -1    0    0  503  502  0.00000000000E+00  0.00000000000E+00  0.30069627560E+02  0.30069627560E+02  0.00000000000E+00 0. -1.
         21   -1    0    0  504  503 -0.00000000000E+00 -0.00000000000E+00 -0.31862672282E+03  0.31862672282E+03  0.00000000000E+00 0.  1.
         25    2    1    2    0    0  0.26793735676E+02  0.13974189759E+02 -0.11496421671E+03  0.17249286082E+03  0.12499533455E+03 0.  0.
          5    1    3    3  501    0  0.17892163349E+02 -0.52456384101E+02 -0.78785686177E+02  0.96327545845E+02  0.10000000000E+00 0.  1.
         -5    1    3    3    0  501  0.89015723261E+01  0.66430573860E+02 -0.36178530532E+02  0.76165314971E+02  0.10000000000E+00 0.  1.
         21    1    1    2  504  502 -0.26793735676E+02 -0.13974189759E+02 -0.17359287856E+03  0.17620348957E+03  0.00000000000E+00 0.  1.
<mgrwt>
<rscale>  1 0.12859633E+03</rscale>
<asrwt>0</asrwt>
<pdfrwt beam="1">  1       21 0.46260964E-02 0.12859633E+03</pdfrwt>
<pdfrwt beam="2">  1       21 0.49019497E-01 0.12859633E+03</pdfrwt>
<totfact> 0.12184975E+06</totfact>
</mgrwt>
</event>
<event>
 6    1  0.4259848E-002  0.1438260E+03  0.7546771E-02  0.1208272E+00
         21   -1    0    0  503  502  0.00000000000E+00  0.00000000000E+00  0.22538314708E+04  0.22538314708E+04  0.00000000000E+00 0.  1.
         21   -1    0    0  504  503 -0.00000000000E+00 -0.00000000000E+00 -0.97979167381E+01  0.97979167381E+01  0.00000000000E+00 0.  1.
         25    2    1    2    0    0  0.43831027420E+02 -0.56006100861E+02  0.20784339499E+04  0.20834043305E+04  0.12501231059E+03 0.  0.
          5    1    3    3  501    0 -0.16438343899E+02  0.29713840256E+02  0.78437473150E+03  0.78510945789E+03  0.10000000000E+00 0.  1.
         -5    1    3    3    0  501  0.60269371318E+02 -0.85719941117E+02  0.12940592184E+04  0.12982948726E+04  0.10000000000E+00 0.  1.
         21    1    1    2  504  502 -0.43831027420E+02  0.56006100861E+02  0.16559960414E+03  0.18022505705E+03  0.00000000000E+00 0.  1.
<mgrwt>
<rscale>  1 0.14382601E+03</rscale>
<asrwt>0</asrwt>
<pdfrwt beam="1">  1       21 0.34674289E+00 0.14382601E+03</pdfrwt>
<pdfrwt beam="2">  1       21 0.15073736E-02 0.14382601E+03</pdfrwt>
<totfact> 0.37646537E+04</totfact>
</mgrwt>
</event>
<event>
 6    1  0.4259848E-002  0.1287978E+03  0.7546771E-02  0.1229250E+00
         21   -1    0    0  504  502  0.00000000000E+00  0.00000000000E+00  0.13975809541E+03  0.13975809541E+03  0.00000000000E+00 0.  1.
         21   -1    0    0  502  503 -0.00000000000E+00 -0.00000000000E+00 -0.55662146915E+02  0.55662146915E+02  0.00000000000E+00 0.  1.
         25    2    1    2    0    0  0.17624644060E+02  0.25568556484E+02  0.97556542147E+02  0.16157402038E+03  0.12499802393E+03 0.  0.
          5    1    3    3  501    0  0.29093217881E+02 -0.14565490431E+02  0.11259913922E+03  0.11720556724E+03  0.10000000000E+00 0.  1.
         -5    1    3    3    0  501 -0.11468573821E+02  0.40134046915E+02 -0.15042597076E+02  0.44368453140E+02  0.10000000000E+00 0.  1.
         21    1    1    2  504  503 -0.17624644060E+02 -0.25568556484E+02 -0.13460593648E+02  0.33846221949E+02  0.00000000000E+00 0.  1.
<mgrwt>
<rscale>  1 0.12879785E+03</rscale>
<asrwt>0</asrwt>
<pdfrwt beam="1">  1       21 0.21501245E-01 0.12879785E+03</pdfrwt>
<pdfrwt beam="2">  1       21 0.85634073E-02 0.12879785E+03</pdfrwt>
<totfact> 0.21338244E+06</totfact>
</mgrwt>
</event>
<event>
 6    1  0.4259848E-002  0.1353589E+03  0.7546771E-02  0.1219714E+00
         21   -1    0    0  504  502  0.00000000000E+00  0.00000000000E+00  0.40528965767E+03  0.40528965767E+03  0.00000000000E+00 0. -1.
         21   -1    0    0  502  503 -0.00000000000E+00 -0.00000000000E+00 -0.59310231518E+02  0.59310231518E+02  0.00000000000E+00 0.  1.
         25    2    1    2    0    0 -0.17871857952E+02 -0.48768444109E+02  0.37940918561E+03  0.40283166706E+03  0.12499702963E+03 0.  0.
          5    1    3    3  501    0 -0.51602044030E+02 -0.45661369653E+02  0.10037654771E+03  0.12175053576E+03  0.10000000000E+00 0.  1.
         -5    1    3    3    0  501  0.33730186078E+02 -0.31070744558E+01  0.27903263790E+03  0.28108113131E+03  0.10000000000E+00 0.  1.
         21    1    1    2  504  503  0.17871857952E+02  0.48768444109E+02 -0.33429759455E+02  0.61768222126E+02  0.00000000000E+00 0.  1.
<mgrwt>
<rscale>  1 0.13535886E+03</rscale>
<asrwt>0</asrwt>
<pdfrwt beam="1">  1       21 0.62352253E-01 0.13535886E+03</pdfrwt>
<pdfrwt beam="2">  1       21 0.91246512E-02 0.13535886E+03</pdfrwt>
<totfact> 0.23092657E+05</totfact>
</mgrwt>
</event>
<event>
 6    1  0.4259848E-002  0.1310154E+03  0.7546771E-02  0.1225957E+00
         21   -1    0    0  504  502  0.00000000000E+00  0.00000000000E+00  0.36315129836E+03  0.36315129836E+03  0.00000000000E+00 0. -1.
         21   -1    0    0  502  503 -0.00000000000E+00 -0.00000000000E+00 -0.22423873342E+02  0.22423873342E+02  0.00000000000E+00 0. -1.
         25    2    1    2    0    0 -0.32481939450E+02  0.22041334237E+02  0.30712710864E+03  0.33390430887E+03  0.12499651921E+03 0.  0.
          5    1    3    3  501    0  0.19886963708E+02  0.51174489559E+02  0.22872576842E+03  0.23522288759E+03  0.10000000000E+00 0.  1.
         -5    1    3    3    0  501 -0.52368903158E+02 -0.29133155322E+02  0.78401340214E+02  0.98681421272E+02  0.10000000000E+00 0.  1.
         21    1    1    2  504  503  0.32481939450E+02 -0.22041334237E+02  0.33600316381E+02  0.51670862837E+02  0.00000000000E+00 0. -1.
<mgrwt>
<rscale>  1 0.13101537E+03</rscale>
<asrwt>0</asrwt>
<pdfrwt beam="1">  1       21 0.55869426E-01 0.13101537E+03</pdfrwt>
<pdfrwt beam="2">  1       21 0.34498269E-02 0.13101537E+03</pdfrwt>
<totfact> 0.15122296E+06</totfact>
</mgrwt>
</event>
<event>
 6    1  0.4259848E-002  0.1268507E+03  0.7546771E-02  0.1232205E+00
         21   -1    0    0  503  502  0.00000000000E+00  0.00000000000E+00  0.45167519987E+02  0.45167519987E+02  0.00000000000E+00 0.  1.
         21   -1    0    0  504  503 -0.00000000000E+00 -0.00000000000E+00 -0.13297159258E+03  0.13297159258E+03  0.00000000000E+00 0.  1.
         25    2    1    2    0    0 -0.20863392037E+02 -0.54826912274E+01 -0.53620290265E+02  0.13771792994E+03  0.12500300664E+03 0.  0.
          5    1    3    3  501    0  0.41597310972E+02 -0.35783590678E+02 -0.37462498198E+02  0.66439825505E+02  0.10000000000E+00 0.  1.
         -5    1    3    3    0  501 -0.62460703010E+02  0.30300899450E+02 -0.16157792067E+02  0.71278104439E+02  0.10000000000E+00 0.  1.
         21    1    1    2  504  502  0.20863392037E+02  0.54826912274E+01 -0.34183782328E+02  0.40421182623E+02  0.00000000000E+00 0.  1.
<mgrwt>
<rscale>  1 0.12685067E+03</rscale>
<asrwt>0</asrwt>
<pdfrwt beam="1">  1       21 0.69488492E-02 0.12685067E+03</pdfrwt>
<pdfrwt beam="2">  1       21 0.20457168E-01 0.12685067E+03</pdfrwt>
<totfact> 0.33506241E+06</totfact>
</mgrwt>
</event>
<event>
 6    1  0.4259848E-002  0.1262490E+03  0.7546771E-02  0.1233130E+00
         21   -1    0    0  504  502  0.00000000000E+00  0.00000000000E+00  0.12375564409E+03  0.12375564409E+03  0.00000000000E+00 0.  1.
         21   -1    0    0  502  503 -0.00000000000E+00 -0.00000000000E+00 -0.42724423562E+02  0.42724423562E+02  0.00000000000E+00 0.  1.
         25    2    1    2    0    0 -0.17103553610E+02 -0.45541117592E+01  0.78332829646E+02  0.14857607945E+03  0.12500219080E+03 0.  0.
          5    1    3    3  501    0 -0.56378583763E+02  0.30476818519E+02  0.70654313108E+02  0.95390896500E+02  0.10000000000E+00 0. -1.
         -5    1    3    3    0  501  0.39275030153E+02 -0.35030930278E+02  0.76785165376E+01  0.53185182954E+02  0.10000000000E+00 0. -1.
         21    1    1    2  504  503  0.17103553610E+02  0.45541117592E+01  0.26983908815E+01  0.17903988197E+02  0.00000000000E+00 0.  1.
<mgrwt>
<rscale>  1 0.12624904E+03</rscale>
<asrwt>0</asrwt>
<pdfrwt beam="1">  1       21 0.19039330E-01 0.12624904E+03</pdfrwt>
<pdfrwt beam="2">  1       21 0.65729883E-02 0.12624904E+03</pdfrwt>
<totfact> 0.42055443E+06</totfact>
</mgrwt>
</event>
<event>
 6    1  0.4259848E-002  0.1268922E+03  0.7546771E-02  0.1232141E+00
         21   -1    0    0  504  502  0.00000000000E+00  0.00000000000E+00  0.18452459425E+04  0.18452459425E+04  0.00000000000E+00 0. -1.
         21   -1    0    0  502  503 -0.00000000000E+00 -0.00000000000E+00 -0.31980333254E+01  0.31980333254E+01  0.00000000000E+00 0. -1.
         25    2    1    2    0    0 -0.12258741605E+02 -0.18092467691E+02  0.13618143008E+04  0.13677133520E+04  0.12499603621E+03 0.  0.
          5    1    3    3  501    0  0.42560951035E+02 -0.26274212341E+02  0.10368732460E+04  0.10380789503E+04  0.10000000000E+00 0. -1.
         -5    1    3    3    0  501 -0.54819692640E+02  0.81817446498E+01  0.32494105481E+03  0.32963440165E+03  0.10000000000E+00 0. -1.
         21    1    1    2  504  503  0.12258741605E+02  0.18092467691E+02  0.48023360831E+03  0.48073062382E+03  0.00000000000E+00 0. -1.
<mgrwt>
<rscale>  1 0.12689217E+03</rscale>
<asrwt>0</asrwt>
<pdfrwt beam="1">  1       21 0.28388314E+00 0.12689217E+03</pdfrwt>
<pdfrwt beam="2">  1       21 0.49200660E-03 0.12689217E+03</pdfrwt>
<totfact> 0.50550802E+05</totfact>
</mgrwt>
</event>
<event>
 6    1  0.4259848E-002  0.1274745E+03  0.7546771E-02  0.1231252E+00
         21   -1    0    0  503  502  0.00000000000E+00  0.00000000000E+00  0.14236281981E+02  0.14236281981E+02  0.00000000000E+00 0. -1.
         21   -1    0    0  504  503 -0.00000000000E+00 -0.00000000000E+00 -0.40831727791E+03  0.40831727791E+03  0.00000000000E+00 0. -1.
         25    2    1    2    0    0  0.13404628801E+02 -0.21054886001E+02 -0.33349698595E+03  0.35702940738E+03  0.12500706298E+03 0.  0.
          5    1    3    3  501    0 -0.21954101338E+02  0.21071552707E+01 -0.30557541628E+03  0.30637031139E+03  0.10000000000E+00 0.  1.
         -5    1    3    3    0  501  0.35358730138E+02 -0.23162041272E+02 -0.27921569670E+02  0.50659095982E+02  0.10000000000E+00 0.  1.
         21    1    1    2  504  502 -0.13404628801E+02  0.21054886001E+02 -0.60584009976E+02  0.65524152513E+02  0.00000000000E+00 0.  1.
<mgrwt>
<rscale>  1 0.12747454E+03</rscale>
<asrwt>0</asrwt>
<pdfrwt beam="1">  1       21 0.21901976E-02 0.12747454E+03</pdfrwt>
<pdfrwt beam="2">  1       21 0.62818032E-01 0.12747454E+03</pdfrwt>
<totfact> 0.24769828E+06</totfact>
</mgrwt>
</event>
<event>
 6    1  0.4259848E-002  0.1662232E+03  0.7546771E-02  0.1181845E+00
         21   -1    0    0  504  502  0.00000000000E+00  0.00000000000E+00  0.39453962714E+03  0.39453962714E+03  0.00000000000E+00 0.  1.
         21   -1    0    0  502  503 -0.00000000000E+00 -0.00000000000E+00 -0.75369210284E+02  0.75369210284E+02  0.00000000000E+00 0.  1.
         25    2    1    2    0    0 -0.10291289019E+03  0.37646526150E+02  0.41395668205E+02  0.17130017230E+03  0.12498729450E+03 0.  0.
          5    1    3    3  501    0 -0.21069050781E+02  0.70596599409E+02 -0.39683882457E+00  0.73674637631E+02  0.10000000000E+00 0. -1.
         -5    1    3    3    0  501 -0.81843839405E+02 -0.32950073259E+02  0.41792507030E+02  0.97625534673E+02  0.10000000000E+00 0. -1.
         21    1    1    2  504  503  0.10291289019E+03 -0.37646526150E+02  0.27777474865E+03  0.29860866512E+03  0.00000000000E+00 0.  1.
<mgrwt>
<rscale>  1 0.16622319E+03</rscale>
<asrwt>0</asrwt>
<pdfrwt beam="1">  1       21 0.60698403E-01 0.16622319E+03</pdfrwt>
<pdfrwt beam="2">  1       21 0.11595263E-01 0.16622319E+03</pdfrwt>
<totfact> 0.15909138E+05</totfact>
</mgrwt>
</event>
<event>
 6    1  0.4259848E-002  0.1267458E+03  0.7546771E-02  0.1232366E+00
         21   -1    0    0  504  502  0.00000000000E+00  0.00000000000E+00  0.13001982200E+03  0.13001982200E+03  0.00000000000E+00 0. -1.
         21   -1    0    0  502  503 -0.00000000000E+00 -0.00000000000E+00 -0.43922330611E+02  0.43922330611E+02  0.00000000000E+00 0. -1.
         25    2    1    2    0    0  0.17103231360E+02 -0.12136378993E+02  0.85638289767E+02  0.15296542541E+03  0.12499876990E+03 0.  0.
          5    1    3    3  501    0 -0.28837796697E+02  0.42172813933E+02  0.56281042968E+02  0.76011384351E+02  0.10000000000E+00 0.  1.
         -5    1    3    3    0  501  0.45941028058E+02 -0.54309192926E+02  0.29357246799E+02  0.76954041056E+02  0.10000000000E+00 0.  1.
         21    1    1    2  504  503 -0.17103231360E+02  0.12136378993E+02  0.45920162152E+00  0.20976727203E+02  0.00000000000E+00 0. -1.
<mgrwt>
<rscale>  1 0.12674583E+03</rscale>
<asrwt>0</asrwt>
<pdfrwt beam="1">  1       21 0.20003049E-01 0.12674583E+03</pdfrwt>
<pdfrwt beam="2">  1       21 0.67572817E-02 0.12674583E+03</pdfrwt>
<totfact> 0.36633859E+06</totfact>
</mgrwt>
</event>
<event>
 6    1  0.4259848E-002  0.1265791E+03  0.7546771E-02  0.1232622E+00
         21   -1    0    0  503  502  0.00000000000E+00  0.00000000000E+00  0.35600594533E+02  0.35600594533E+02  0.00000000000E+00 0. -1.
         21   -1    0    0  504  503 -0.00000000000E+00 -0.00000000000E+00 -0.15695934318E+03  0.15695934318E+03  0.00000000000E+00 0. -1.
         25    2    1    2    0    0 -0.16784219415E+02  0.10776256396E+02 -0.89692485852E+02  0.15513548150E+03  0.12499775150E+03 0.  0.
          5    1    3    3  501    0 -0.11032387160E+02 -0.46030684130E+02 -0.85694268768E+02  0.97898187662E+02  0.10000000000E+00 0.  1.
         -5    1    3    3    0  501 -0.57518322548E+01  0.56806940526E+02 -0.39982170844E+01  0.57237293839E+02  0.10000000000E+00 0.  1.
         21    1    1    2  504  502  0.16784219415E+02 -0.10776256396E+02 -0.31666262791E+02  0.37424456208E+02  0.00000000000E+00 0. -1.
<mgrwt>
<rscale>  1 0.12657913E+03</rscale>
<asrwt>0</asrwt>
<pdfrwt beam="1">  1       21 0.54770145E-02 0.12657913E+03</pdfrwt>
<pdfrwt beam="2">  1       21 0.24147592E-01 0.12657913E+03</pdfrwt>
<totfact> 0.36822135E+06</totfact>
</mgrwt>
</event>
<event>
 6    1  0.4259848E-002  0.1259610E+03  0.7546771E-02  0.1233575E+00
         21   -1    0    0  504  502  0.00000000000E+00  0.00000000000E+00  0.20794065012E+02  0.20794065012E+02  0.00000000000E+00 0.  1.
         21   -1    0    0  502  503 -0.00000000000E+00 -0.00000000000E+00 -0.29006344856E+03  0.29006344856E+03  0.00000000000E+00 0.  1.
         25    2    1    2    0    0 -0.92936032651E+01  0.12436488705E+02 -0.17672858172E+03  0.21702341893E+03  0.12500054183E+03 0.  0.
          5    1    3    3  501    0 -0.28245126391E+02  0.64156856630E+02 -0.11079306684E+03  0.13110683841E+03  0.10000000000E+00 0. -1.
         -5    1    3    3    0  501  0.18951523126E+02 -0.51720367925E+02 -0.65935514873E+02  0.85916580523E+02  0.10000000000E+00 0. -1.
         21    1    1    2  504  503  0.92936032651E+01 -0.12436488705E+02 -0.92540801833E+02  0.93834094639E+02  0.00000000000E+00 0.  1.
<mgrwt>
<rscale>  1 0.12596100E+03</rscale>
<asrwt>0</asrwt>
<pdfrwt beam="1">  1       21 0.31990871E-02 0.12596100E+03</pdfrwt>
<pdfrwt beam="2">  1       21 0.44625143E-01 0.12596100E+03</pdfrwt>
<totfact> 0.27195775E+06</totfact>
</mgrwt>
</event>
<event>
 6    1  0.4259848E-002  0.1260794E+03  0.7546771E-02  0.1233392E+00
         21   -1    0    0  503  502  0.00000000000E+00  0.00000000000E+00  0.37934606185E+02  0.37934606185E+02  0.00000000000E+00 0. -1.
         21   -1    0    0  504  503 -0.00000000000E+00 -0.00000000000E+00 -0.24727213430E+03  0.24727213430E+03  0.00000000000E+00 0. -1.
         25    2    1    2    0    0 -0.14175174695E+02  0.78453141619E+01 -0.68588699194E+02  0.14352852277E+03  0.12503416597E+03 0.  0.
          5    1    3    3  501    0 -0.43525141299E+02  0.41514173969E+02 -0.77378008950E+02  0.98006279567E+02  0.10000000000E+00 0.  1.
         -5    1    3    3    0  501  0.29349966604E+02 -0.33668859807E+02  0.87893097557E+01  0.45522243204E+02  0.10000000000E+00 0.  1.
         21    1    1    2  504  502  0.14175174695E+02 -0.78453141619E+01 -0.14074882892E+03  0.14167821771E+03  0.00000000000E+00 0. -1.
<mgrwt>
<rscale>  1 0.12607945E+03</rscale>
<asrwt>0</asrwt>
<pdfrwt beam="1">  1       21 0.58360932E-02 0.12607945E+03</pdfrwt>
<pdfrwt beam="2">  1       21 0.38041867E-01 0.12607945E+03</pdfrwt>
<totfact> 0.13751283E+06</totfact>
</mgrwt>
</event>
<event>
 6    1  0.4259848E-002  0.1337147E+03  0.7546771E-02  0.1222046E+00
         21   -1    0    0  503  502  0.00000000000E+00  0.00000000000E+00  0.38215762619E+02  0.38215762619E+02  0.00000000000E+00 0.  1.
         21   -1    0    0  504  503 -0.00000000000E+00 -0.00000000000E+00 -0.82656893573E+03  0.82656893573E+03  0.00000000000E+00 0.  1.
         25    2    1    2    0    0 -0.41066663154E+02 -0.23827138326E+02 -0.82037376765E+02  0.15687495303E+03  0.12500166543E+03 0.  0.
          5    1    3    3  501    0 -0.63581885261E+02 -0.20583169325E+02  0.49006943913E+01  0.67010072364E+02  0.10000000000E+00 0.  1.
         -5    1    3    3    0  501  0.22515222106E+02 -0.32439690002E+01 -0.86938071156E+02  0.89864880669E+02  0.10000000000E+00 0.  1.
         21    1    1    2  504  502  0.41066663154E+02  0.23827138326E+02 -0.70631579634E+03  0.70790974531E+03  0.00000000000E+00 0.  1.
<mgrwt>
<rscale>  1 0.13371470E+03</rscale>
<asrwt>0</asrwt>
<pdfrwt beam="1">  1       21 0.58793477E-02 0.13371470E+03</pdfrwt>
<pdfrwt beam="2">  1       21 0.12716446E+00 0.13371470E+03</pdfrwt>
<totfact> 0.95870529E+04</totfact>
</mgrwt>
</event>
<event>
 6    1  0.4259848E-002  0.1259477E+03  0.7546771E-02  0.1233596E+00
         21   -1    0    0  503  502  0.00000000000E+00  0.00000000000E+00  0.86161297696E+02  0.86161297696E+02  0.00000000000E+00 0.  1.
         21   -1    0    0  504  503 -0.00000000000E+00 -0.00000000000E+00 -0.57990907525E+02  0.57990907525E+02  0.00000000000E+00 0.  1.
         25    2    1    2    0    0 -0.40415143322E+00 -0.15403421947E+02  0.24410831874E+02  0.12829146676E+03  0.12500153192E+03 0.  0.
          5    1    3    3  501    0  0.40823603872E+02 -0.33627424237E+02  0.53030450224E+02  0.74897322681E+02  0.10000000000E+00 0. -1.
         -5    1    3    3    0  501 -0.41227755305E+02  0.18224002290E+02 -0.28619618349E+02  0.53394144074E+02  0.10000000000E+00 0. -1.
         21    1    1    2  504  502  0.40415143322E+00  0.15403421947E+02  0.37595582967E+01  0.15860738465E+02  0.00000000000E+00 0.  1.
<mgrwt>
<rscale>  1 0.12594765E+03</rscale>
<asrwt>0</asrwt>
<pdfrwt beam="1">  1       21 0.13255584E-01 0.12594765E+03</pdfrwt>
<pdfrwt beam="2">  1       21 0.89216781E-02 0.12594765E+03</pdfrwt>
<totfact> 0.47910423E+06</totfact>
</mgrwt>
</event>
<event>
 6    1  0.4259848E-002  0.1261294E+03  0.7546771E-02  0.1233315E+00
         21   -1    0    0  504  502  0.00000000000E+00  0.00000000000E+00  0.39810498141E+02  0.39810498141E+02  0.00000000000E+00 0.  1.
         21   -1    0    0  502  503 -0.00000000000E+00 -0.00000000000E+00 -0.15590220410E+03  0.15590220410E+03  0.00000000000E+00 0.  1.
         25    2    1    2    0    0  0.16511274176E+02  0.33453580849E+01 -0.64954914475E+02  0.14187233598E+03  0.12499922083E+03 0.  0.
          5    1    3    3  501    0  0.39471868797E+01 -0.53943355722E+02 -0.63214947250E+02  0.83196186611E+02  0.10000000000E+00 0. -1.
         -5    1    3    3    0  501  0.12564087296E+02  0.57288713806E+02 -0.17399672249E+01  0.58676149372E+02  0.10000000000E+00 0. -1.
         21    1    1    2  504  503 -0.16511274176E+02 -0.33453580849E+01 -0.51136791487E+02  0.53840366262E+02  0.00000000000E+00 0.  1.
<mgrwt>
<rscale>  1 0.12612937E+03</rscale>
<asrwt>0</asrwt>
<pdfrwt beam="1">  1       21 0.61246921E-02 0.12612937E+03</pdfrwt>
<pdfrwt beam="2">  1       21 0.23984954E-01 0.12612937E+03</pdfrwt>
<totfact> 0.30864970E+06</totfact>
</mgrwt>
</event>
<event>
 6    1  0.4259848E-002  0.1260096E+03  0.7546771E-02  0.1233500E+00
         21   -1    0    0  503  502  0.00000000000E+00  0.00000000000E+00  0.12030368925E+02  0.12030368925E+02  0.00000000000E+00 0. -1.
         21   -1    0    0  504  503 -0.00000000000E+00 -0.00000000000E+00 -0.44898124482E+03  0.44898124482E+03  0.00000000000E+00 0. -1.
         25    2    1    2    0    0 -0.10015778511E+02  0.12370618403E+02 -0.33673944446E+03  0.35954398832E+03  0.12500031226E+03 0.  0.
          5    1    3    3  501    0 -0.38322338223E+02  0.45889144819E+02 -0.84465036273E+02  0.10348317531E+03  0.10000000000E+00 0.  1.
         -5    1    3    3    0  501  0.28306559712E+02 -0.33518526416E+02 -0.25227440819E+03  0.25606081301E+03  0.10000000000E+00 0.  1.
         21    1    1    2  504  502  0.10015778511E+02 -0.12370618403E+02 -0.10021143144E+03  0.10146762543E+03  0.00000000000E+00 0. -1.
<mgrwt>
<rscale>  1 0.12600963E+03</rscale>
<asrwt>0</asrwt>
<pdfrwt beam="1">  1       21 0.18508264E-02 0.12600963E+03</pdfrwt>
<pdfrwt beam="2">  1       21 0.69074022E-01 0.12600963E+03</pdfrwt>
<totfact> 0.26475388E+06</totfact>
</mgrwt>
</event>
<event>
 6    1  0.4259848E-002  0.1278281E+03  0.7546771E-02  0.1230715E+00
         21   -1    0    0  503  502  0.00000000000E+00  0.00000000000E+00  0.12716875142E+04  0.12716875142E+04  0.00000000000E+00 0. -1.
         21   -1    0    0  504  503 -0.00000000000E+00 -0.00000000000E+00 -0.72616126739E+02  0.72616126739E+02  0.00000000000E+00 0.  1.
         25    2    1    2    0    0 -0.24365536972E+02 -0.11010610279E+02  0.12658932920E+04  0.12723308693E+04  0.12500040460E+03 0.  0.
          5    1    3    3  501    0  0.85899741242E+01 -0.45631538964E+02  0.10577977929E+04  0.10588164174E+04  0.10000000000E+00 0. -1.
         -5    1    3    3    0  501 -0.32955511096E+02  0.34620928684E+02  0.20809549907E+03  0.21351445185E+03  0.10000000000E+00 0. -1.
         21    1    1    2  504  502  0.24365536972E+02  0.11010610279E+02 -0.66821904574E+02  0.71972771668E+02  0.00000000000E+00 0.  1.
<mgrwt>
<rscale>  1 0.12782806E+03</rscale>
<asrwt>0</asrwt>
<pdfrwt beam="1">  1       21 0.19564422E+00 0.12782806E+03</pdfrwt>
<pdfrwt beam="2">  1       21 0.11171713E-01 0.12782806E+03</pdfrwt>
<totfact> 0.10158901E+04</totfact>
</mgrwt>
</event>
<event>
 6    1  0.4259848E-002  0.1372497E+03  0.7546771E-02  0.1217078E+00
         21   -1    0    0  503  502  0.00000000000E+00  0.00000000000E+00  0.80491146016E+01  0.80491146016E+01  0.00000000000E+00 0. -1.
         21   -1    0    0  504  503 -0.00000000000E+00 -0.00000000000E+00 -0.15225350448E+04  0.15225350448E+04  0.00000000000E+00 0. -1.
         25    2    1    2    0    0 -0.55446252722E+02  0.11751388575E+02 -0.65467563857E+03  0.66890781665E+03  0.12500037344E+03 0.  0.
          5    1    3    3  501    0 -0.78461583416E+02  0.80794729951E+01 -0.22184292664E+03  0.23544806658E+03  0.10000000000E+00 0.  1.
         -5    1    3    3    0  501  0.23015330693E+02  0.36719155795E+01 -0.43283271193E+03  0.43345975007E+03  0.10000000000E+00 0.  1.
         21    1    1    2  504  502  0.55446252722E+02 -0.11751388575E+02 -0.85981029168E+03  0.86167634280E+03  0.00000000000E+00 0. -1.
<mgrwt>
<rscale>  1 0.13724968E+03</rscale>
<asrwt>0</asrwt>
<pdfrwt beam="1">  1       21 0.12383245E-02 0.13724968E+03</pdfrwt>
<pdfrwt beam="2">  1       21 0.23423632E+00 0.13724968E+03</pdfrwt>
<totfact> 0.22742819E+05</totfact>
</mgrwt>
</event>
<event>
 6    1  0.4259848E-002  0.1262875E+03  0.7546771E-02  0.1233071E+00
         21   -1    0    0  503  502  0.00000000000E+00  0.00000000000E+00  0.13601975318E+02  0.13601975318E+02  0.00000000000E+00 0.  1.
         21   -1    0    0  504  503 -0.00000000000E+00 -0.00000000000E+00 -0.64332335810E+03  0.64332335810E+03  0.00000000000E+00 0. -1.
         25    2    1    2    0    0 -0.15383380556E+02 -0.93589682500E+01 -0.28491353619E+03  0.31164763394E+03  0.12499714378E+03 0.  0.
          5    1    3    3  501    0 -0.14945882991E+02  0.41401232630E+02 -0.33913493083E+02  0.55565965255E+02  0.10000000000E+00 0. -1.
         -5    1    3    3    0  501 -0.43749756572E+00 -0.50760200880E+02 -0.25100004310E+03  0.25608166868E+03  0.10000000000E+00 0. -1.
         21    1    1    2  504  502  0.15383380556E+02  0.93589682500E+01 -0.34480784660E+03  0.34527769948E+03  0.00000000000E+00 0. -1.
<mgrwt>
<rscale>  1 0.12628747E+03</rscale>
<asrwt>0</asrwt>
<pdfrwt beam="1">  1       21 0.20926118E-02 0.12628747E+03</pdfrwt>
<pdfrwt beam="2">  1       21 0.98972816E-01 0.12628747E+03</pdfrwt>
<totfact> 0.96754637E+05</totfact>
</mgrwt>
</event>
<event>
 6    1  0.4259848E-002  0.1266946E+03  0.7546771E-02  0.1232444E+00
         21   -1    0    0  503  502  0.00000000000E+00  0.00000000000E+00  0.30648799653E+03  0.30648799653E+03  0.00000000000E+00 0. -1.
         21   -1    0    0  504  503 -0.00000000000E+00 -0.00000000000E+00 -0.59484343827E+02  0.59484343827E+02  0.00000000000E+00 0.  1.
         25    2    1    2    0    0 -0.78755489578E+01  0.19104739424E+02  0.29098951843E+03  0.31737427740E+03  0.12499806709E+03 0.  0.
          5    1    3    3  501    0 -0.37477179972E+02 -0.32534191804E+02  0.21602874025E+03  0.22165612843E+03  0.10000000000E+00 0.  1.
         -5    1    3    3    0  501  0.29601631014E+02  0.51638931227E+02  0.74960778183E+02  0.95718148972E+02  0.10000000000E+00 0.  1.
         21    1    1    2  504  502  0.78755489578E+01 -0.19104739424E+02 -0.43985865726E+02  0.48598062961E+02  0.00000000000E+00 0.  1.
<mgrwt>
<rscale>  1 0.12669464E+03</rscale>
<asrwt>0</asrwt>
<pdfrwt beam="1">  1       21 0.47151999E-01 0.12669464E+03</pdfrwt>
<pdfrwt beam="2">  1       21 0.91514377E-02 0.12669464E+03</pdfrwt>
<totfact> 0.41270777E+05</totfact>
</mgrwt>
</event>
<event>
 6    1  0.4259848E-002  0.1270251E+03  0.7546771E-02  0.1231938E+00
         21   -1    0    0  503  502  0.00000000000E+00  0.00000000000E+00  0.14549654727E+03  0.14549654727E+03  0.00000000000E+00 0. -1.
         21   -1    0    0  504  503 -0.00000000000E+00 -0.00000000000E+00 -0.14081323621E+03  0.14081323621E+03  0.00000000000E+00 0. -1.
         25    2    1    2    0    0 -0.39592242816E+01  0.22211318607E+02  0.11642793995E+03  0.17231030885E+03  0.12500543670E+03 0.  0.
          5    1    3    3  501    0  0.25818325576E+02  0.59425678003E+02  0.10486424641E+03  0.12326604284E+03  0.10000000000E+00 0. -1.
         -5    1    3    3    0  501 -0.29777549857E+02 -0.37214359396E+02  0.11563693536E+02  0.49044266015E+02  0.10000000000E+00 0. -1.
         21    1    1    2  504  502  0.39592242816E+01 -0.22211318607E+02 -0.11174462888E+03  0.11399947462E+03  0.00000000000E+00 0. -1.
<mgrwt>
<rscale>  1 0.12702511E+03</rscale>
<asrwt>0</asrwt>
<pdfrwt beam="1">  1       21 0.22384084E-01 0.12702511E+03</pdfrwt>
<pdfrwt beam="2">  1       21 0.21663575E-01 0.12702511E+03</pdfrwt>
<totfact> 0.37541500E+05</totfact>
</mgrwt>
</event>
<event>
 6    1  0.4259848E-002  0.1277523E+03  0.7546771E-02  0.1230829E+00
         21   -1    0    0  503  502  0.00000000000E+00  0.00000000000E+00  0.67625184830E+03  0.67625184830E+03  0.00000000000E+00 0.  1.
         21   -1    0    0  504  503 -0.00000000000E+00 -0.00000000000E+00 -0.18802997141E+02  0.18802997141E+02  0.00000000000E+00 0.  1.
         25    2    1    2    0    0  0.21694169703E+02 -0.15045213931E+02  0.65631166757E+03  0.66862969364E+03  0.12499466695E+03 0.  0.
          5    1    3    3  501    0  0.17795829132E+02  0.21495436701E+02  0.60430980385E+03  0.60495379523E+03  0.10000000000E+00 0. -1.
         -5    1    3    3    0  501  0.38983405711E+01 -0.36540650632E+02  0.52001863719E+02  0.63675898408E+02  0.10000000000E+00 0. -1.
         21    1    1    2  504  502 -0.21694169703E+02  0.15045213931E+02  0.11371835904E+01  0.26425151804E+02  0.00000000000E+00 0.  1.
<mgrwt>
<rscale>  1 0.12775235E+03</rscale>
<asrwt>0</asrwt>
<pdfrwt beam="1">  1       21 0.10403873E+00 0.12775235E+03</pdfrwt>
<pdfrwt beam="2">  1       21 0.28927693E-02 0.12775235E+03</pdfrwt>
<totfact> 0.50812740E+05</totfact>
</mgrwt>
</event>
<event>
 6    1  0.4259848E-002  0.1623214E+03  0.7546771E-02  0.1186101E+00
         21   -1    0    0  504  502  0.00000000000E+00  0.00000000000E+00  0.21016208372E+04  0.21016208372E+04  0.00000000000E+00 0.  1.
         21   -1    0    0  502  503 -0.00000000000E+00 -0.00000000000E+00 -0.39295556236E+03  0.39295556236E+03  0.00000000000E+00 0.  1.
         25    2    1    2    0    0 -0.52791921660E+02 -0.89085985163E+02  0.20915990301E+04  0.20978881584E+04  0.12499969216E+03 0.  0.
          5    1    3    3  501    0 -0.27623792908E+02 -0.62028404079E+02  0.38856452198E+03  0.39445277866E+03  0.10000000000E+00 0. -1.
         -5    1    3    3    0  501 -0.25168128752E+02 -0.27057581084E+02  0.17030345081E+04  0.17034353798E+04  0.10000000000E+00 0. -1.
         21    1    1    2  504  503  0.52791921660E+02  0.89085985163E+02 -0.38293375523E+03  0.39668824111E+03  0.00000000000E+00 0.  1.
<mgrwt>
<rscale>  1 0.16232136E+03</rscale>
<asrwt>0</asrwt>
<pdfrwt beam="1">  1       21 0.32332628E+00 0.16232136E+03</pdfrwt>
<pdfrwt beam="2">  1       21 0.60454703E-01 0.16232136E+03</pdfrwt>
<totfact> 0.67636880E+01</totfact>
</mgrwt>
</event>
<event>
 6    1  0.4259848E-002  0.1265028E+03  0.7546771E-02  0.1232739E+00
         21   -1    0    0  503  502  0.00000000000E+00  0.00000000000E+00  0.15885130766E+02  0.15885130766E+02  0.00000000000E+00 0.  1.
         21   -1    0    0  504  503 -0.00000000000E+00 -0.00000000000E+00 -0.74386318027E+03  0.74386318027E+03  0.00000000000E+00 0.  1.
         25    2    1    2    0    0  0.34152869663E+01 -0.19439611038E+02 -0.23936764534E+03  0.27073942593E+03  0.12495360920E+03 0.  0.
          5    1    3    3  501    0 -0.29743207533E+02 -0.51482478905E+02 -0.20439188028E+03  0.21286416973E+03  0.10000000000E+00 0. -1.
         -5    1    3    3    0  501  0.33158494499E+02  0.32042867867E+02 -0.34975765065E+02  0.57875256202E+02  0.10000000000E+00 0. -1.
         21    1    1    2  504  502 -0.34152869663E+01  0.19439611038E+02 -0.48861040416E+03  0.48900888511E+03  0.00000000000E+00 0.  1.
<mgrwt>
<rscale>  1 0.12650283E+03</rscale>
<asrwt>0</asrwt>
<pdfrwt beam="1">  1       21 0.24438659E-02 0.12650283E+03</pdfrwt>
<pdfrwt beam="2">  1       21 0.11444051E+00 0.12650283E+03</pdfrwt>
<totfact> 0.53314588E+05</totfact>
</mgrwt>
</event>
<event>
 6    1  0.4259848E-002  0.1266164E+03  0.7546771E-02  0.1232564E+00
         21   -1    0    0  504  502  0.00000000000E+00  0.00000000000E+00  0.14834655677E+03  0.14834655677E+03  0.00000000000E+00 0. -1.
         21   -1    0    0  502  503 -0.00000000000E+00 -0.00000000000E+00 -0.22729461124E+03  0.22729461124E+03  0.00000000000E+00 0. -1.
         25    2    1    2    0    0  0.68763879478E+01  0.18957064076E+02  0.12072855331E+03  0.17494885953E+03  0.12500025950E+03 0.  0.
          5    1    3    3  501    0 -0.38328984550E+02  0.46871030964E+02  0.10199636553E+03  0.11861396706E+03  0.10000000000E+00 0.  1.
         -5    1    3    3    0  501  0.45205372498E+02 -0.27913966888E+02  0.18732187775E+02  0.56334892464E+02  0.10000000000E+00 0.  1.
         21    1    1    2  504  503 -0.68763879478E+01 -0.18957064076E+02 -0.19967660778E+03  0.20069230848E+03  0.00000000000E+00 0. -1.
<mgrwt>
<rscale>  1 0.12661643E+03</rscale>
<asrwt>0</asrwt>
<pdfrwt beam="1">  1       21 0.22822547E-01 0.12661643E+03</pdfrwt>
<pdfrwt beam="2">  1       21 0.34968402E-01 0.12661643E+03</pdfrwt>
<totfact> 0.14507050E+05</totfact>
</mgrwt>
</event>
<event>
 6    1  0.4259848E-002  0.1260851E+03  0.7546771E-02  0.1233383E+00
         21   -1    0    0  504  502  0.00000000000E+00  0.00000000000E+00  0.36156969644E+03  0.36156969644E+03  0.00000000000E+00 0.  1.
         21   -1    0    0  502  503 -0.00000000000E+00 -0.00000000000E+00 -0.21208043570E+02  0.21208043570E+02  0.00000000000E+00 0.  1.
         25    2    1    2    0    0  0.14336378884E+02 -0.81685967349E+01  0.34356410158E+03  0.36596960478E+03  0.12500080798E+03 0.  0.
          5    1    3    3  501    0 -0.39253256936E+02 -0.37765537494E+02  0.23599634181E+03  0.24220102673E+03  0.10000000000E+00 0.  1.
         -5    1    3    3    0  501  0.53589635820E+02  0.29596940759E+02  0.10756775977E+03  0.12376857805E+03  0.10000000000E+00 0.  1.
         21    1    1    2  504  503 -0.14336378884E+02  0.81685967349E+01 -0.32024487131E+01  0.16808135229E+02  0.00000000000E+00 0.  1.
<mgrwt>
<rscale>  1 0.12608513E+03</rscale>
<asrwt>0</asrwt>
<pdfrwt beam="1">  1       21 0.55626103E-01 0.12608513E+03</pdfrwt>
<pdfrwt beam="2">  1       21 0.32627762E-02 0.12608513E+03</pdfrwt>
<totfact> 0.16718599E+06</totfact>
</mgrwt>
</event>
<event>
 6    1  0.4259848E-002  0.1354591E+03  0.7546771E-02  0.1219573E+00
         21   -1    0    0  504  502  0.00000000000E+00  0.00000000000E+00  0.32139644217E+03  0.32139644217E+03  0.00000000000E+00 0.  1.
         21   -1    0    0  502  503 -0.00000000000E+00 -0.00000000000E+00 -0.35775836936E+02  0.35775836936E+02  0.00000000000E+00 0.  1.
         25    2    1    2    0    0  0.50301871102E+02 -0.13914875703E+02  0.27100499392E+03  0.30297340369E+03  0.12500109844E+03 0.  0.
          5    1    3    3  501    0 -0.33069826828E+02 -0.10164396792E+02  0.23620740400E+02  0.41891261447E+02  0.10000000000E+00 0.  1.
         -5    1    3    3    0  501  0.83371697930E+02 -0.37504789115E+01  0.24738425352E+03  0.26108214225E+03  0.10000000000E+00 0.  1.
         21    1    1    2  504  503 -0.50301871102E+02  0.13914875703E+02  0.14615611312E+02  0.54198875415E+02  0.00000000000E+00 0.  1.
<mgrwt>
<rscale>  1 0.13545913E+03</rscale>
<asrwt>0</asrwt>
<pdfrwt beam="1">  1       21 0.49445605E-01 0.13545913E+03</pdfrwt>
<pdfrwt beam="2">  1       21 0.55039751E-02 0.13545913E+03</pdfrwt>
<totfact> 0.89403233E+05</totfact>
</mgrwt>
</event>
<event>
 6    1  0.4259848E-002  0.1277871E+03  0.7546771E-02  0.1230777E+00
         21   -1    0    0  504  502  0.00000000000E+00  0.00000000000E+00  0.43089180280E+03  0.43089180280E+03  0.00000000000E+00 0.  1.
         21   -1    0    0  502  503 -0.00000000000E+00 -0.00000000000E+00 -0.21942395463E+02  0.21942395463E+02  0.00000000000E+00 0.  1.
         25    2    1    2    0    0 -0.16542744700E+02 -0.20779480109E+02  0.40655650591E+03  0.42616633046E+03  0.12499639805E+03 0.  0.
          5    1    3    3  501    0  0.81187524030E+00  0.14197583100E+02 -0.31810270564E+01  0.14572557785E+02  0.10000000000E+00 0.  1.
         -5    1    3    3    0  501 -0.17354619940E+02 -0.34977063209E+02  0.40973753297E+03  0.41159377268E+03  0.10000000000E+00 0.  1.
         21    1    1    2  504  503  0.16542744700E+02  0.20779480109E+02  0.23929014261E+01  0.26667867801E+02  0.00000000000E+00 0.  1.
<mgrwt>
<rscale>  1 0.12778712E+03</rscale>
<asrwt>0</asrwt>
<pdfrwt beam="1">  1       21 0.66291041E-01 0.12778712E+03</pdfrwt>
<pdfrwt beam="2">  1       21 0.33757535E-02 0.12778712E+03</pdfrwt>
<totfact> 0.10886589E+06</totfact>
</mgrwt>
</event>
<event>
 6    1  0.4259848E-002  0.1259562E+03  0.7546771E-02  0.1233582E+00
         21   -1    0    0  503  502  0.00000000000E+00  0.00000000000E+00  0.96289225163E+02  0.96289225163E+02  0.00000000000E+00 0. -1.
         21   -1    0    0  504  503 -0.00000000000E+00 -0.00000000000E+00 -0.10112082781E+03  0.10112082781E+03  0.00000000000E+00 0. -1.
         25    2    1    2    0    0  0.15190259779E+02 -0.32062311153E+01  0.53647585083E+02  0.13690518286E+03  0.12499576712E+03 0.  0.
          5    1    3    3  501    0  0.22639312542E+02  0.25000169766E+02  0.86575108538E+02  0.92912896732E+02  0.10000000000E+00 0.  1.
         -5    1    3    3    0  501 -0.74490527630E+01 -0.28206400881E+02 -0.32927523455E+02  0.43992286126E+02  0.10000000000E+00 0.  1.
         21    1    1    2  504  502 -0.15190259779E+02  0.32062311153E+01 -0.58479187732E+02  0.60504870118E+02  0.00000000000E+00 0. -1.
<mgrwt>
<rscale>  1 0.12595621E+03</rscale>
<asrwt>0</asrwt>
<pdfrwt beam="1">  1       21 0.14813727E-01 0.12595621E+03</pdfrwt>
<pdfrwt beam="2">  1       21 0.15557050E-01 0.12595621E+03</pdfrwt>
<totfact> 0.14678992E+06</totfact>
</mgrwt>
</event>
<event>
 6    1  0.4259848E-002  0.1261650E+03  0.7546771E-02  0.1233260E+00
         21   -1    0    0  503  502  0.00000000000E+00  0.00000000000E+00  0.44319867727E+03  0.44319867727E+03  0.00000000000E+00 0. -1.
         21   -1    0    0  504  503 -0.00000000000E+00 -0.00000000000E+00 -0.15048203462E+03  0.15048203462E+03  0.00000000000E+00 0.  1.
         25    2    1    2    0    0 -0.16023716710E+02  0.61133627898E+01  0.43368961750E+03  0.45166834504E+03  0.12499390738E+03 0.  0.
          5    1    3    3  501    0 -0.38004664500E+02  0.12066707588E+02  0.42565627964E+03  0.42751986895E+03  0.10000000000E+00 0.  1.
         -5    1    3    3    0  501  0.21980947789E+02 -0.59533447984E+01  0.80333378595E+01  0.24148476084E+02  0.10000000000E+00 0.  1.
         21    1    1    2  504  502  0.16023716710E+02 -0.61133627898E+01 -0.14097297485E+03  0.14201236686E+03  0.00000000000E+00 0.  1.
<mgrwt>
<rscale>  1 0.12616501E+03</rscale>
<asrwt>0</asrwt>
<pdfrwt beam="1">  1       21 0.68184411E-01 0.12616501E+03</pdfrwt>
<pdfrwt beam="2">  1       21 0.23151083E-01 0.12616501E+03</pdfrwt>
<totfact> 0.35731975E+04</totfact>
</mgrwt>
</event>
<event>
 6    1  0.4259848E-002  0.1349601E+03  0.7546771E-02  0.1220276E+00
         21   -1    0    0  504  502  0.00000000000E+00  0.00000000000E+00  0.34782975943E+03  0.34782975943E+03  0.00000000000E+00 0.  1.
         21   -1    0    0  502  503 -0.00000000000E+00 -0.00000000000E+00 -0.75855721014E+02  0.75855721014E+02  0.00000000000E+00 0.  1.
         25    2    1    2    0    0 -0.25138325557E+01 -0.50842970350E+02  0.32394705411E+03  0.35093576328E+03  0.12499155609E+03 0.  0.
          5    1    3    3  501    0 -0.46791296711E+02 -0.61286272471E+02  0.26775877721E+03  0.27863992072E+03  0.10000000000E+00 0.  1.
         -5    1    3    3    0  501  0.44277464155E+02  0.10443302122E+02  0.56188276898E+02  0.72295842563E+02  0.10000000000E+00 0.  1.
         21    1    1    2  504  503  0.25138325557E+01  0.50842970350E+02 -0.51973015692E+02  0.72749717169E+02  0.00000000000E+00 0.  1.
<mgrwt>
<rscale>  1 0.13496005E+03</rscale>
<asrwt>0</asrwt>
<pdfrwt beam="1">  1       21 0.53512270E-01 0.13496005E+03</pdfrwt>
<pdfrwt beam="2">  1       21 0.11670111E-01 0.13496005E+03</pdfrwt>
<totfact> 0.20714106E+05</totfact>
</mgrwt>
</event>
<event>
 6    1  0.4259848E-002  0.1338940E+03  0.7546771E-02  0.1221790E+00
         21   -1    0    0  503  502  0.00000000000E+00  0.00000000000E+00  0.22616860803E+02  0.22616860803E+02  0.00000000000E+00 0. -1.
         21   -1    0    0  504  503 -0.00000000000E+00 -0.00000000000E+00 -0.89421608471E+03  0.89421608471E+03  0.00000000000E+00 0. -1.
         25    2    1    2    0    0 -0.47014193374E+01  0.47736352810E+02 -0.18398656380E+03  0.22754923537E+03  0.12500694435E+03 0.  0.
          5    1    3    3  501    0 -0.57290148391E+01  0.50528624517E+01 -0.18468953787E+03  0.18484747341E+03  0.10000000000E+00 0.  1.
         -5    1    3    3    0  501  0.10275955016E+01  0.42683490358E+02  0.70297406919E+00  0.42701761957E+02  0.10000000000E+00 0.  1.
         21    1    1    2  504  502  0.47014193374E+01 -0.47736352810E+02 -0.68761266011E+03  0.68928371014E+03  0.00000000000E+00 0. -1.
<mgrwt>
<rscale>  1 0.13389398E+03</rscale>
<asrwt>0</asrwt>
<pdfrwt beam="1">  1       21 0.34795171E-02 0.13389398E+03</pdfrwt>
<pdfrwt beam="2">  1       21 0.13757170E+00 0.13389398E+03</pdfrwt>
<totfact> 0.18938172E+05</totfact>
</mgrwt>
</event>
<event>
 6    1  0.4259848E-002  0.1277304E+03  0.7546771E-02  0.1230863E+00
         21   -1    0    0  503  502  0.00000000000E+00  0.00000000000E+00  0.39113380615E+02  0.39113380615E+02  0.00000000000E+00 0. -1.
         21   -1    0    0  504  503 -0.00000000000E+00 -0.00000000000E+00 -0.17035320638E+03  0.17035320638E+03  0.00000000000E+00 0. -1.
         25    2    1    2    0    0 -0.20149886499E+02  0.16827018903E+02 -0.76835262606E+02  0.14905944351E+03  0.12500357447E+03 0.  0.
          5    1    3    3  501    0 -0.40953652087E+02 -0.45950617379E+02 -0.38977568729E+02  0.72855485180E+02  0.10000000000E+00 0.  1.
         -5    1    3    3    0  501  0.20803765589E+02  0.62777636282E+02 -0.37857693877E+02  0.76203958332E+02  0.10000000000E+00 0.  1.
         21    1    1    2  504  502  0.20149886499E+02 -0.16827018903E+02 -0.54404563161E+02  0.60407143483E+02  0.00000000000E+00 0. -1.
<mgrwt>
<rscale>  1 0.12773042E+03</rscale>
<asrwt>0</asrwt>
<pdfrwt beam="1">  1       21 0.60174432E-02 0.12773042E+03</pdfrwt>
<pdfrwt beam="2">  1       21 0.26208186E-01 0.12773042E+03</pdfrwt>
<totfact> 0.26911531E+06</totfact>
</mgrwt>
</event>
<event>
 6    1  0.4259848E-002  0.1333543E+03  0.7546771E-02  0.1222562E+00
         21   -1    0    0  504  502  0.00000000000E+00  0.00000000000E+00  0.36722512345E+03  0.36722512345E+03  0.00000000000E+00 0. -1.
         21   -1    0    0  502  503 -0.00000000000E+00 -0.00000000000E+00 -0.92456105867E+02  0.92456105867E+02  0.00000000000E+00 0. -1.
         25    2    1    2    0    0 -0.44870757833E+02  0.11266469437E+02  0.34821626675E+03  0.37287790766E+03  0.12507216854E+03 0.  0.
          5    1    3    3  501    0  0.26468720807E+02 -0.78928369840E+01  0.24159408228E+03  0.24316784460E+03  0.10000000000E+00 0.  1.
         -5    1    3    3    0  501 -0.71339478640E+02  0.19159306421E+02  0.10662218448E+03  0.12971006305E+03  0.10000000000E+00 0.  1.
         21    1    1    2  504  503  0.44870757833E+02 -0.11266469437E+02 -0.73447249166E+02  0.86803321665E+02  0.00000000000E+00 0. -1.
<mgrwt>
<rscale>  1 0.13335429E+03</rscale>
<asrwt>0</asrwt>
<pdfrwt beam="1">  1       21 0.56496172E-01 0.13335429E+03</pdfrwt>
<pdfrwt beam="2">  1       21 0.14224016E-01 0.13335429E+03</pdfrwt>
<totfact> 0.12997378E+05</totfact>
</mgrwt>
</event>
<event>
 6    1  0.4259848E-002  0.1281459E+03  0.7546771E-02  0.1230233E+00
         21   -1    0    0  503  502  0.00000000000E+00  0.00000000000E+00  0.56775936938E+02  0.56775936938E+02  0.00000000000E+00 0. -1.
         21   -1    0    0  504  503 -0.00000000000E+00 -0.00000000000E+00 -0.24143299962E+03  0.24143299962E+03  0.00000000000E+00 0. -1.
         25    2    1    2    0    0 -0.28092952406E+02  0.24086890990E+01 -0.18260499189E+02  0.12944036099E+03  0.12500538174E+03 0.  0.
          5    1    3    3  501    0 -0.92112646888E+01 -0.26875244509E+02  0.47311189609E+02  0.55185911488E+02  0.10000000000E+00 0.  1.
         -5    1    3    3    0  501 -0.18881687717E+02  0.29283933608E+02 -0.65571688798E+02  0.74254449499E+02  0.10000000000E+00 0.  1.
         21    1    1    2  504  502  0.28092952406E+02 -0.24086890990E+01 -0.16639656349E+03  0.16876857557E+03  0.00000000000E+00 0. -1.
<mgrwt>
<rscale>  1 0.12814586E+03</rscale>
<asrwt>0</asrwt>
<pdfrwt beam="1">  1       21 0.87347597E-02 0.12814586E+03</pdfrwt>
<pdfrwt beam="2">  1       21 0.37143538E-01 0.12814586E+03</pdfrwt>
<totfact> 0.72296441E+05</totfact>
</mgrwt>
</event>
<event>
 6    1  0.4259848E-002  0.1279327E+03  0.7546771E-02  0.1230556E+00
         21   -1    0    0  504  502  0.00000000000E+00  0.00000000000E+00  0.55900246954E+03  0.55900246954E+03  0.00000000000E+00 0. -1.
         21   -1    0    0  502  503 -0.00000000000E+00 -0.00000000000E+00 -0.13467649701E+02  0.13467649701E+02  0.00000000000E+00 0. -1.
         25    2    1    2    0    0 -0.16093600862E+02 -0.21933625714E+02  0.51875128455E+03  0.53429361222E+03  0.12500672347E+03 0.  0.
          5    1    3    3  501    0 -0.33993885056E+02  0.36820140622E+02  0.10904240945E+03  0.12000651664E+03  0.10000000000E+00 0.  1.
         -5    1    3    3    0  501  0.17900284194E+02 -0.58753766336E+02  0.40970887509E+03  0.41428709558E+03  0.10000000000E+00 0.  1.
         21    1    1    2  504  503  0.16093600862E+02  0.21933625714E+02  0.26783535296E+02  0.38176507025E+02  0.00000000000E+00 0. -1.
<mgrwt>
<rscale>  1 0.12793267E+03</rscale>
<asrwt>0</asrwt>
<pdfrwt beam="1">  1       21 0.86000362E-01 0.12793267E+03</pdfrwt>
<pdfrwt beam="2">  1       21 0.20719465E-02 0.12793267E+03</pdfrwt>
<totfact> 0.13577845E+06</totfact>
</mgrwt>
</event>
<event>
 6    1  0.4259848E-002  0.1566765E+03  0.7546771E-02  0.1192501E+00
         21   -1    0    0  503  502  0.00000000000E+00  0.00000000000E+00  0.47859237452E+03  0.47859237452E+03  0.00000000000E+00 0. -1.
         21   -1    0    0  504  503 -0.00000000000E+00 -0.00000000000E+00 -0.47072506686E+03  0.47072506686E+03  0.00000000000E+00 0. -1.
         25    2    1    2    0    0 -0.20549523663E+02  0.92197487551E+02  0.46076480674E+03  0.48667416162E+03  0.12499949132E+03 0.  0.
          5    1    3    3  501    0 -0.47948702006E+02  0.11144856962E+03  0.32701112386E+03  0.34879241222E+03  0.10000000000E+00 0. -1.
         -5    1    3    3    0  501  0.27399178344E+02 -0.19251082073E+02  0.13375368287E+03  0.13788174940E+03  0.10000000000E+00 0. -1.
         21    1    1    2  504  502  0.20549523663E+02 -0.92197487551E+02 -0.45289749908E+03  0.46264327976E+03  0.00000000000E+00 0. -1.
<mgrwt>
<rscale>  1 0.15667652E+03</rscale>
<asrwt>0</asrwt>
<pdfrwt beam="1">  1       21 0.73629597E-01 0.15667652E+03</pdfrwt>
<pdfrwt beam="2">  1       21 0.72419240E-01 0.15667652E+03</pdfrwt>
<totfact> 0.29432838E+03</totfact>
</mgrwt>
</event>
<event>
 6    1  0.4259848E-002  0.1269239E+03  0.7546771E-02  0.1232093E+00
         21   -1    0    0  503  502  0.00000000000E+00  0.00000000000E+00  0.55727202238E+01  0.55727202238E+01  0.00000000000E+00 0. -1.
         21   -1    0    0  504  503 -0.00000000000E+00 -0.00000000000E+00 -0.16740271641E+04  0.16740271641E+04  0.00000000000E+00 0. -1.
         25    2    1    2    0    0  0.21954685496E+02 -0.15924574545E+01 -0.73447783472E+03  0.74536391274E+03  0.12500051438E+03 0.  0.
          5    1    3    3  501    0  0.63367589254E+02  0.32208276837E+02 -0.48849060193E+03  0.49363539443E+03  0.10000000000E+00 0. -1.
         -5    1    3    3    0  501 -0.41412903758E+02 -0.33800734292E+02 -0.24598723279E+03  0.25172851831E+03  0.10000000000E+00 0. -1.
         21    1    1    2  504  502 -0.21954685496E+02  0.15924574545E+01 -0.93397660916E+03  0.93423597158E+03  0.00000000000E+00 0. -1.
<mgrwt>
<rscale>  1 0.12692389E+03</rscale>
<asrwt>0</asrwt>
<pdfrwt beam="1">  1       21 0.85734050E-03 0.12692389E+03</pdfrwt>
<pdfrwt beam="2">  1       21 0.25754296E+00 0.12692389E+03</pdfrwt>
<totfact> 0.30012561E+05</totfact>
</mgrwt>
</event>
<event>
 6    1  0.4259848E-002  0.1280474E+03  0.7546771E-02  0.1230382E+00
         21   -1    0    0  504  502  0.00000000000E+00  0.00000000000E+00  0.18105459089E+03  0.18105459089E+03  0.00000000000E+00 0. -1.
         21   -1    0    0  502  503 -0.00000000000E+00 -0.00000000000E+00 -0.35506980920E+02  0.35506980920E+02  0.00000000000E+00 0. -1.
         25    2    1    2    0    0  0.22810518484E+02 -0.15900373200E+02  0.13688107394E+03  0.18743683201E+03  0.12499198363E+03 0.  0.
          5    1    3    3  501    0 -0.44587819638E+02  0.18421862547E+02  0.31105524630E+02  0.57402110957E+02  0.10000000000E+00 0.  1.
         -5    1    3    3    0  501  0.67398338123E+02 -0.34322235747E+02  0.10577554931E+03  0.13003472106E+03  0.10000000000E+00 0.  1.
         21    1    1    2  504  503 -0.22810518484E+02  0.15900373200E+02  0.86665360281E+01  0.29124739796E+02  0.00000000000E+00 0.  1.
<mgrwt>
<rscale>  1 0.12804740E+03</rscale>
<asrwt>0</asrwt>
<pdfrwt beam="1">  1       21 0.27854552E-01 0.12804740E+03</pdfrwt>
<pdfrwt beam="2">  1       21 0.54626126E-02 0.12804740E+03</pdfrwt>
<totfact> 0.28223053E+06</totfact>
</mgrwt>
</event>
<event>
 6    1  0.4259848E-002  0.1268636E+03  0.7546771E-02  0.1232185E+00
         21   -1    0    0  504  502  0.00000000000E+00  0.00000000000E+00  0.43972428431E+02  0.43972428431E+02  0.00000000000E+00 0. -1.
         21   -1    0    0  502  503 -0.00000000000E+00 -0.00000000000E+00 -0.12568988174E+03  0.12568988174E+03  0.00000000000E+00 0. -1.
         25    2    1    2    0    0 -0.68439862387E+01 -0.20547357080E+02 -0.66911210410E+02  0.14342762208E+03  0.12500135466E+03 0.  0.
          5    1    3    3  501    0  0.12102734041E+02  0.35741171995E+02  0.16374498848E+02  0.41134435202E+02  0.10000000000E+00 0.  1.
         -5    1    3    3    0  501 -0.18946720280E+02 -0.56288529074E+02 -0.83285709258E+02  0.10229318688E+03  0.10000000000E+00 0.  1.
         21    1    1    2  504  503  0.68439862387E+01  0.20547357080E+02 -0.14806242901E+02  0.26234688095E+02  0.00000000000E+00 0. -1.
<mgrwt>
<rscale>  1 0.12686360E+03</rscale>
<asrwt>0</asrwt>
<pdfrwt beam="1">  1       21 0.67649892E-02 0.12686360E+03</pdfrwt>
<pdfrwt beam="2">  1       21 0.19336904E-01 0.12686360E+03</pdfrwt>
<totfact> 0.38922323E+06</totfact>
</mgrwt>
</event>
<event>
 6    1  0.4259848E-002  0.1261161E+03  0.7546771E-02  0.1233335E+00
         21   -1    0    0  503  502  0.00000000000E+00  0.00000000000E+00  0.12186140488E+04  0.12186140488E+04  0.00000000000E+00 0.  1.
         21   -1    0    0  504  503 -0.00000000000E+00 -0.00000000000E+00 -0.41907177690E+01  0.41907177690E+01  0.00000000000E+00 0.  1.
         25    2    1    2    0    0 -0.84113637866E+01  0.14492796409E+02  0.10822474666E+04  0.10895709446E+04  0.12499788831E+03 0.  0.
          5    1    3    3  501    0  0.21334357495E+02  0.59486577159E+02  0.37665371009E+03  0.38191862353E+03  0.10000000000E+00 0. -1.
         -5    1    3    3    0  501 -0.29745721282E+02 -0.44993780750E+02  0.70559375654E+03  0.70765232106E+03  0.10000000000E+00 0. -1.
         21    1    1    2  504  502  0.84113637866E+01 -0.14492796409E+02  0.13217586441E+03  0.13323382198E+03  0.00000000000E+00 0.  1.
<mgrwt>
<rscale>  1 0.12611607E+03</rscale>
<asrwt>0</asrwt>
<pdfrwt beam="1">  1       21 0.18747880E+00 0.12611607E+03</pdfrwt>
<pdfrwt beam="2">  1       21 0.64472678E-03 0.12611607E+03</pdfrwt>
<totfact> 0.12354180E+06</totfact>
</mgrwt>
</event>
<event>
 6    1  0.4259848E-002  0.1284577E+03  0.7546771E-02  0.1229762E+00
         21   -1    0    0  504  502  0.00000000000E+00  0.00000000000E+00  0.16182893691E+03  0.16182893691E+03  0.00000000000E+00 0.  1.
         21   -1    0    0  502  503 -0.00000000000E+00 -0.00000000000E+00 -0.42210757131E+02  0.42210757131E+02  0.00000000000E+00 0.  1.
         25    2    1    2    0    0 -0.23241870030E+02  0.18332940793E+02  0.70078935952E+02  0.14632992087E+03  0.12500042895E+03 0.  0.
          5    1    3    3  501    0  0.14223479229E+02  0.20263980504E+02  0.97029121892E+02  0.10013788875E+03  0.10000000000E+00 0. -1.
         -5    1    3    3    0  501 -0.37465349259E+02 -0.19310397110E+01 -0.26950185940E+02  0.46192032123E+02  0.10000000000E+00 0. -1.
         21    1    1    2  504  503  0.23241870030E+02 -0.18332940793E+02  0.49539243822E+02  0.57709773168E+02  0.00000000000E+00 0.  1.
<mgrwt>
<rscale>  1 0.12845773E+03</rscale>
<asrwt>0</asrwt>
<pdfrwt beam="1">  1       21 0.24896759E-01 0.12845773E+03</pdfrwt>
<pdfrwt beam="2">  1       21 0.64939627E-02 0.12845773E+03</pdfrwt>
<totfact> 0.26061140E+06</totfact>
</mgrwt>
</event>
<event>
 6    1  0.4259848E-002  0.1423146E+03  0.7546771E-02  0.1210248E+00
         21   -1    0    0  503  502  0.00000000000E+00  0.00000000000E+00  0.11203144581E+03  0.11203144581E+03  0.00000000000E+00 0. -1.
         21   -1    0    0  504  503 -0.00000000000E+00 -0.00000000000E+00 -0.11809795880E+03  0.11809795880E+03  0.00000000000E+00 0. -1.
         25    2    1    2    0    0  0.63895580435E+02  0.23348304788E+02  0.40171117741E+02  0.14787548657E+03  0.12500260914E+03 0.  0.
          5    1    3    3  501    0  0.61837114901E+01 -0.42747595578E+02 -0.13210207857E+02  0.45167630081E+02  0.10000000000E+00 0.  1.
         -5    1    3    3    0  501  0.57711868945E+02  0.66095900366E+02  0.53381325598E+02  0.10270785649E+03  0.10000000000E+00 0.  1.
         21    1    1    2  504  502 -0.63895580435E+02 -0.23348304788E+02 -0.46237630732E+02  0.82253918030E+02  0.00000000000E+00 0. -1.
<mgrwt>
<rscale>  1 0.14231458E+03</rscale>
<asrwt>0</asrwt>
<pdfrwt beam="1">  1       21 0.17235607E-01 0.14231458E+03</pdfrwt>
<pdfrwt beam="2">  1       21 0.18168917E-01 0.14231458E+03</pdfrwt>
<totfact> 0.84177230E+05</totfact>
</mgrwt>
</event>
<event>
 6    1  0.4259848E-002  0.1262177E+03  0.7546771E-02  0.1233178E+00
         21   -1    0    0  503  502  0.00000000000E+00  0.00000000000E+00  0.46703950932E+02  0.46703950932E+02  0.00000000000E+00 0. -1.
         21   -1    0    0  504  503 -0.00000000000E+00 -0.00000000000E+00 -0.26372866611E+03  0.26372866611E+03  0.00000000000E+00 0. -1.
         25    2    1    2    0    0  0.13846201933E+02 -0.10702207568E+02 -0.39797278483E+02  0.13234326062E+03  0.12499864280E+03 0.  0.
          5    1    3    3  501    0  0.52921767997E+02  0.35809249056E+02 -0.30796937810E+02  0.70932906499E+02  0.10000000000E+00 0.  1.
         -5    1    3    3    0  501 -0.39075566064E+02 -0.46511456624E+02 -0.90003406733E+01  0.61410354117E+02  0.10000000000E+00 0.  1.
         21    1    1    2  504  502 -0.13846201933E+02  0.10702207568E+02 -0.17722743670E+03  0.17808935643E+03  0.00000000000E+00 0. -1.
<mgrwt>
<rscale>  1 0.12621773E+03</rscale>
<asrwt>0</asrwt>
<pdfrwt beam="1">  1       21 0.71852231E-02 0.12621773E+03</pdfrwt>
<pdfrwt beam="2">  1       21 0.40573642E-01 0.12621773E+03</pdfrwt>
<totfact> 0.84889085E+05</totfact>
</mgrwt>
</event>
<event>
 6    1  0.4259848E-002  0.1266961E+03  0.7546771E-02  0.1232442E+00
         21   -1    0    0  503  502  0.00000000000E+00  0.00000000000E+00  0.49446762971E+03  0.49446762971E+03  0.00000000000E+00 0.  1.
         21   -1    0    0  504  503 -0.00000000000E+00 -0.00000000000E+00 -0.15517777299E+02  0.15517777299E+02  0.00000000000E+00 0.  1.
         25    2    1    2    0    0  0.19769127150E+02 -0.61177980756E+01  0.47112167746E+03  0.48786016882E+03  0.12499465393E+03 0.  0.
          5    1    3    3  501    0 -0.40401488546E+02  0.10905341783E+01  0.35098423827E+03  0.35330357351E+03  0.10000000000E+00 0. -1.
         -5    1    3    3    0  501  0.60170615696E+02 -0.72083322539E+01  0.12013743919E+03  0.13455659531E+03  0.10000000000E+00 0. -1.
         21    1    1    2  504  502 -0.19769127150E+02  0.61177980756E+01  0.78281749477E+01  0.22125238181E+02  0.00000000000E+00 0.  1.
<mgrwt>
<rscale>  1 0.12669613E+03</rscale>
<asrwt>0</asrwt>
<pdfrwt beam="1">  1       21 0.76071931E-01 0.12669613E+03</pdfrwt>
<pdfrwt beam="2">  1       21 0.23873507E-02 0.12669613E+03</pdfrwt>
<totfact> 0.14202166E+06</totfact>
</mgrwt>
</event>
<event>
 6    1  0.4259848E-002  0.1288945E+03  0.7546771E-02  0.1229105E+00
         21   -1    0    0  503  502  0.00000000000E+00  0.00000000000E+00  0.13796574007E+03  0.13796574007E+03  0.00000000000E+00 0.  1.
         21   -1    0    0  504  503 -0.00000000000E+00 -0.00000000000E+00 -0.22312140019E+03  0.22312140019E+03  0.00000000000E+00 0.  1.
         25    2    1    2    0    0  0.24508139799E+02  0.19694355028E+02  0.10629619468E+03  0.16707082847E+03  0.12500105674E+03 0.  0.
          5    1    3    3  501    0  0.29163501923E+02 -0.16359592259E+02 -0.17714673581E+02  0.37841323489E+02  0.10000000000E+00 0. -1.
         -5    1    3    3    0  501 -0.46553621240E+01  0.36053947287E+02  0.12401086826E+03  0.12922950498E+03  0.10000000000E+00 0. -1.
         21    1    1    2  504  502 -0.24508139799E+02 -0.19694355028E+02 -0.19145185480E+03  0.19401631179E+03  0.00000000000E+00 0.  1.
<mgrwt>
<rscale>  1 0.12889446E+03</rscale>
<asrwt>0</asrwt>
<pdfrwt beam="1">  1       21 0.21225499E-01 0.12889446E+03</pdfrwt>
<pdfrwt beam="2">  1       21 0.34326369E-01 0.12889446E+03</pdfrwt>
<totfact> 0.17212004E+05</totfact>
</mgrwt>
</event>
<event>
 6    1  0.4259848E-002  0.1261832E+03  0.7546771E-02  0.1233232E+00
         21   -1    0    0  504  502  0.00000000000E+00  0.00000000000E+00  0.19284942251E+04  0.19284942251E+04  0.00000000000E+00 0. -1.
         21   -1    0    0  502  503 -0.00000000000E+00 -0.00000000000E+00 -0.22742378601E+03  0.22742378601E+03  0.00000000000E+00 0.  1.
         25    2    1    2    0    0 -0.77996721638E+00 -0.17198667260E+02  0.19261009918E+04  0.19302298365E+04  0.12500315402E+03 0.  0.
          5    1    3    3  501    0  0.25350419855E+02 -0.66011185136E+02  0.11191187298E+04  0.11213504634E+04  0.10000000000E+00 0.  1.
         -5    1    3    3    0  501 -0.26130387071E+02  0.48812517876E+02  0.80698226201E+03  0.80887937310E+03  0.10000000000E+00 0.  1.
         21    1    1    2  504  503  0.77996721638E+00  0.17198667260E+02 -0.22503055272E+03  0.22568817462E+03  0.00000000000E+00 0.  1.
<mgrwt>
<rscale>  1 0.12618316E+03</rscale>
<asrwt>0</asrwt>
<pdfrwt beam="1">  1       21 0.29669141E+00 0.12618316E+03</pdfrwt>
<pdfrwt beam="2">  1       21 0.34988276E-01 0.12618316E+03</pdfrwt>
<totfact> 0.31683161E+02</totfact>
</mgrwt>
</event>
<event>
 6    1  0.4259848E-002  0.1263566E+03  0.7546771E-02  0.1232964E+00
         21   -1    0    0  503  502  0.00000000000E+00  0.00000000000E+00  0.22449660507E+02  0.22449660507E+02  0.00000000000E+00 0.  1.
         21   -1    0    0  504  503 -0.00000000000E+00 -0.00000000000E+00 -0.47097068815E+03  0.47097068815E+03  0.00000000000E+00 0.  1.
         25    2    1    2    0    0 -0.53893404873E+01  0.17645970723E+02 -0.15798880662E+03  0.20230285223E+03  0.12500222290E+03 0.  0.
          5    1    3    3  501    0  0.22230123439E+02  0.19593644412E+02  0.10587848714E+02  0.31467472568E+02  0.10000000000E+00 0. -1.
         -5    1    3    3    0  501 -0.27619463926E+02 -0.19476736897E+01 -0.16857665534E+03  0.17083537966E+03  0.10000000000E+00 0. -1.
         21    1    1    2  504  502  0.53893404873E+01 -0.17645970723E+02 -0.29053222102E+03  0.29111749642E+03  0.00000000000E+00 0.  1.
<mgrwt>
<rscale>  1 0.12635656E+03</rscale>
<asrwt>0</asrwt>
<pdfrwt beam="1">  1       21 0.34537942E-02 0.12635656E+03</pdfrwt>
<pdfrwt beam="2">  1       21 0.72457022E-01 0.12635656E+03</pdfrwt>
<totfact> 0.86392766E+05</totfact>
</mgrwt>
</event>
<event>
 6    1  0.4259848E-002  0.1274261E+03  0.7546771E-02  0.1231326E+00
         21   -1    0    0  503  502  0.00000000000E+00  0.00000000000E+00  0.36086660713E+03  0.36086660713E+03  0.00000000000E+00 0. -1.
         21   -1    0    0  504  503 -0.00000000000E+00 -0.00000000000E+00 -0.16087942312E+02  0.16087942312E+02  0.00000000000E+00 0. -1.
         25    2    1    2    0    0  0.20597821579E+02 -0.13763825662E+02  0.29531807920E+03  0.32163671615E+03  0.12499478438E+03 0.  0.
          5    1    3    3  501    0  0.46320135814E+02 -0.54052741762E+02  0.11638029393E+03  0.13642447247E+03  0.10000000000E+00 0. -1.
         -5    1    3    3    0  501 -0.25722314235E+02  0.40288916100E+02  0.17893778527E+03  0.18521224368E+03  0.10000000000E+00 0. -1.
         21    1    1    2  504  502 -0.20597821579E+02  0.13763825662E+02  0.49460585615E+02  0.55317833291E+02  0.00000000000E+00 0.  1.
<mgrwt>
<rscale>  1 0.12742609E+03</rscale>
<asrwt>0</asrwt>
<pdfrwt beam="1">  1       21 0.55517934E-01 0.12742609E+03</pdfrwt>
<pdfrwt beam="2">  1       21 0.24750683E-02 0.12742609E+03</pdfrwt>
<totfact> 0.26384758E+06</totfact>
</mgrwt>
</event>
<event>
 6    1  0.4259848E-002  0.1489038E+03  0.7546771E-02  0.1201826E+00
         21   -1    0    0  504  502  0.00000000000E+00  0.00000000000E+00  0.39334011984E+02  0.39334011984E+02  0.00000000000E+00 0. -1.
         21   -1    0    0  502  503 -0.00000000000E+00 -0.00000000000E+00 -0.33570684304E+03  0.33570684304E+03  0.00000000000E+00 0. -1.
         25    2    1    2    0    0 -0.13573082001E+02 -0.79761507027E+02 -0.19024196930E+03  0.24158716877E+03  0.12500490659E+03 0.  0.
          5    1    3    3  501    0 -0.48096324928E+02 -0.52049197655E+02 -0.18362400083E+03  0.19682519942E+03  0.10000000000E+00 0.  1.
         -5    1    3    3    0  501  0.34523242926E+02 -0.27712309373E+02 -0.66179684719E+01  0.44761969345E+02  0.10000000000E+00 0.  1.
         21    1    1    2  504  503  0.13573082001E+02  0.79761507027E+02 -0.10613086176E+03  0.13345368626E+03  0.00000000000E+00 0. -1.
<mgrwt>
<rscale>  1 0.14890384E+03</rscale>
<asrwt>0</asrwt>
<pdfrwt beam="1">  1       21 0.60513865E-02 0.14890384E+03</pdfrwt>
<pdfrwt beam="2">  1       21 0.51647206E-01 0.14890384E+03</pdfrwt>
<totfact> 0.69533369E+05</totfact>
</mgrwt>
</event>
<event>
 6    1  0.4259848E-002  0.1477910E+03  0.7546771E-02  0.1203214E+00
         21   -1    0    0  504  502  0.00000000000E+00  0.00000000000E+00  0.29756731731E+03  0.29756731731E+03  0.00000000000E+00 0.  1.
         21   -1    0    0  502  503 -0.00000000000E+00 -0.00000000000E+00 -0.45864373167E+02  0.45864373167E+02  0.00000000000E+00 0.  1.
         25    2    1    2    0    0  0.68778206495E+02 -0.38572791003E+02  0.12201021971E+03  0.19164728856E+03  0.12499555033E+03 0.  0.
          5    1    3    3  501    0 -0.42181534779E+01  0.55569993467E+01  0.10429501235E+03  0.10452814291E+03  0.10000000000E+00 0.  1.
         -5    1    3    3    0  501  0.72996359973E+02 -0.44129790350E+02  0.17715207360E+02  0.87119145642E+02  0.10000000000E+00 0.  1.
         21    1    1    2  504  503 -0.68778206495E+02  0.38572791003E+02  0.12969272443E+03  0.15178440192E+03  0.00000000000E+00 0.  1.
<mgrwt>
<rscale>  1 0.14779103E+03</rscale>
<asrwt>0</asrwt>
<pdfrwt beam="1">  1       21 0.45779586E-01 0.14779103E+03</pdfrwt>
<pdfrwt beam="2">  1       21 0.70560576E-02 0.14779103E+03</pdfrwt>
<totfact> 0.68576938E+05</totfact>
</mgrwt>
</event>
<event>
 6    1  0.4259848E-002  0.1281214E+03  0.7546771E-02  0.1230270E+00
         21   -1    0    0  503  502  0.00000000000E+00  0.00000000000E+00  0.24940804548E+03  0.24940804548E+03  0.00000000000E+00 0.  1.
         21   -1    0    0  504  503 -0.00000000000E+00 -0.00000000000E+00 -0.77376514493E+02  0.77376514493E+02  0.00000000000E+00 0.  1.
         25    2    1    2    0    0  0.28053071188E+02  0.13264503271E+01  0.22948866730E+03  0.26283100818E+03  0.12500542456E+03 0.  0.
          5    1    3    3  501    0  0.40608178612E+02 -0.44828384247E+02  0.19416832708E+03  0.20337147648E+03  0.10000000000E+00 0. -1.
         -5    1    3    3    0  501 -0.12555107424E+02  0.46154834574E+02  0.35320340225E+02  0.59459531705E+02  0.10000000000E+00 0. -1.
         21    1    1    2  504  502 -0.28053071188E+02 -0.13264503271E+01 -0.57457136313E+02  0.63953551793E+02  0.00000000000E+00 0.  1.
<mgrwt>
<rscale>  1 0.12812139E+03</rscale>
<asrwt>0</asrwt>
<pdfrwt beam="1">  1       21 0.38370468E-01 0.12812139E+03</pdfrwt>
<pdfrwt beam="2">  1       21 0.11904079E-01 0.12812139E+03</pdfrwt>
<totfact> 0.39414184E+05</totfact>
</mgrwt>
</event>
<event>
 6    1  0.4259848E-002  0.1259558E+03  0.7546771E-02  0.1233583E+00
         21   -1    0    0  503  502  0.00000000000E+00  0.00000000000E+00  0.63077774113E+03  0.63077774113E+03  0.00000000000E+00 0.  1.
         21   -1    0    0  504  503 -0.00000000000E+00 -0.00000000000E+00 -0.79472734808E+01  0.79472734808E+01  0.00000000000E+00 0.  1.
         25    2    1    2    0    0  0.12529322500E+02 -0.92315120724E+01  0.54707853440E+03  0.56139093332E+03  0.12499060957E+03 0.  0.
          5    1    3    3  501    0  0.29050366184E+02  0.16731463288E+02  0.35279114265E+02  0.48667150548E+02  0.10000000000E+00 0.  1.
         -5    1    3    3    0  501 -0.16521043683E+02 -0.25962975360E+02  0.51179942013E+03  0.51272378278E+03  0.10000000000E+00 0.  1.
         21    1    1    2  504  502 -0.12529322500E+02  0.92315120724E+01  0.75751933254E+02  0.77334081291E+02  0.00000000000E+00 0.  1.
<mgrwt>
<rscale>  1 0.12595577E+03</rscale>
<asrwt>0</asrwt>
<pdfrwt beam="1">  1       21 0.97042690E-01 0.12595577E+03</pdfrwt>
<pdfrwt beam="2">  1       21 0.12226580E-02 0.12595577E+03</pdfrwt>
<totfact> 0.23929751E+06</totfact>
</mgrwt>
</event>
<event>
 6    1  0.4259848E-002  0.1362767E+03  0.7546771E-02  0.1218429E+00
         21   -1    0    0  503  502  0.00000000000E+00  0.00000000000E+00  0.21527816370E+03  0.21527816370E+03  0.00000000000E+00 0. -1.
         21   -1    0    0  504  503 -0.00000000000E+00 -0.00000000000E+00 -0.42164308669E+02  0.42164308669E+02  0.00000000000E+00 0. -1.
         25    2    1    2    0    0  0.31054646594E+02 -0.44500551031E+02  0.12293302657E+03  0.18353167706E+03  0.12500662922E+03 0.  0.
          5    1    3    3  501    0  0.15984461940E+02 -0.87772922835E+02  0.92562943508E+02  0.12855931517E+03  0.10000000000E+00 0. -1.
         -5    1    3    3    0  501  0.15070184655E+02  0.43272371804E+02  0.30370083058E+02  0.54972361892E+02  0.10000000000E+00 0. -1.
         21    1    1    2  504  502 -0.31054646594E+02  0.44500551031E+02  0.50180828463E+02  0.73910795304E+02  0.00000000000E+00 0. -1.
<mgrwt>
<rscale>  1 0.13627673E+03</rscale>
<asrwt>0</asrwt>
<pdfrwt beam="1">  1       21 0.33119717E-01 0.13627673E+03</pdfrwt>
<pdfrwt beam="2">  1       21 0.64868168E-02 0.13627673E+03</pdfrwt>
<totfact> 0.15113933E+06</totfact>
</mgrwt>
</event>
<event>
 6    1  0.4259848E-002  0.1273869E+03  0.7546771E-02  0.1231385E+00
         21   -1    0    0  504  502  0.00000000000E+00  0.00000000000E+00  0.19211570045E+02  0.19211570045E+02  0.00000000000E+00 0. -1.
         21   -1    0    0  502  503 -0.00000000000E+00 -0.00000000000E+00 -0.30063819592E+03  0.30063819592E+03  0.00000000000E+00 0. -1.
         25    2    1    2    0    0  0.24127072801E+02 -0.43569158020E+01 -0.23178626211E+03  0.26448493894E+03  0.12500525295E+03 0.  0.
          5    1    3    3  501    0  0.31582583735E+02 -0.59870791177E+02 -0.94769099345E+02  0.11646099528E+03  0.10000000000E+00 0. -1.
         -5    1    3    3    0  501 -0.74555109343E+01  0.55513875375E+02 -0.13701716277E+03  0.14802394366E+03  0.10000000000E+00 0. -1.
         21    1    1    2  504  503 -0.24127072801E+02  0.43569158020E+01 -0.49640363761E+02  0.55364827026E+02  0.00000000000E+00 0.  1.
<mgrwt>
<rscale>  1 0.12738686E+03</rscale>
<asrwt>0</asrwt>
<pdfrwt beam="1">  1       21 0.29556264E-02 0.12738686E+03</pdfrwt>
<pdfrwt beam="2">  1       21 0.46252027E-01 0.12738686E+03</pdfrwt>
<totfact> 0.28804117E+06</totfact>
</mgrwt>
</event>
<event>
 6    1  0.4259848E-002  0.1274648E+03  0.7546771E-02  0.1231267E+00
         21   -1    0    0  503  502  0.00000000000E+00  0.00000000000E+00  0.40192563867E+02  0.40192563867E+02  0.00000000000E+00 0. -1.
         21   -1    0    0  504  503 -0.00000000000E+00 -0.00000000000E+00 -0.36032643995E+03  0.36032643995E+03  0.00000000000E+00 0. -1.
         25    2    1    2    0    0  0.15717574115E+02 -0.19372805224E+02 -0.63011147350E+02  0.14218889456E+03  0.12499971731E+03 0.  0.
          5    1    3    3  501    0  0.30426246418E+02 -0.57020085684E+02 -0.75971336353E+02  0.99743173149E+02  0.10000000000E+00 0. -1.
         -5    1    3    3    0  501 -0.14708672303E+02  0.37647280461E+02  0.12960189003E+02  0.42445721410E+02  0.10000000000E+00 0. -1.
         21    1    1    2  504  502 -0.15717574115E+02  0.19372805224E+02 -0.25712272873E+03  0.25833010926E+03  0.00000000000E+00 0. -1.
<mgrwt>
<rscale>  1 0.12746481E+03</rscale>
<asrwt>0</asrwt>
<pdfrwt beam="1">  1       21 0.61834715E-02 0.12746481E+03</pdfrwt>
<pdfrwt beam="2">  1       21 0.55434835E-01 0.12746481E+03</pdfrwt>
<totfact> 0.57889263E+05</totfact>
</mgrwt>
</event>
<event>
 6    1  0.4259848E-002  0.1313295E+03  0.7546771E-02  0.1225496E+00
         21   -1    0    0  503  502  0.00000000000E+00  0.00000000000E+00  0.98097944173E+02  0.98097944173E+02  0.00000000000E+00 0.  1.
         21   -1    0    0  504  503 -0.00000000000E+00 -0.00000000000E+00 -0.90849611659E+02  0.90849611659E+02  0.00000000000E+00 0.  1.
         25    2    1    2    0    0 -0.53303591046E+01 -0.39929597793E+02  0.39721439659E+02  0.13720503757E+03  0.12499857623E+03 0.  0.
          5    1    3    3  501    0 -0.62621217754E+02 -0.22834670646E+02  0.23443425479E+01  0.66695914706E+02  0.10000000000E+00 0.  1.
         -5    1    3    3    0  501  0.57290858650E+02 -0.17094927148E+02  0.37377097111E+02  0.70509122867E+02  0.10000000000E+00 0.  1.
         21    1    1    2  504  502  0.53303591046E+01  0.39929597793E+02 -0.32473107146E+02  0.51742518259E+02  0.00000000000E+00 0. -1.
<mgrwt>
<rscale>  1 0.13132947E+03</rscale>
<asrwt>0</asrwt>
<pdfrwt beam="1">  1       21 0.15091991E-01 0.13132947E+03</pdfrwt>
<pdfrwt beam="2">  1       21 0.13976863E-01 0.13132947E+03</pdfrwt>
<totfact> 0.17229989E+06</totfact>
</mgrwt>
</event>
<event>
 6    1  0.4259848E-002  0.1260569E+03  0.7546771E-02  0.1233427E+00
         21   -1    0    0  504  502  0.00000000000E+00  0.00000000000E+00  0.22790140930E+02  0.22790140930E+02  0.00000000000E+00 0. -1.
         21   -1    0    0  502  503 -0.00000000000E+00 -0.00000000000E+00 -0.69821451449E+03  0.69821451449E+03  0.00000000000E+00 0. -1.
         25    2    1    2    0    0  0.15976445675E+02  0.30802586334E+01 -0.15262137891E+03  0.19794853412E+03  0.12500240818E+03 0.  0.
          5    1    3    3  501    0  0.54946686973E+02  0.43160369899E+02 -0.91337242618E+02  0.11499764271E+03  0.10000000000E+00 0.  1.
         -5    1    3    3    0  501 -0.38970241298E+02 -0.40080111266E+02 -0.61284136290E+02  0.82950891416E+02  0.10000000000E+00 0.  1.
         21    1    1    2  504  503 -0.15976445675E+02 -0.30802586334E+01 -0.52280299465E+03  0.52305612129E+03  0.00000000000E+00 0. -1.
<mgrwt>
<rscale>  1 0.12605688E+03</rscale>
<asrwt>0</asrwt>
<pdfrwt beam="1">  1       21 0.35061758E-02 0.12605688E+03</pdfrwt>
<pdfrwt beam="2">  1       21 0.10741761E+00 0.12605688E+03</pdfrwt>
<totfact> 0.34348884E+05</totfact>
</mgrwt>
</event>
<event>
 6    1  0.4259848E-002  0.1270056E+03  0.7546771E-02  0.1231968E+00
         21   -1    0    0  504  502  0.00000000000E+00  0.00000000000E+00  0.23507769424E+02  0.23507769424E+02  0.00000000000E+00 0. -1.
         21   -1    0    0  502  503 -0.00000000000E+00 -0.00000000000E+00 -0.26108920899E+03  0.26108920899E+03  0.00000000000E+00 0. -1.
         25    2    1    2    0    0 -0.21560614248E+02  0.62972641650E+01 -0.16259690686E+03  0.20632057221E+03  0.12500363505E+03 0.  0.
          5    1    3    3  501    0 -0.28919714596E+02 -0.53300755645E+02 -0.11377885806E+03  0.12893005463E+03  0.10000000000E+00 0.  1.
         -5    1    3    3    0  501  0.73591003478E+01  0.59598019810E+02 -0.48818048796E+02  0.77390517581E+02  0.10000000000E+00 0.  1.
         21    1    1    2  504  503  0.21560614248E+02 -0.62972641650E+01 -0.74984532705E+02  0.78276406201E+02  0.00000000000E+00 0. -1.
<mgrwt>
<rscale>  1 0.12700561E+03</rscale>
<asrwt>0</asrwt>
<pdfrwt beam="1">  1       21 0.36165796E-02 0.12700561E+03</pdfrwt>
<pdfrwt beam="2">  1       21 0.40167574E-01 0.12700561E+03</pdfrwt>
<totfact> 0.27469747E+06</totfact>
</mgrwt>
</event>
<event>
 6    1  0.4259848E-002  0.1259942E+03  0.7546771E-02  0.1233524E+00
         21   -1    0    0  504  502  0.00000000000E+00  0.00000000000E+00  0.14920927499E+03  0.14920927499E+03  0.00000000000E+00 0.  1.
         21   -1    0    0  502  503 -0.00000000000E+00 -0.00000000000E+00 -0.34794205040E+02  0.34794205040E+02  0.00000000000E+00 0.  1.
         25    2    1    2    0    0  0.70455166027E+01  0.14145887082E+02  0.11082018825E+03  0.16779642601E+03  0.12499912413E+03 0.  0.
          5    1    3    3  501    0  0.29034587670E+02 -0.49397820803E+02  0.63759637987E+02  0.85723120670E+02  0.10000000000E+00 0.  1.
         -5    1    3    3    0  501 -0.21989071068E+02  0.63543707884E+02  0.47060550259E+02  0.82073305336E+02  0.10000000000E+00 0.  1.
         21    1    1    2  504  503 -0.70455166027E+01 -0.14145887082E+02  0.35948816987E+01  0.16207054018E+02  0.00000000000E+00 0.  1.
<mgrwt>
<rscale>  1 0.12599415E+03</rscale>
<asrwt>0</asrwt>
<pdfrwt beam="1">  1       21 0.22955273E-01 0.12599415E+03</pdfrwt>
<pdfrwt beam="2">  1       21 0.53529547E-02 0.12599415E+03</pdfrwt>
<totfact> 0.42079494E+06</totfact>
</mgrwt>
</event>
<event>
 6    1  0.4259848E-002  0.1263869E+03  0.7546771E-02  0.1232918E+00
         21   -1    0    0  503  502  0.00000000000E+00  0.00000000000E+00  0.24799319826E+03  0.24799319826E+03  0.00000000000E+00 0. -1.
         21   -1    0    0  504  503 -0.00000000000E+00 -0.00000000000E+00 -0.28697158716E+03  0.28697158716E+03  0.00000000000E+00 0. -1.
         25    2    1    2    0    0 -0.81464667468E+01 -0.16808046135E+02  0.23154733685E+03  0.26379501640E+03  0.12499906456E+03 0.  0.
          5    1    3    3  501    0 -0.16973844337E+01  0.37295504792E+02  0.19415484936E+03  0.19771178853E+03  0.10000000000E+00 0. -1.
         -5    1    3    3    0  501 -0.64490823131E+01 -0.54103550927E+02  0.37392487487E+02  0.66083227873E+02  0.10000000000E+00 0. -1.
         21    1    1    2  504  502  0.81464667468E+01  0.16808046135E+02 -0.27052572575E+03  0.27116976902E+03  0.00000000000E+00 0. -1.
<mgrwt>
<rscale>  1 0.12638687E+03</rscale>
<asrwt>0</asrwt>
<pdfrwt beam="1">  1       21 0.38152800E-01 0.12638687E+03</pdfrwt>
<pdfrwt beam="2">  1       21 0.44149475E-01 0.12638687E+03</pdfrwt>
<totfact> 0.33895757E+04</totfact>
</mgrwt>
</event>
<event>
 6    1  0.4259848E-002  0.1270796E+03  0.7546771E-02  0.1231854E+00
         21   -1    0    0  503  502  0.00000000000E+00  0.00000000000E+00  0.73036890803E+02  0.73036890803E+02  0.00000000000E+00 0. -1.
         21   -1    0    0  504  503 -0.00000000000E+00 -0.00000000000E+00 -0.13203971905E+03  0.13203971905E+03  0.00000000000E+00 0. -1.
         25    2    1    2    0    0 -0.21154901240E+02 -0.82616019960E+01  0.14725223049E+02  0.12792993486E+03  0.12503380394E+03 0.  0.
          5    1    3    3  501    0 -0.18011580822E+02  0.54552255666E+02 -0.13469320192E+02  0.59006764260E+02  0.10000000000E+00 0. -1.
         -5    1    3    3    0  501 -0.31433204180E+01 -0.62813857662E+02  0.28194543240E+02  0.68923170604E+02  0.10000000000E+00 0. -1.
         21    1    1    2  504  502  0.21154901240E+02  0.82616019960E+01 -0.73728051297E+02  0.77146674990E+02  0.00000000000E+00 0. -1.
<mgrwt>
<rscale>  1 0.12707964E+03</rscale>
<asrwt>0</asrwt>
<pdfrwt beam="1">  1       21 0.11236445E-01 0.12707964E+03</pdfrwt>
<pdfrwt beam="2">  1       21 0.20313803E-01 0.12707964E+03</pdfrwt>
<totfact> 0.14747374E+06</totfact>
</mgrwt>
</event>
<event>
 6    1  0.4259848E-002  0.1409702E+03  0.7546771E-02  0.1212029E+00
         21   -1    0    0  503  502  0.00000000000E+00  0.00000000000E+00  0.52130373789E+02  0.52130373789E+02  0.00000000000E+00 0.  1.
         21   -1    0    0  504  503 -0.00000000000E+00 -0.00000000000E+00 -0.28684967962E+03  0.28684967962E+03  0.00000000000E+00 0.  1.
         25    2    1    2    0    0  0.65053625223E+02 -0.41046350316E+01 -0.61311765619E+02  0.15372618115E+03  0.12499513585E+03 0.  0.
          5    1    3    3  501    0 -0.23066075289E+02 -0.10640931755E+02  0.21005387209E+02  0.32962244305E+02  0.10000000000E+00 0. -1.
         -5    1    3    3    0  501  0.88119700512E+02  0.65362967237E+01 -0.82317152827E+02  0.12076393685E+03  0.10000000000E+00 0. -1.
         21    1    1    2  504  502 -0.65053625223E+02  0.41046350316E+01 -0.17340754021E+03  0.18525387226E+03  0.00000000000E+00 0.  1.
<mgrwt>
<rscale>  1 0.14097023E+03</rscale>
<asrwt>0</asrwt>
<pdfrwt beam="1">  1       21 0.80200576E-02 0.14097023E+03</pdfrwt>
<pdfrwt beam="2">  1       21 0.44130720E-01 0.14097023E+03</pdfrwt>
<totfact> 0.59292461E+05</totfact>
</mgrwt>
</event>
<event>
 6    1  0.4259848E-002  0.1282082E+03  0.7546771E-02  0.1230139E+00
         21   -1    0    0  503  502  0.00000000000E+00  0.00000000000E+00  0.30794944353E+02  0.30794944353E+02  0.00000000000E+00 0.  1.
         21   -1    0    0  504  503 -0.00000000000E+00 -0.00000000000E+00 -0.40954612764E+03  0.40954612764E+03  0.00000000000E+00 0.  1.
         25    2    1    2    0    0  0.18832630264E+02  0.21300350540E+02 -0.10667682455E+03  0.16678517354E+03  0.12501590427E+03 0.  0.
          5    1    3    3  501    0 -0.32604686035E+02  0.48166333593E+02 -0.18144031466E+02  0.60928459041E+02  0.10000000000E+00 0. -1.
         -5    1    3    3    0  501  0.51437316299E+02 -0.26865983054E+02 -0.88532793084E+02  0.10585671450E+03  0.10000000000E+00 0. -1.
         21    1    1    2  504  502 -0.18832630264E+02 -0.21300350540E+02 -0.27207435873E+03  0.27355589845E+03  0.00000000000E+00 0.  1.
<mgrwt>
<rscale>  1 0.12820823E+03</rscale>
<asrwt>0</asrwt>
<pdfrwt beam="1">  1       21 0.47376836E-02 0.12820823E+03</pdfrwt>
<pdfrwt beam="2">  1       21 0.63007099E-01 0.12820823E+03</pdfrwt>
<totfact> 0.69156615E+05</totfact>
</mgrwt>
</event>
<event>
 6    1  0.4259848E-002  0.1262340E+03  0.7546771E-02  0.1233153E+00
         21   -1    0    0  504  502  0.00000000000E+00  0.00000000000E+00  0.69282655985E+03  0.69282655985E+03  0.00000000000E+00 0. -1.
         21   -1    0    0  502  503 -0.00000000000E+00 -0.00000000000E+00 -0.16659828517E+02  0.16659828517E+02  0.00000000000E+00 0. -1.
         25    2    1    2    0    0  0.33886126355E+01  0.17331199637E+02  0.67983044125E+03  0.69145098022E+03  0.12499270386E+03 0.  0.
          5    1    3    3  501    0  0.79699179291E+01  0.63200333457E+00 -0.28968181524E+01  0.85041504819E+01  0.10000000000E+00 0.  1.
         -5    1    3    3    0  501 -0.45813052936E+01  0.16699196303E+02  0.68272725941E+03  0.68294682974E+03  0.10000000000E+00 0.  1.
         21    1    1    2  504  503 -0.33886126355E+01 -0.17331199637E+02 -0.36637099229E+01  0.18035408142E+02  0.00000000000E+00 0. -1.
<mgrwt>
<rscale>  1 0.12623403E+03</rscale>
<asrwt>0</asrwt>
<pdfrwt beam="1">  1       21 0.10658868E+00 0.12623403E+03</pdfrwt>
<pdfrwt beam="2">  1       21 0.25630511E-02 0.12623403E+03</pdfrwt>
<totfact> 0.58471229E+05</totfact>
</mgrwt>
</event>
<event>
 6    1  0.4259848E-002  0.1286324E+03  0.7546771E-02  0.1229499E+00
         21   -1    0    0  503  502  0.00000000000E+00  0.00000000000E+00  0.42918338051E+02  0.42918338051E+02  0.00000000000E+00 0.  1.
         21   -1    0    0  504  503 -0.00000000000E+00 -0.00000000000E+00 -0.15594011775E+03  0.15594011775E+03  0.00000000000E+00 0.  1.
         25    2    1    2    0    0 -0.23833465329E+01 -0.30277824263E+02 -0.70744920016E+02  0.14680310211E+03  0.12499552032E+03 0.  0.
          5    1    3    3  501    0 -0.35618137502E+02 -0.41403446107E+02 -0.91141111412E+02  0.10625257295E+03  0.10000000000E+00 0.  1.
         -5    1    3    3    0  501  0.33234790969E+02  0.11125621844E+02  0.20396191396E+02  0.40550529166E+02  0.10000000000E+00 0.  1.
         21    1    1    2  504  502  0.23833465329E+01  0.30277824263E+02 -0.42276859680E+02  0.52055353684E+02  0.00000000000E+00 0.  1.
<mgrwt>
<rscale>  1 0.12863245E+03</rscale>
<asrwt>0</asrwt>
<pdfrwt beam="1">  1       21 0.66028213E-02 0.12863245E+03</pdfrwt>
<pdfrwt beam="2">  1       21 0.23990787E-01 0.12863245E+03</pdfrwt>
<totfact> 0.27168069E+06</totfact>
</mgrwt>
</event>
<event>
 6    1  0.4259848E-002  0.1431796E+03  0.7546771E-02  0.1209113E+00
         21   -1    0    0  504  502  0.00000000000E+00  0.00000000000E+00  0.64289531343E+02  0.64289531343E+02  0.00000000000E+00 0.  1.
         21   -1    0    0  502  503 -0.00000000000E+00 -0.00000000000E+00 -0.18857749648E+03  0.18857749648E+03  0.00000000000E+00 0.  1.
         25    2    1    2    0    0 -0.62776014479E+02 -0.30539082448E+02 -0.11245323529E+03  0.18206078247E+03  0.12500773911E+03 0.  0.
          5    1    3    3  501    0  0.29866709313E+02  0.21225570339E+02 -0.35074597608E+02  0.50722604023E+02  0.10000000000E+00 0. -1.
         -5    1    3    3    0  501 -0.92642723792E+02 -0.51764652787E+02 -0.77378637677E+02  0.13133817845E+03  0.10000000000E+00 0. -1.
         21    1    1    2  504  503  0.62776014479E+02  0.30539082448E+02 -0.11834729856E+02  0.70806245356E+02  0.00000000000E+00 0.  1.
<mgrwt>
<rscale>  1 0.14317960E+03</rscale>
<asrwt>0</asrwt>
<pdfrwt beam="1">  1       21 0.98906972E-02 0.14317960E+03</pdfrwt>
<pdfrwt beam="2">  1       21 0.29011922E-01 0.14317960E+03</pdfrwt>
<totfact> 0.94312042E+05</totfact>
</mgrwt>
</event>
<event>
 6    1  0.4259848E-002  0.1285381E+03  0.7546771E-02  0.1229641E+00
         21   -1    0    0  504  502  0.00000000000E+00  0.00000000000E+00  0.41189507911E+03  0.41189507911E+03  0.00000000000E+00 0. -1.
         21   -1    0    0  502  503 -0.00000000000E+00 -0.00000000000E+00 -0.16236990591E+02  0.16236990591E+02  0.00000000000E+00 0. -1.
         25    2    1    2    0    0  0.23580256474E+02 -0.18479851292E+02  0.27120183353E+03  0.30012077018E+03  0.12499803512E+03 0.  0.
          5    1    3    3  501    0 -0.42816893680E+02 -0.30356826252E+02  0.17447144975E+03  0.18219528002E+03  0.10000000000E+00 0.  1.
         -5    1    3    3    0  501  0.66397150153E+02  0.11876974960E+02  0.96730383782E+02  0.11792549016E+03  0.10000000000E+00 0.  1.
         21    1    1    2  504  503 -0.23580256474E+02  0.18479851292E+02  0.12445625499E+03  0.12801129952E+03  0.00000000000E+00 0. -1.
<mgrwt>
<rscale>  1 0.12853810E+03</rscale>
<asrwt>0</asrwt>
<pdfrwt beam="1">  1       21 0.63368466E-01 0.12853810E+03</pdfrwt>
<pdfrwt beam="2">  1       21 0.24979989E-02 0.12853810E+03</pdfrwt>
<totfact> 0.19642788E+06</totfact>
</mgrwt>
</event>
<event>
 6    1  0.4259848E-002  0.1682442E+03  0.7546771E-02  0.1179691E+00
         21   -1    0    0  504  502  0.00000000000E+00  0.00000000000E+00  0.43807212110E+02  0.43807212110E+02  0.00000000000E+00 0.  1.
         21   -1    0    0  502  503 -0.00000000000E+00 -0.00000000000E+00 -0.48023101886E+03  0.48023101886E+03  0.00000000000E+00 0.  1.
         25    2    1    2    0    0 -0.86082237925E+02 -0.72603527229E+02 -0.19437349077E+03  0.25707422718E+03  0.12499872205E+03 0.  0.
          5    1    3    3  501    0 -0.10711680609E+03 -0.69002524728E+02 -0.10475977020E+03  0.16495447256E+03  0.10000000000E+00 0. -1.
         -5    1    3    3    0  501  0.21034568163E+02 -0.36010025004E+01 -0.89613720572E+02  0.92119754622E+02  0.10000000000E+00 0. -1.
         21    1    1    2  504  503  0.86082237925E+02  0.72603527229E+02 -0.24205031598E+03  0.26696400379E+03  0.00000000000E+00 0.  1.
<mgrwt>
<rscale>  1 0.16824418E+03</rscale>
<asrwt>0</asrwt>
<pdfrwt beam="1">  1       21 0.67395711E-02 0.16824418E+03</pdfrwt>
<pdfrwt beam="2">  1       21 0.73881696E-01 0.16824418E+03</pdfrwt>
<totfact> 0.26726931E+05</totfact>
</mgrwt>
</event>
<event>
 6    1  0.4259848E-002  0.1323517E+03  0.7546771E-02  0.1224007E+00
         21   -1    0    0  504  502  0.00000000000E+00  0.00000000000E+00  0.11834249394E+03  0.11834249394E+03  0.00000000000E+00 0.  1.
         21   -1    0    0  502  503 -0.00000000000E+00 -0.00000000000E+00 -0.65441079446E+02  0.65441079446E+02  0.00000000000E+00 0.  1.
         25    2    1    2    0    0  0.39481899578E+02 -0.17623564893E+02  0.45262294140E+02  0.13987723451E+03  0.12509018758E+03 0.  0.
          5    1    3    3  501    0 -0.82428995199E+01 -0.55964629345E+02  0.53799275506E+02  0.78066363917E+02  0.10000000000E+00 0.  1.
         -5    1    3    3    0  501  0.47724799098E+02  0.38341064452E+02 -0.85369813665E+01  0.61810870590E+02  0.10000000000E+00 0.  1.
         21    1    1    2  504  503 -0.39481899578E+02  0.17623564893E+02  0.76391203533E+01  0.43906338877E+02  0.00000000000E+00 0.  1.
<mgrwt>
<rscale>  1 0.13235167E+03</rscale>
<asrwt>0</asrwt>
<pdfrwt beam="1">  1       21 0.18206537E-01 0.13235167E+03</pdfrwt>
<pdfrwt beam="2">  1       21 0.10067858E-01 0.13235167E+03</pdfrwt>
<totfact> 0.21907361E+06</totfact>
</mgrwt>
</event>
<event>
 6    1  0.4259848E-002  0.1264356E+03  0.7546771E-02  0.1232843E+00
         21   -1    0    0  504  502  0.00000000000E+00  0.00000000000E+00  0.20012360163E+03  0.20012360163E+03  0.00000000000E+00 0. -1.
         21   -1    0    0  502  503 -0.00000000000E+00 -0.00000000000E+00 -0.28247435957E+02  0.28247435957E+02  0.00000000000E+00 0. -1.
         25    2    1    2    0    0  0.23390200677E+01  0.18864703301E+02  0.16560741704E+03  0.20835491271E+03  0.12499842010E+03 0.  0.
          5    1    3    3  501    0  0.15780056034E+01  0.64292189627E+02  0.42383248645E+02  0.77021591223E+02  0.10000000000E+00 0.  1.
         -5    1    3    3    0  501  0.76101446438E+00 -0.45427486326E+02  0.12322416839E+03  0.13133332149E+03  0.10000000000E+00 0.  1.
         21    1    1    2  504  503 -0.23390200677E+01 -0.18864703301E+02  0.62687486291E+01  0.20016124872E+02  0.00000000000E+00 0. -1.
<mgrwt>
<rscale>  1 0.12643557E+03</rscale>
<asrwt>0</asrwt>
<pdfrwt beam="1">  1       21 0.30788245E-01 0.12643557E+03</pdfrwt>
<pdfrwt beam="2">  1       21 0.43457595E-02 0.12643557E+03</pdfrwt>
<totfact> 0.34145977E+06</totfact>
</mgrwt>
</event>
<event>
 6    1  0.4259848E-002  0.1279442E+03  0.7546771E-02  0.1230538E+00
         21   -1    0    0  504  502  0.00000000000E+00  0.00000000000E+00  0.11407122202E+04  0.11407122202E+04  0.00000000000E+00 0. -1.
         21   -1    0    0  502  503 -0.00000000000E+00 -0.00000000000E+00 -0.53794426899E+01  0.53794426899E+01  0.00000000000E+00 0. -1.
         25    2    1    2    0    0  0.27378463944E+02  0.14715124242E+01  0.98554237646E+03  0.99381261022E+03  0.12497192800E+03 0.  0.
          5    1    3    3  501    0 -0.46013356698E+02  0.91358919629E+01  0.55622999301E+03  0.55820471929E+03  0.10000000000E+00 0.  1.
         -5    1    3    3    0  501  0.73391820642E+02 -0.76643795387E+01  0.42931238345E+03  0.43560789092E+03  0.10000000000E+00 0.  1.
         21    1    1    2  504  503 -0.27378463944E+02 -0.14715124242E+01  0.14979040107E+03  0.15227905270E+03  0.00000000000E+00 0. -1.
<mgrwt>
<rscale>  1 0.12794424E+03</rscale>
<asrwt>0</asrwt>
<pdfrwt beam="1">  1       21 0.17549400E+00 0.12794424E+03</pdfrwt>
<pdfrwt beam="2">  1       21 0.82760747E-03 0.12794424E+03</pdfrwt>
<totfact> 0.10045365E+06</totfact>
</mgrwt>
</event>
<event>
 6    1  0.4259848E-002  0.1271685E+03  0.7546771E-02  0.1231719E+00
         21   -1    0    0  504  502  0.00000000000E+00  0.00000000000E+00  0.25491830979E+03  0.25491830979E+03  0.00000000000E+00 0.  1.
         21   -1    0    0  502  503 -0.00000000000E+00 -0.00000000000E+00 -0.16812213106E+03  0.16812213106E+03  0.00000000000E+00 0. -1.
         25    2    1    2    0    0  0.21945407403E+02 -0.80705903006E+01  0.23810441582E+03  0.26993616937E+03  0.12500034948E+03 0.  0.
          5    1    3    3  501    0  0.63661020232E+02  0.16525953651E+02  0.19246140486E+03  0.20338936797E+03  0.10000000000E+00 0. -1.
         -5    1    3    3    0  501 -0.41715612829E+02 -0.24596543951E+02  0.45643010957E+02  0.66546801405E+02  0.10000000000E+00 0. -1.
         21    1    1    2  504  503 -0.21945407403E+02  0.80705903006E+01 -0.15130823709E+03  0.15310427147E+03  0.00000000000E+00 0. -1.
<mgrwt>
<rscale>  1 0.12716848E+03</rscale>
<asrwt>0</asrwt>
<pdfrwt beam="1">  1       21 0.39218201E-01 0.12716848E+03</pdfrwt>
<pdfrwt beam="2">  1       21 0.25864943E-01 0.12716848E+03</pdfrwt>
<totfact> 0.91333530E+04</totfact>
</mgrwt>
</event>
<event>
 6    1  0.4259848E-002  0.1285295E+03  0.7546771E-02  0.1229654E+00
         21   -1    0    0  503  502  0.00000000000E+00  0.00000000000E+00  0.12101243159E+03  0.12101243159E+03  0.00000000000E+00 0.  1.
         21   -1    0    0  504  503 -0.00000000000E+00 -0.00000000000E+00 -0.10519738817E+03  0.10519738817E+03  0.00000000000E+00 0.  1.
         25    2    1    2    0    0 -0.27375549054E+02  0.12063028912E+02  0.82770579580E+02  0.15287509964E+03  0.12499955957E+03 0.  0.
          5    1    3    3  501    0  0.47934817699E+02  0.57212510612E+01  0.12947517114E+02  0.49981273103E+02  0.10000000000E+00 0. -1.
         -5    1    3    3    0  501 -0.75310366753E+02  0.63417778510E+01  0.69823062466E+02  0.10289382653E+03  0.10000000000E+00 0. -1.
         21    1    1    2  504  502  0.27375549054E+02 -0.12063028912E+02 -0.66955536166E+02  0.73334720125E+02  0.00000000000E+00 0.  1.
<mgrwt>
<rscale>  1 0.12852948E+03</rscale>
<asrwt>0</asrwt>
<pdfrwt beam="1">  1       21 0.18617297E-01 0.12852948E+03</pdfrwt>
<pdfrwt beam="2">  1       21 0.16184214E-01 0.12852948E+03</pdfrwt>
<totfact> 0.90234700E+05</totfact>
</mgrwt>
</event>
<event>
 6    1  0.4259848E-002  0.1296081E+03  0.7546771E-02  0.1228038E+00
         21   -1    0    0  504  502  0.00000000000E+00  0.00000000000E+00  0.79129064663E+02  0.79129064663E+02  0.00000000000E+00 0.  1.
         21   -1    0    0  502  503 -0.00000000000E+00 -0.00000000000E+00 -0.86582331659E+02  0.86582331659E+02  0.00000000000E+00 0.  1.
         25    2    1    2    0    0  0.20416431777E+02  0.27573274540E+02  0.36227573547E+01  0.12965873386E+03  0.12498458601E+03 0.  0.
          5    1    3    3  501    0  0.61020879195E+02  0.39973769801E+02 -0.26488722311E+02  0.77608713296E+02  0.10000000000E+00 0.  1.
         -5    1    3    3    0  501 -0.40604447417E+02 -0.12400495261E+02  0.30111479666E+02  0.52050020561E+02  0.10000000000E+00 0.  1.
         21    1    1    2  504  503 -0.20416431777E+02 -0.27573274540E+02 -0.11076024351E+02  0.36052662465E+02  0.00000000000E+00 0. -1.
<mgrwt>
<rscale>  1 0.12960811E+03</rscale>
<asrwt>0</asrwt>
<pdfrwt beam="1">  1       21 0.12173702E-01 0.12960811E+03</pdfrwt>
<pdfrwt beam="2">  1       21 0.13320359E-01 0.12960811E+03</pdfrwt>
<totfact> 0.27571171E+06</totfact>
</mgrwt>
</event>
<event>
 6    1  0.4259848E-002  0.1271090E+03  0.7546771E-02  0.1231810E+00
         21   -1    0    0  504  502  0.00000000000E+00  0.00000000000E+00  0.19478073304E+03  0.19478073304E+03  0.00000000000E+00 0. -1.
         21   -1    0    0  502  503 -0.00000000000E+00 -0.00000000000E+00 -0.31868616665E+02  0.31868616665E+02  0.00000000000E+00 0. -1.
         25    2    1    2    0    0  0.82679598754E+00 -0.23099322824E+02  0.15840803695E+03  0.20310048481E+03  0.12498975338E+03 0.  0.
          5    1    3    3  501    0 -0.12375103513E+02 -0.18109517155E+02 -0.16610412087E+02  0.27513879920E+02  0.10000000000E+00 0.  1.
         -5    1    3    3    0  501  0.13201899500E+02 -0.49898056693E+01  0.17501844904E+03  0.17558660489E+03  0.10000000000E+00 0.  1.
         21    1    1    2  504  503 -0.82679598754E+00  0.23099322824E+02  0.45040794203E+01  0.23548864897E+02  0.00000000000E+00 0. -1.
<mgrwt>
<rscale>  1 0.12710901E+03</rscale>
<asrwt>0</asrwt>
<pdfrwt beam="1">  1       21 0.29966266E-01 0.12710901E+03</pdfrwt>
<pdfrwt beam="2">  1       21 0.49028642E-02 0.12710901E+03</pdfrwt>
<totfact> 0.29411653E+06</totfact>
</mgrwt>
</event>
<event>
 6    1  0.4259848E-002  0.1260291E+03  0.7546771E-02  0.1233470E+00
         21   -1    0    0  503  502  0.00000000000E+00  0.00000000000E+00  0.10524917323E+03  0.10524917323E+03  0.00000000000E+00 0. -1.
         21   -1    0    0  504  503 -0.00000000000E+00 -0.00000000000E+00 -0.22970781925E+03  0.22970781925E+03  0.00000000000E+00 0. -1.
         25    2    1    2    0    0  0.15882560978E+02 -0.28636849615E+01  0.67059774217E+02  0.14275979758E+03  0.12499155993E+03 0.  0.
          5    1    3    3  501    0  0.45833091799E+02 -0.48227103458E+02  0.56715855228E+02  0.87425534291E+02  0.10000000000E+00 0. -1.
         -5    1    3    3    0  501 -0.29950530821E+02  0.45363418497E+02  0.10343918989E+02  0.55334263293E+02  0.10000000000E+00 0. -1.
         21    1    1    2  504  502 -0.15882560978E+02  0.28636849615E+01 -0.19151842024E+03  0.19219719490E+03  0.00000000000E+00 0. -1.
<mgrwt>
<rscale>  1 0.12602915E+03</rscale>
<asrwt>0</asrwt>
<pdfrwt beam="1">  1       21 0.16192181E-01 0.12602915E+03</pdfrwt>
<pdfrwt beam="2">  1       21 0.35339664E-01 0.12602915E+03</pdfrwt>
<totfact> 0.26735977E+05</totfact>
</mgrwt>
</event>
<event>
 6    1  0.4259848E-002  0.1258858E+03  0.7546771E-02  0.1233691E+00
         21   -1    0    0  503  502  0.00000000000E+00  0.00000000000E+00  0.11374447347E+03  0.11374447347E+03  0.00000000000E+00 0. -1.
         21   -1    0    0  504  503 -0.00000000000E+00 -0.00000000000E+00 -0.71143492215E+02  0.71143492215E+02  0.00000000000E+00 0. -1.
         25    2    1    2    0    0  0.88034663438E+01 -0.12151854081E+02  0.76854443019E+02  0.14749186669E+03  0.12498830646E+03 0.  0.
          5    1    3    3  501    0 -0.19531107540E+02  0.46294059885E+02  0.63852420267E+02  0.81251127477E+02  0.10000000000E+00 0. -1.
         -5    1    3    3    0  501  0.28334573883E+02 -0.58445913966E+02  0.13002022752E+02  0.66240739218E+02  0.10000000000E+00 0. -1.
         21    1    1    2  504  502 -0.88034663438E+01  0.12151854081E+02 -0.34253461761E+02  0.37396098993E+02  0.00000000000E+00 0. -1.
<mgrwt>
<rscale>  1 0.12588584E+03</rscale>
<asrwt>0</asrwt>
<pdfrwt beam="1">  1       21 0.17499150E-01 0.12588584E+03</pdfrwt>
<pdfrwt beam="2">  1       21 0.10945153E-01 0.12588584E+03</pdfrwt>
<totfact> 0.20311011E+06</totfact>
</mgrwt>
</event>
<event>
 6    1  0.4259848E-002  0.1440100E+03  0.7546771E-02  0.1208033E+00
         21   -1    0    0  503  502  0.00000000000E+00  0.00000000000E+00  0.19987919241E+03  0.19987919241E+03  0.00000000000E+00 0. -1.
         21   -1    0    0  504  503 -0.00000000000E+00 -0.00000000000E+00 -0.10278761994E+03  0.10278761994E+03  0.00000000000E+00 0.  1.
         25    2    1    2    0    0  0.61381944213E+01  0.71240010981E+02  0.15432309208E+03  0.21107934906E+03  0.12500423294E+03 0.  0.
          5    1    3    3  501    0 -0.43161346509E+02  0.77740525853E+02  0.69916714968E+02  0.11311431485E+03  0.10000000000E+00 0. -1.
         -5    1    3    3    0  501  0.49299540931E+02 -0.65005148720E+01  0.84406377117E+02  0.97965034209E+02  0.10000000000E+00 0. -1.
         21    1    1    2  504  502 -0.61381944213E+01 -0.71240010981E+02 -0.57231519611E+02  0.91587463292E+02  0.00000000000E+00 0.  1.
<mgrwt>
<rscale>  1 0.14400998E+03</rscale>
<asrwt>0</asrwt>
<pdfrwt beam="1">  1       21 0.30750645E-01 0.14400998E+03</pdfrwt>
<pdfrwt beam="2">  1       21 0.15813480E-01 0.14400998E+03</pdfrwt>
<totfact> 0.36504543E+05</totfact>
</mgrwt>
</event>
<event>
 6    1  0.4259848E-002  0.1259362E+03  0.7546771E-02  0.1233613E+00
         21   -1    0    0  504  502  0.00000000000E+00  0.00000000000E+00  0.93032410481E+02  0.93032410481E+02  0.00000000000E+00 0.  1.
         21   -1    0    0  502  503 -0.00000000000E+00 -0.00000000000E+00 -0.44599638312E+03  0.44599638312E+03  0.00000000000E+00 0.  1.
         25    2    1    2    0    0 -0.83803224184E+01 -0.12889812040E+02  0.50199321197E+02  0.13557245327E+03  0.12499416458E+03 0.  0.
          5    1    3    3  501    0 -0.44264669862E+02  0.41198484391E+02  0.30578435486E+02  0.67762281772E+02  0.10000000000E+00 0.  1.
         -5    1    3    3    0  501  0.35884347444E+02 -0.54088296431E+02  0.19620885711E+02  0.67810171496E+02  0.10000000000E+00 0.  1.
         21    1    1    2  504  503  0.83803224184E+01  0.12889812040E+02 -0.40316329383E+03  0.40345634033E+03  0.00000000000E+00 0.  1.
<mgrwt>
<rscale>  1 0.12593617E+03</rscale>
<asrwt>0</asrwt>
<pdfrwt beam="1">  1       21 0.14312679E-01 0.12593617E+03</pdfrwt>
<pdfrwt beam="2">  1       21 0.68614828E-01 0.12593617E+03</pdfrwt>
<totfact> 0.85095292E+04</totfact>
</mgrwt>
</event>
<event>
 6    1  0.4259848E-002  0.1477791E+03  0.7546771E-02  0.1203229E+00
         21   -1    0    0  504  502  0.00000000000E+00  0.00000000000E+00  0.22426585245E+03  0.22426585245E+03  0.00000000000E+00 0.  1.
         21   -1    0    0  502  503 -0.00000000000E+00 -0.00000000000E+00 -0.80234249616E+02  0.80234249616E+02  0.00000000000E+00 0.  1.
         25    2    1    2    0    0 -0.66098879719E+02 -0.42993790552E+02  0.16638965274E+03  0.22254029288E+03  0.12498454900E+03 0.  0.
          5    1    3    3  501    0 -0.79195662509E+02 -0.20310994751E+02  0.35633521261E+02  0.89186587026E+02  0.10000000000E+00 0. -1.
         -5    1    3    3    0  501  0.13096782789E+02 -0.22682795801E+02  0.13075613148E+03  0.13335370585E+03  0.10000000000E+00 0. -1.
         21    1    1    2  504  503  0.66098879719E+02  0.42993790552E+02 -0.22358049908E+02  0.81959809186E+02  0.00000000000E+00 0.  1.
<mgrwt>
<rscale>  1 0.14777911E+03</rscale>
<asrwt>0</asrwt>
<pdfrwt beam="1">  1       21 0.34502439E-01 0.14777911E+03</pdfrwt>
<pdfrwt beam="2">  1       21 0.12343731E-01 0.14777911E+03</pdfrwt>
<totfact> 0.45491359E+05</totfact>
</mgrwt>
</event>
<event>
 6    1  0.4259848E-002  0.1264665E+03  0.7546771E-02  0.1232795E+00
         21   -1    0    0  504  502  0.00000000000E+00  0.00000000000E+00  0.29888503024E+03  0.29888503024E+03  0.00000000000E+00 0.  1.
         21   -1    0    0  502  503 -0.00000000000E+00 -0.00000000000E+00 -0.17769058255E+02  0.17769058255E+02  0.00000000000E+00 0.  1.
         25    2    1    2    0    0 -0.19031531732E+02  0.25657420397E+01  0.24035166112E+03  0.27159289374E+03  0.12499998678E+03 0.  0.
          5    1    3    3  501    0  0.11644722499E+02 -0.69699436317E+00  0.24046043799E+03  0.24074326076E+03  0.10000000000E+00 0.  1.
         -5    1    3    3    0  501 -0.30676254232E+02  0.32627364028E+01 -0.10877687327E+00  0.30849632979E+02  0.10000000000E+00 0.  1.
         21    1    1    2  504  503  0.19031531732E+02 -0.25657420397E+01  0.40764310865E+02  0.45061194753E+02  0.00000000000E+00 0.  1.
<mgrwt>
<rscale>  1 0.12646651E+03</rscale>
<asrwt>0</asrwt>
<pdfrwt beam="1">  1       21 0.45982309E-01 0.12646651E+03</pdfrwt>
<pdfrwt beam="2">  1       21 0.27337015E-02 0.12646651E+03</pdfrwt>
<totfact> 0.33110071E+06</totfact>
</mgrwt>
</event>
<event>
 6    1  0.4259848E-002  0.1318242E+03  0.7546771E-02  0.1224774E+00
         21   -1    0    0  503  502  0.00000000000E+00  0.00000000000E+00  0.17323431262E+03  0.17323431262E+03  0.00000000000E+00 0. -1.
         21   -1    0    0  504  503 -0.00000000000E+00 -0.00000000000E+00 -0.48769548673E+02  0.48769548673E+02  0.00000000000E+00 0. -1.
         25    2    1    2    0    0 -0.49126667518E+01 -0.41578284033E+02  0.12271217052E+03  0.18009968988E+03  0.12499893401E+03 0.  0.
          5    1    3    3  501    0  0.17813944865E+02  0.31237297208E+02  0.41346978136E+00  0.35962290330E+02  0.10000000000E+00 0.  1.
         -5    1    3    3    0  501 -0.22726611617E+02 -0.72815581241E+02  0.12229870074E+03  0.14413739955E+03  0.10000000000E+00 0.  1.
         21    1    1    2  504  502  0.49126667518E+01  0.41578284033E+02  0.17525934220E+01  0.41904171408E+02  0.00000000000E+00 0. -1.
<mgrwt>
<rscale>  1 0.13182421E+03</rscale>
<asrwt>0</asrwt>
<pdfrwt beam="1">  1       21 0.26651433E-01 0.13182421E+03</pdfrwt>
<pdfrwt beam="2">  1       21 0.75030075E-02 0.13182421E+03</pdfrwt>
<totfact> 0.17903340E+06</totfact>
</mgrwt>
</event>
<event>
 6    1  0.4259848E-002  0.1740370E+03  0.7546771E-02  0.1173702E+00
         21   -1    0    0  503  502  0.00000000000E+00  0.00000000000E+00  0.40997449225E+02  0.40997449225E+02  0.00000000000E+00 0.  1.
         21   -1    0    0  504  503 -0.00000000000E+00 -0.00000000000E+00 -0.99007939207E+03  0.99007939207E+03  0.00000000000E+00 0.  1.
         25    2    1    2    0    0  0.12102510779E+03 -0.40900694000E+01 -0.17225625592E+03  0.24486951924E+03  0.12500023347E+03 0.  0.
          5    1    3    3  501    0 -0.39877296265E+01  0.22773936835E+02 -0.89783915151E+02  0.92713082175E+02  0.10000000000E+00 0.  1.
         -5    1    3    3    0  501  0.12501283741E+03 -0.26864006235E+02 -0.82472340771E+02  0.15215643707E+03  0.10000000000E+00 0.  1.
         21    1    1    2  504  502 -0.12102510779E+03  0.40900694000E+01 -0.77682568692E+03  0.78620732205E+03  0.00000000000E+00 0.  1.
<mgrwt>
<rscale>  1 0.17403696E+03</rscale>
<asrwt>0</asrwt>
<pdfrwt beam="1">  1       21 0.63072999E-02 0.17403696E+03</pdfrwt>
<pdfrwt beam="2">  1       21 0.15231991E+00 0.17403696E+03</pdfrwt>
<totfact> 0.52505055E+04</totfact>
</mgrwt>
</event>
<event>
 6    1  0.4259848E-002  0.1271010E+03  0.7546771E-02  0.1231822E+00
         21   -1    0    0  504  502  0.00000000000E+00  0.00000000000E+00  0.15129565806E+03  0.15129565806E+03  0.00000000000E+00 0. -1.
         21   -1    0    0  502  503 -0.00000000000E+00 -0.00000000000E+00 -0.60527378547E+02  0.60527378547E+02  0.00000000000E+00 0.  1.
         25    2    1    2    0    0 -0.14784135633E+02 -0.17652770938E+02  0.11987271657E+03  0.17471159303E+03  0.12499792628E+03 0.  0.
          5    1    3    3  501    0  0.44067838590E+02 -0.37255085208E+02  0.28727847917E+02  0.64460957313E+02  0.10000000000E+00 0.  1.
         -5    1    3    3    0  501 -0.58851974223E+02  0.19602314269E+02  0.91144868648E+02  0.11025063571E+03  0.10000000000E+00 0.  1.
         21    1    1    2  504  503  0.14784135633E+02  0.17652770938E+02 -0.29104437053E+02  0.37111443578E+02  0.00000000000E+00 0.  1.
<mgrwt>
<rscale>  1 0.12710103E+03</rscale>
<asrwt>0</asrwt>
<pdfrwt beam="1">  1       21 0.23276255E-01 0.12710103E+03</pdfrwt>
<pdfrwt beam="2">  1       21 0.93119045E-02 0.12710103E+03</pdfrwt>
<totfact> 0.15902720E+06</totfact>
</mgrwt>
</event>
<event>
 6    1  0.4259848E-002  0.1836129E+03  0.7546771E-02  0.1164352E+00
         21   -1    0    0  504  502  0.00000000000E+00  0.00000000000E+00  0.18251473222E+03  0.18251473222E+03  0.00000000000E+00 0. -1.
         21   -1    0    0  502  503 -0.00000000000E+00 -0.00000000000E+00 -0.52814434040E+03  0.52814434040E+03  0.00000000000E+00 0.  1.
         25    2    1    2    0    0  0.18296197713E+02 -0.13325434224E+03  0.12438487443E+03  0.22177761007E+03  0.12498896256E+03 0.  0.
          5    1    3    3  501    0  0.18566897838E+02  0.20920249030E+02  0.96268192094E+01  0.29581618666E+02  0.10000000000E+00 0. -1.
         -5    1    3    3    0  501 -0.27070012520E+00 -0.15417459127E+03  0.11475805522E+03  0.19219599140E+03  0.10000000000E+00 0. -1.
         21    1    1    2  504  503 -0.18296197713E+02  0.13325434224E+03 -0.47001448260E+03  0.48888146255E+03  0.00000000000E+00 0.  1.
<mgrwt>
<rscale>  1 0.18361294E+03</rscale>
<asrwt>0</asrwt>
<pdfrwt beam="1">  1       21 0.28079189E-01 0.18361294E+03</pdfrwt>
<pdfrwt beam="2">  1       21 0.81252976E-01 0.18361294E+03</pdfrwt>
<totfact> 0.16181300E+04</totfact>
</mgrwt>
</event>
<event>
 6    1  0.4259848E-002  0.1336494E+03  0.7546771E-02  0.1222139E+00
         21   -1    0    0  504  502  0.00000000000E+00  0.00000000000E+00  0.84827497129E+02  0.84827497129E+02  0.00000000000E+00 0.  1.
         21   -1    0    0  502  503 -0.00000000000E+00 -0.00000000000E+00 -0.11603517244E+03  0.11603517244E+03  0.00000000000E+00 0.  1.
         25    2    1    2    0    0 -0.55155395689E+01  0.46980253516E+02  0.15304764563E+02  0.13452284397E+03  0.12499837733E+03 0.  0.
          5    1    3    3  501    0  0.51322577346E+02  0.45047255058E+02 -0.15240215047E+02  0.69968109081E+02  0.10000000000E+00 0.  1.
         -5    1    3    3    0  501 -0.56838116915E+02  0.19329984582E+01  0.30544979610E+02  0.64554734891E+02  0.10000000000E+00 0.  1.
         21    1    1    2  504  503  0.55155395689E+01 -0.46980253516E+02 -0.46512439872E+02  0.66339825596E+02  0.00000000000E+00 0.  1.
<mgrwt>
<rscale>  1 0.13364939E+03</rscale>
<asrwt>0</asrwt>
<pdfrwt beam="1">  1       21 0.13050384E-01 0.13364939E+03</pdfrwt>
<pdfrwt beam="2">  1       21 0.17851565E-01 0.13364939E+03</pdfrwt>
<totfact> 0.14361164E+06</totfact>
</mgrwt>
</event>
<event>
 6    1  0.4259848E-002  0.1259854E+03  0.7546771E-02  0.1233537E+00
         21   -1    0    0  503  502  0.00000000000E+00  0.00000000000E+00  0.20233528727E+03  0.20233528727E+03  0.00000000000E+00 0.  1.
         21   -1    0    0  504  503 -0.00000000000E+00 -0.00000000000E+00 -0.67310892611E+02  0.67310892611E+02  0.00000000000E+00 0.  1.
         25    2    1    2    0    0 -0.14323986184E+02  0.64275156675E+01  0.18130219460E+03  0.22077774115E+03  0.12500334268E+03 0.  0.
          5    1    3    3  501    0 -0.11467923503E+02  0.50870916589E+02  0.24207639327E+02  0.57492462340E+02  0.10000000000E+00 0.  1.
         -5    1    3    3    0  501 -0.28560626813E+01 -0.44443400922E+02  0.15709455527E+03  0.16328527881E+03  0.10000000000E+00 0.  1.
         21    1    1    2  504  502  0.14323986184E+02 -0.64275156675E+01 -0.46277799934E+02  0.48868438737E+02  0.00000000000E+00 0.  1.
<mgrwt>
<rscale>  1 0.12598542E+03</rscale>
<asrwt>0</asrwt>
<pdfrwt beam="1">  1       21 0.31128505E-01 0.12598542E+03</pdfrwt>
<pdfrwt beam="2">  1       21 0.10355522E-01 0.12598542E+03</pdfrwt>
<totfact> 0.75928854E+05</totfact>
</mgrwt>
</event>
<event>
 6    1  0.4259848E-002  0.1264295E+03  0.7546771E-02  0.1232852E+00
         21   -1    0    0  504  502  0.00000000000E+00  0.00000000000E+00  0.23479444875E+02  0.23479444875E+02  0.00000000000E+00 0. -1.
         21   -1    0    0  502  503 -0.00000000000E+00 -0.00000000000E+00 -0.46638286999E+03  0.46638286999E+03  0.00000000000E+00 0. -1.
         25    2    1    2    0    0 -0.13835943365E+02 -0.12997319728E+02 -0.14927399934E+03  0.19561989214E+03  0.12499620664E+03 0.  0.
          5    1    3    3  501    0  0.22707690137E+02 -0.61340537374E+02 -0.85420394306E+02  0.10758696241E+03  0.10000000000E+00 0. -1.
         -5    1    3    3    0  501 -0.36543633502E+02  0.48343217645E+02 -0.63853605036E+02  0.88032929736E+02  0.10000000000E+00 0. -1.
         21    1    1    2  504  503  0.13835943365E+02  0.12997319728E+02 -0.29362942577E+03  0.29424242272E+03  0.00000000000E+00 0. -1.
<mgrwt>
<rscale>  1 0.12642949E+03</rscale>
<asrwt>0</asrwt>
<pdfrwt beam="1">  1       21 0.36122223E-02 0.12642949E+03</pdfrwt>
<pdfrwt beam="2">  1       21 0.71751211E-01 0.12642949E+03</pdfrwt>
<totfact> 0.81965755E+05</totfact>
</mgrwt>
</event>
<event>
 6    1  0.4259848E-002  0.1261547E+03  0.7546771E-02  0.1233276E+00
         21   -1    0    0  504  502  0.00000000000E+00  0.00000000000E+00  0.32687674848E+02  0.32687674848E+02  0.00000000000E+00 0.  1.
         21   -1    0    0  502  503 -0.00000000000E+00 -0.00000000000E+00 -0.18368582423E+03  0.18368582423E+03  0.00000000000E+00 0.  1.
         25    2    1    2    0    0  0.14292995156E+02 -0.92726500556E+01 -0.95234654298E+02  0.15806535957E+03  0.12499898706E+03 0.  0.
          5    1    3    3  501    0 -0.40311410406E+02 -0.17175289142E+02 -0.93047469105E+02  0.10284863574E+03  0.10000000000E+00 0.  1.
         -5    1    3    3    0  501  0.54604405562E+02  0.79026390863E+01 -0.21871851936E+01  0.55216723829E+02  0.10000000000E+00 0.  1.
         21    1    1    2  504  503 -0.14292995156E+02  0.92726500556E+01 -0.55763495083E+02  0.58308139513E+02  0.00000000000E+00 0.  1.
<mgrwt>
<rscale>  1 0.12615474E+03</rscale>
<asrwt>0</asrwt>
<pdfrwt beam="1">  1       21 0.50288730E-02 0.12615474E+03</pdfrwt>
<pdfrwt beam="2">  1       21 0.28259358E-01 0.12615474E+03</pdfrwt>
<totfact> 0.31538230E+06</totfact>
</mgrwt>
</event>
<event>
 6    1  0.4259848E-002  0.1813220E+03  0.7546771E-02  0.1166530E+00
         21   -1    0    0  504  502  0.00000000000E+00  0.00000000000E+00  0.13836948660E+04  0.13836948660E+04  0.00000000000E+00 0. -1.
         21   -1    0    0  502  503 -0.00000000000E+00 -0.00000000000E+00 -0.22400880338E+02  0.22400880338E+02  0.00000000000E+00 0. -1.
         25    2    1    2    0    0 -0.13095233052E+03  0.10111104993E+02  0.10865027059E+04  0.11015288493E+04  0.12500771452E+03 0.  0.
          5    1    3    3  501    0 -0.19307663019E+02  0.55983166483E+02  0.29617198442E+03  0.30203436085E+03  0.10000000000E+00 0.  1.
         -5    1    3    3    0  501 -0.11164466750E+03 -0.45872061490E+02  0.79033072144E+03  0.79949448845E+03  0.10000000000E+00 0.  1.
         21    1    1    2  504  503  0.13095233052E+03 -0.10111104993E+02  0.27479127978E+03  0.30456689701E+03  0.00000000000E+00 0. -1.
<mgrwt>
<rscale>  1 0.18132202E+03</rscale>
<asrwt>0</asrwt>
<pdfrwt beam="1">  1       21 0.21287607E+00 0.18132202E+03</pdfrwt>
<pdfrwt beam="2">  1       21 0.34462904E-02 0.18132202E+03</pdfrwt>
<totfact> 0.56388038E+04</totfact>
</mgrwt>
</event>
<event>
 6    1  0.4259848E-002  0.1259806E+03  0.7546771E-02  0.1233545E+00
         21   -1    0    0  503  502  0.00000000000E+00  0.00000000000E+00  0.76932344897E+02  0.76932344897E+02  0.00000000000E+00 0. -1.
         21   -1    0    0  504  503 -0.00000000000E+00 -0.00000000000E+00 -0.66127852273E+02  0.66127852273E+02  0.00000000000E+00 0. -1.
         25    2    1    2    0    0 -0.15524879261E+02  0.22069076476E+01  0.14885443014E+02  0.12685691128E+03  0.12500082883E+03 0.  0.
          5    1    3    3  501    0 -0.49461208632E+02  0.28860732291E+02  0.46168120207E+02  0.73558536902E+02  0.10000000000E+00 0.  1.
         -5    1    3    3    0  501  0.33936329370E+02 -0.26653824643E+02 -0.31282677194E+02  0.53298374381E+02  0.10000000000E+00 0.  1.
         21    1    1    2  504  502  0.15524879261E+02 -0.22069076476E+01 -0.40809503897E+01  0.16203285887E+02  0.00000000000E+00 0. -1.
<mgrwt>
<rscale>  1 0.12598055E+03</rscale>
<asrwt>0</asrwt>
<pdfrwt beam="1">  1       21 0.11835745E-01 0.12598055E+03</pdfrwt>
<pdfrwt beam="2">  1       21 0.10173516E-01 0.12598055E+03</pdfrwt>
<totfact> 0.46606585E+06</totfact>
</mgrwt>
</event>
<event>
 6    1  0.4259848E-002  0.1307908E+03  0.7546771E-02  0.1226287E+00
         21   -1    0    0  503  502  0.00000000000E+00  0.00000000000E+00  0.82092448894E+02  0.82092448894E+02  0.00000000000E+00 0.  1.
         21   -1    0    0  504  503 -0.00000000000E+00 -0.00000000000E+00 -0.11524014701E+03  0.11524014701E+03  0.00000000000E+00 0.  1.
         25    2    1    2    0    0 -0.36701099033E+02  0.11649518220E+02  0.19363592392E+02  0.13221641070E+03  0.12499419427E+03 0.  0.
          5    1    3    3  501    0  0.26695038587E+02  0.45843400888E+02  0.27455896268E+02  0.59733397108E+02  0.10000000000E+00 0.  1.
         -5    1    3    3    0  501 -0.63396137620E+02 -0.34193882668E+02 -0.80923038763E+01  0.72483013590E+02  0.10000000000E+00 0.  1.
         21    1    1    2  504  502  0.36701099033E+02 -0.11649518220E+02 -0.52511290509E+02  0.65116185207E+02  0.00000000000E+00 0.  1.
<mgrwt>
<rscale>  1 0.13079079E+03</rscale>
<asrwt>0</asrwt>
<pdfrwt beam="1">  1       21 0.12629608E-01 0.13079079E+03</pdfrwt>
<pdfrwt beam="2">  1       21 0.17729253E-01 0.13079079E+03</pdfrwt>
<totfact> 0.15411114E+06</totfact>
</mgrwt>
</event>
<event>
 6    1  0.4259848E-002  0.1259390E+03  0.7546771E-02  0.1233609E+00
         21   -1    0    0  503  502  0.00000000000E+00  0.00000000000E+00  0.13790307357E+03  0.13790307357E+03  0.00000000000E+00 0. -1.
         21   -1    0    0  504  503 -0.00000000000E+00 -0.00000000000E+00 -0.36251128058E+02  0.36251128058E+02  0.00000000000E+00 0. -1.
         25    2    1    2    0    0 -0.94166358125E+01 -0.12087269642E+02  0.88062948293E+02  0.15367406582E+03  0.12500344205E+03 0.  0.
          5    1    3    3  501    0  0.62823204787E+01 -0.51938888383E+02 -0.36575820613E+01  0.52445243670E+02  0.10000000000E+00 0. -1.
         -5    1    3    3    0  501 -0.15698956291E+02  0.39851618741E+02  0.91720530354E+02  0.10122882215E+03  0.10000000000E+00 0. -1.
         21    1    1    2  504  502  0.94166358125E+01  0.12087269642E+02  0.13588997224E+02  0.20480135815E+02  0.00000000000E+00 0. -1.
<mgrwt>
<rscale>  1 0.12593902E+03</rscale>
<asrwt>0</asrwt>
<pdfrwt beam="1">  1       21 0.21215857E-01 0.12593902E+03</pdfrwt>
<pdfrwt beam="2">  1       21 0.55770967E-02 0.12593902E+03</pdfrwt>
<totfact> 0.45483431E+06</totfact>
</mgrwt>
</event>
<event>
 6    1  0.4259848E-002  0.1392523E+03  0.7546771E-02  0.1214339E+00
         21   -1    0    0  503  502  0.00000000000E+00  0.00000000000E+00  0.26025367239E+03  0.26025367239E+03  0.00000000000E+00 0.  1.
         21   -1    0    0  504  503 -0.00000000000E+00 -0.00000000000E+00 -0.77744326759E+02  0.77744326759E+02  0.00000000000E+00 0.  1.
         25    2    1    2    0    0 -0.30998077252E+02 -0.52960940779E+02  0.22411795722E+03  0.26385611760E+03  0.12500180000E+03 0.  0.
          5    1    3    3  501    0  0.93011999299E+01 -0.86376285920E+02  0.14228595618E+03  0.16671136258E+03  0.10000000000E+00 0. -1.
         -5    1    3    3    0  501 -0.40299277182E+02  0.33415345141E+02  0.81832001043E+02  0.97144755015E+02  0.10000000000E+00 0. -1.
         21    1    1    2  504  502  0.30998077252E+02  0.52960940779E+02 -0.41608611589E+02  0.74141881550E+02  0.00000000000E+00 0.  1.
<mgrwt>
<rscale>  1 0.13925226E+03</rscale>
<asrwt>0</asrwt>
<pdfrwt beam="1">  1       21 0.40039026E-01 0.13925226E+03</pdfrwt>
<pdfrwt beam="2">  1       21 0.11960666E-01 0.13925226E+03</pdfrwt>
<totfact> 0.35846187E+05</totfact>
</mgrwt>
</event>
<event>
 6    1  0.4259848E-002  0.1283155E+03  0.7546771E-02  0.1229977E+00
         21   -1    0    0  503  502  0.00000000000E+00  0.00000000000E+00  0.34531447107E+02  0.34531447107E+02  0.00000000000E+00 0.  1.
         21   -1    0    0  504  503 -0.00000000000E+00 -0.00000000000E+00 -0.17906309955E+03  0.17906309955E+03  0.00000000000E+00 0.  1.
         25    2    1    2    0    0  0.66054385075E+01  0.28111464902E+02 -0.11537341403E+03  0.17255689146E+03  0.12502387711E+03 0.  0.
          5    1    3    3  501    0  0.46863632471E+02  0.57611096157E+02 -0.89629912222E+02  0.11639918219E+03  0.10000000000E+00 0. -1.
         -5    1    3    3    0  501 -0.40258193963E+02 -0.29499631255E+02 -0.25743501805E+02  0.56157709271E+02  0.10000000000E+00 0. -1.
         21    1    1    2  504  502 -0.66054385075E+01 -0.28111464902E+02 -0.29158238418E+02  0.41037655201E+02  0.00000000000E+00 0.  1.
<mgrwt>
<rscale>  1 0.12831546E+03</rscale>
<asrwt>0</asrwt>
<pdfrwt beam="1">  1       21 0.53125304E-02 0.12831546E+03</pdfrwt>
<pdfrwt beam="2">  1       21 0.27548169E-01 0.12831546E+03</pdfrwt>
<totfact> 0.30214354E+06</totfact>
</mgrwt>
</event>
<event>
 6    1  0.4259848E-002  0.1378620E+03  0.7546771E-02  0.1216235E+00
         21   -1    0    0  504  502  0.00000000000E+00  0.00000000000E+00  0.23897425975E+03  0.23897425975E+03  0.00000000000E+00 0. -1.
         21   -1    0    0  502  503 -0.00000000000E+00 -0.00000000000E+00 -0.18483557369E+03  0.18483557369E+03  0.00000000000E+00 0. -1.
         25    2    1    2    0    0  0.44600997163E+02 -0.37304151480E+02  0.21351703848E+03  0.25415633985E+03  0.12500028279E+03 0.  0.
          5    1    3    3  501    0 -0.16922159558E+02 -0.65869104690E+02  0.85205277395E+02  0.10901856600E+03  0.10000000000E+00 0.  1.
         -5    1    3    3    0  501  0.61523156720E+02  0.28564953210E+02  0.12831176109E+03  0.14513777385E+03  0.10000000000E+00 0.  1.
         21    1    1    2  504  503 -0.44600997163E+02  0.37304151480E+02 -0.15937835242E+03  0.16965349359E+03  0.00000000000E+00 0. -1.
<mgrwt>
<rscale>  1 0.13786196E+03</rscale>
<asrwt>0</asrwt>
<pdfrwt beam="1">  1       21 0.36765271E-01 0.13786196E+03</pdfrwt>
<pdfrwt beam="2">  1       21 0.28436242E-01 0.13786196E+03</pdfrwt>
<totfact> 0.86265407E+04</totfact>
</mgrwt>
</event>
<event>
 6    1  0.4259848E-002  0.1485650E+03  0.7546771E-02  0.1202248E+00
         21   -1    0    0  504  502  0.00000000000E+00  0.00000000000E+00  0.19413579439E+04  0.19413579439E+04  0.00000000000E+00 0.  1.
         21   -1    0    0  502  503 -0.00000000000E+00 -0.00000000000E+00 -0.10482724900E+02  0.10482724900E+02  0.00000000000E+00 0.  1.
         25    2    1    2    0    0 -0.62948674899E+01 -0.80038307813E+02  0.17166258479E+04  0.17230426157E+04  0.12500319136E+03 0.  0.
          5    1    3    3  501    0  0.56356535077E+02 -0.59975853239E+02  0.88461641706E+03  0.88843647907E+03  0.10000000000E+00 0.  1.
         -5    1    3    3    0  501 -0.62651402567E+02 -0.20062454574E+02  0.83200943086E+03  0.83460613667E+03  0.10000000000E+00 0.  1.
         21    1    1    2  504  503  0.62948674899E+01  0.80038307813E+02  0.21424937109E+03  0.22879805307E+03  0.00000000000E+00 0.  1.
<mgrwt>
<rscale>  1 0.14856498E+03</rscale>
<asrwt>0</asrwt>
<pdfrwt beam="1">  1       21 0.29867017E+00 0.14856498E+03</pdfrwt>
<pdfrwt beam="2">  1       21 0.16127285E-02 0.14856498E+03</pdfrwt>
<totfact> 0.63208104E+04</totfact>
</mgrwt>
</event>
<event>
 6    1  0.4259848E-002  0.1260969E+03  0.7546771E-02  0.1233365E+00
         21   -1    0    0  503  502  0.00000000000E+00  0.00000000000E+00  0.11663219583E+03  0.11663219583E+03  0.00000000000E+00 0.  1.
         21   -1    0    0  504  503 -0.00000000000E+00 -0.00000000000E+00 -0.64635022649E+02  0.64635022649E+02  0.00000000000E+00 0.  1.
         25    2    1    2    0    0  0.13628624112E+02  0.94192078489E+01  0.79567650131E+02  0.14910214316E+03  0.12500390904E+03 0.  0.
          5    1    3    3  501    0  0.29018460916E+02 -0.47815941706E+02  0.85175034350E+01  0.56577320721E+02  0.10000000000E+00 0. -1.
         -5    1    3    3    0  501 -0.15389836803E+02  0.57235149555E+02  0.71050146696E+02  0.92524822437E+02  0.10000000000E+00 0. -1.
         21    1    1    2  504  502 -0.13628624112E+02 -0.94192078489E+01 -0.27570476946E+02  0.32165075326E+02  0.00000000000E+00 0.  1.
<mgrwt>
<rscale>  1 0.12609694E+03</rscale>
<asrwt>0</asrwt>
<pdfrwt beam="1">  1       21 0.17943415E-01 0.12609694E+03</pdfrwt>
<pdfrwt beam="2">  1       21 0.99438496E-02 0.12609694E+03</pdfrwt>
<totfact> 0.22957201E+06</totfact>
</mgrwt>
</event>
<event>
 6    1  0.4259848E-002  0.1413159E+03  0.7546771E-02  0.1211569E+00
         21   -1    0    0  504  502  0.00000000000E+00  0.00000000000E+00  0.23277919030E+03  0.23277919030E+03  0.00000000000E+00 0. -1.
         21   -1    0    0  502  503 -0.00000000000E+00 -0.00000000000E+00 -0.63765685477E+02  0.63765685477E+02  0.00000000000E+00 0. -1.
         25    2    1    2    0    0 -0.56723273022E+02  0.33562033114E+02  0.18091982199E+03  0.22956950600E+03  0.12500494521E+03 0.  0.
          5    1    3    3  501    0 -0.53087131715E+02 -0.39026469712E+02  0.63698709605E+02  0.91645209898E+02  0.10000000000E+00 0.  1.
         -5    1    3    3    0  501 -0.36361413068E+01  0.72588502826E+02  0.11722111239E+03  0.13792429610E+03  0.10000000000E+00 0.  1.
         21    1    1    2  504  503  0.56723273022E+02 -0.33562033114E+02 -0.11906317162E+02  0.66975369782E+02  0.00000000000E+00 0. -1.
<mgrwt>
<rscale>  1 0.14131587E+03</rscale>
<asrwt>0</asrwt>
<pdfrwt beam="1">  1       21 0.35812183E-01 0.14131587E+03</pdfrwt>
<pdfrwt beam="2">  1       21 0.98101056E-02 0.14131587E+03</pdfrwt>
<totfact> 0.63450625E+05</totfact>
</mgrwt>
</event>
<event>
 6    1  0.4259848E-002  0.1263387E+03  0.7546771E-02  0.1232992E+00
         21   -1    0    0  503  502  0.00000000000E+00  0.00000000000E+00  0.52403467637E+02  0.52403467637E+02  0.00000000000E+00 0.  1.
         21   -1    0    0  504  503 -0.00000000000E+00 -0.00000000000E+00 -0.16202239056E+03  0.16202239056E+03  0.00000000000E+00 0. -1.
         25    2    1    2    0    0 -0.17443520109E+02 -0.56803086592E+01 -0.26217063632E+02  0.12903023516E+03  0.12499969944E+03 0.  0.
          5    1    3    3  501    0  0.20560958136E+02  0.21867557527E+02 -0.62743817110E+02  0.69553861554E+02  0.10000000000E+00 0. -1.
         -5    1    3    3    0  501 -0.38004478244E+02 -0.27547866186E+02  0.36526753477E+02  0.59476373608E+02  0.10000000000E+00 0. -1.
         21    1    1    2  504  502  0.17443520109E+02  0.56803086592E+01 -0.83401859291E+02  0.85395623034E+02  0.00000000000E+00 0. -1.
<mgrwt>
<rscale>  1 0.12633870E+03</rscale>
<asrwt>0</asrwt>
<pdfrwt beam="1">  1       21 0.80620718E-02 0.12633870E+03</pdfrwt>
<pdfrwt beam="2">  1       21 0.24926522E-01 0.12633870E+03</pdfrwt>
<totfact> 0.17940767E+06</totfact>
</mgrwt>
</event>
<event>
 6    1  0.4259848E-002  0.1270207E+03  0.7546771E-02  0.1231945E+00
         21   -1    0    0  503  502  0.00000000000E+00  0.00000000000E+00  0.37032723692E+02  0.37032723692E+02  0.00000000000E+00 0.  1.
         21   -1    0    0  504  503 -0.00000000000E+00 -0.00000000000E+00 -0.71498350580E+03  0.71498350580E+03  0.00000000000E+00 0.  1.
         25    2    1    2    0    0  0.14938513211E+02 -0.16972160817E+02 -0.72721650355E+02  0.14636491451E+03  0.12499214515E+03 0.  0.
          5    1    3    3  501    0  0.19644366139E+02  0.45551471153E+00  0.33382309040E+02  0.38736251387E+02  0.10000000000E+00 0. -1.
         -5    1    3    3    0  501 -0.47058529279E+01 -0.17427675528E+02 -0.10610395939E+03  0.10762866312E+03  0.10000000000E+00 0. -1.
         21    1    1    2  504  502 -0.14938513211E+02  0.16972160817E+02 -0.60522913175E+03  0.60565131498E+03  0.00000000000E+00 0.  1.
<mgrwt>
<rscale>  1 0.12702067E+03</rscale>
<asrwt>0</asrwt>
<pdfrwt beam="1">  1       21 0.56973422E-02 0.12702067E+03</pdfrwt>
<pdfrwt beam="2">  1       21 0.10999746E+00 0.12702067E+03</pdfrwt>
<totfact> 0.14427856E+05</totfact>
</mgrwt>
</event>
<event>
 6    1  0.4259848E-002  0.1266913E+03  0.7546771E-02  0.1232449E+00
         21   -1    0    0  503  502  0.00000000000E+00  0.00000000000E+00  0.40956394452E+02  0.40956394452E+02  0.00000000000E+00 0.  1.
         21   -1    0    0  504  503 -0.00000000000E+00 -0.00000000000E+00 -0.13265676343E+03  0.13265676343E+03  0.00000000000E+00 0.  1.
         25    2    1    2    0    0 -0.77871069241E+00 -0.20646146137E+02 -0.76986569960E+02  0.14824850487E+03  0.12499526992E+03 0.  0.
          5    1    3    3  501    0 -0.25820289764E+02 -0.53558126473E+02 -0.87301975860E+02  0.10562577935E+03  0.10000000000E+00 0.  1.
         -5    1    3    3    0  501  0.25041579072E+02  0.32911980336E+02  0.10315405900E+02  0.42622725522E+02  0.10000000000E+00 0.  1.
         21    1    1    2  504  502  0.77871069241E+00  0.20646146137E+02 -0.14713799016E+02  0.25364653006E+02  0.00000000000E+00 0.  1.
<mgrwt>
<rscale>  1 0.12669131E+03</rscale>
<asrwt>0</asrwt>
<pdfrwt beam="1">  1       21 0.63009837E-02 0.12669131E+03</pdfrwt>
<pdfrwt beam="2">  1       21 0.20408733E-01 0.12669131E+03</pdfrwt>
<totfact> 0.39761054E+06</totfact>
</mgrwt>
</event>
<event>
 6    1  0.4259848E-002  0.1260384E+03  0.7546771E-02  0.1233455E+00
         21   -1    0    0  504  502  0.00000000000E+00  0.00000000000E+00  0.11676601775E+03  0.11676601775E+03  0.00000000000E+00 0.  1.
         21   -1    0    0  502  503 -0.00000000000E+00 -0.00000000000E+00 -0.11525728966E+03  0.11525728966E+03  0.00000000000E+00 0.  1.
         25    2    1    2    0    0 -0.32975201491E+01  0.15811089157E+02  0.81713077361E+02  0.15020887212E+03  0.12499925628E+03 0.  0.
          5    1    3    3  501    0  0.18690246677E+02 -0.38451555688E+02  0.81075032479E+02  0.91657069270E+02  0.10000000000E+00 0. -1.
         -5    1    3    3    0  501 -0.21987766826E+02  0.54262644844E+02  0.63804488214E+00  0.58551802848E+02  0.10000000000E+00 0. -1.
         21    1    1    2  504  503  0.32975201491E+01 -0.15811089157E+02 -0.80204349275E+02  0.81814435292E+02  0.00000000000E+00 0.  1.
<mgrwt>
<rscale>  1 0.12603840E+03</rscale>
<asrwt>0</asrwt>
<pdfrwt beam="1">  1       21 0.17964003E-01 0.12603840E+03</pdfrwt>
<pdfrwt beam="2">  1       21 0.17731891E-01 0.12603840E+03</pdfrwt>
<totfact> 0.81573136E+05</totfact>
</mgrwt>
</event>
<event>
 6    1  0.4259848E-002  0.1293310E+03  0.7546771E-02  0.1228452E+00
         21   -1    0    0  503  502  0.00000000000E+00  0.00000000000E+00  0.12648404452E+03  0.12648404452E+03  0.00000000000E+00 0. -1.
         21   -1    0    0  504  503 -0.00000000000E+00 -0.00000000000E+00 -0.11645054072E+03  0.11645054072E+03  0.00000000000E+00 0. -1.
         25    2    1    2    0    0  0.26790189557E+02 -0.19538646360E+02  0.89197133726E+02  0.15710712307E+03  0.12500818572E+03 0.  0.
          5    1    3    3  501    0  0.47282997915E+02 -0.57384238583E+02  0.22417980780E+02  0.77660856240E+02  0.10000000000E+00 0.  1.
         -5    1    3    3    0  501 -0.20492808358E+02  0.37845592223E+02  0.66779152946E+02  0.79446266830E+02  0.10000000000E+00 0.  1.
         21    1    1    2  504  502 -0.26790189557E+02  0.19538646360E+02 -0.79163629928E+02  0.85827462163E+02  0.00000000000E+00 0. -1.
<mgrwt>
<rscale>  1 0.12933105E+03</rscale>
<asrwt>0</asrwt>
<pdfrwt beam="1">  1       21 0.19459084E-01 0.12933105E+03</pdfrwt>
<pdfrwt beam="2">  1       21 0.17915468E-01 0.12933105E+03</pdfrwt>
<totfact> 0.69125219E+05</totfact>
</mgrwt>
</event>
<event>
 6    1  0.4259848E-002  0.1437197E+03  0.7546771E-02  0.1208410E+00
         21   -1    0    0  503  502  0.00000000000E+00  0.00000000000E+00  0.34630327701E+03  0.34630327701E+03  0.00000000000E+00 0.  1.
         21   -1    0    0  504  503 -0.00000000000E+00 -0.00000000000E+00 -0.35781489913E+02  0.35781489913E+02  0.00000000000E+00 0.  1.
         25    2    1    2    0    0 -0.65907654556E+02 -0.26307124093E+02  0.15637494253E+03  0.21238758545E+03  0.12497791844E+03 0.  0.
          5    1    3    3  501    0 -0.25458404413E+02  0.48518572664E+02  0.38240845459E+02  0.66817321931E+02  0.10000000000E+00 0.  1.
         -5    1    3    3    0  501 -0.40449250143E+02 -0.74825696757E+02  0.11813409707E+03  0.14557026352E+03  0.10000000000E+00 0.  1.
         21    1    1    2  504  502  0.65907654556E+02  0.26307124093E+02  0.15414684457E+03  0.16969718147E+03  0.00000000000E+00 0.  1.
<mgrwt>
<rscale>  1 0.14371974E+03</rscale>
<asrwt>0</asrwt>
<pdfrwt beam="1">  1       21 0.53277425E-01 0.14371974E+03</pdfrwt>
<pdfrwt beam="2">  1       21 0.55048448E-02 0.14371974E+03</pdfrwt>
<totfact> 0.76542901E+05</totfact>
</mgrwt>
</event>
<event>
 6    1  0.4259848E-002  0.1265100E+03  0.7546771E-02  0.1232728E+00
         21   -1    0    0  503  502  0.00000000000E+00  0.00000000000E+00  0.71180071131E+03  0.71180071131E+03  0.00000000000E+00 0. -1.
         21   -1    0    0  504  503 -0.00000000000E+00 -0.00000000000E+00 -0.20644755511E+02  0.20644755511E+02  0.00000000000E+00 0. -1.
         25    2    1    2    0    0 -0.10617351033E+02 -0.16337642625E+02  0.69979012834E+03  0.71113360053E+03  0.12500050951E+03 0.  0.
          5    1    3    3  501    0  0.46034955730E+02 -0.43746949817E+02  0.36324129968E+03  0.36875095194E+03  0.10000000000E+00 0. -1.
         -5    1    3    3    0  501 -0.56652306763E+02  0.27409307193E+02  0.33654882866E+03  0.34238264859E+03  0.10000000000E+00 0. -1.
         21    1    1    2  504  502  0.10617351033E+02  0.16337642625E+02 -0.86341725361E+01  0.21311866293E+02  0.00000000000E+00 0. -1.
<mgrwt>
<rscale>  1 0.12650998E+03</rscale>
<asrwt>0</asrwt>
<pdfrwt beam="1">  1       21 0.10950778E+00 0.12650998E+03</pdfrwt>
<pdfrwt beam="2">  1       21 0.31761168E-02 0.12650998E+03</pdfrwt>
<totfact> 0.38605527E+05</totfact>
</mgrwt>
</event>
<event>
 6    1  0.4259848E-002  0.1271561E+03  0.7546771E-02  0.1231738E+00
         21   -1    0    0  504  502  0.00000000000E+00  0.00000000000E+00  0.26702450727E+03  0.26702450727E+03  0.00000000000E+00 0. -1.
         21   -1    0    0  502  503 -0.00000000000E+00 -0.00000000000E+00 -0.22216919322E+02  0.22216919322E+02  0.00000000000E+00 0. -1.
         25    2    1    2    0    0  0.13191625422E+02  0.19312360590E+02  0.22564245557E+03  0.25900422183E+03  0.12498673096E+03 0.  0.
          5    1    3    3  501    0  0.58079899078E+02 -0.13606029905E+02  0.61490320457E+02  0.85670696488E+02  0.10000000000E+00 0.  1.
         -5    1    3    3    0  501 -0.44888273656E+02  0.32918390495E+02  0.16415213512E+03  0.17333352534E+03  0.10000000000E+00 0.  1.
         21    1    1    2  504  503 -0.13191625422E+02 -0.19312360590E+02  0.19165132373E+02  0.30237204760E+02  0.00000000000E+00 0.  1.
<mgrwt>
<rscale>  1 0.12715608E+03</rscale>
<asrwt>0</asrwt>
<pdfrwt beam="1">  1       21 0.41080691E-01 0.12715608E+03</pdfrwt>
<pdfrwt beam="2">  1       21 0.34179878E-02 0.12715608E+03</pdfrwt>
<totfact> 0.28827765E+06</totfact>
</mgrwt>
</event>
<event>
 6    1  0.4259848E-002  0.1275396E+03  0.7546771E-02  0.1231153E+00
         21   -1    0    0  503  502  0.00000000000E+00  0.00000000000E+00  0.84190845905E+03  0.84190845905E+03  0.00000000000E+00 0. -1.
         21   -1    0    0  504  503 -0.00000000000E+00 -0.00000000000E+00 -0.17494750875E+03  0.17494750875E+03  0.00000000000E+00 0. -1.
         25    2    1    2    0    0 -0.23353051558E+02 -0.99013678506E+01  0.83612727195E+03  0.84579853159E+03  0.12499175584E+03 0.  0.
          5    1    3    3  501    0 -0.43465322262E+02  0.43780872850E+02  0.27953076565E+03  0.28625767765E+03  0.10000000000E+00 0.  1.
         -5    1    3    3    0  501  0.20112270703E+02 -0.53682240700E+02  0.55659650630E+03  0.55954085394E+03  0.10000000000E+00 0.  1.
         21    1    1    2  504  502  0.23353051558E+02  0.99013678506E+01 -0.16916632165E+03  0.17105743621E+03  0.00000000000E+00 0. -1.
<mgrwt>
<rscale>  1 0.12753957E+03</rscale>
<asrwt>0</asrwt>
<pdfrwt beam="1">  1       21 0.12952438E+00 0.12753957E+03</pdfrwt>
<pdfrwt beam="2">  1       21 0.26915002E-01 0.12753957E+03</pdfrwt>
<totfact> 0.60850331E+03</totfact>
</mgrwt>
</event>
<event>
 6    1  0.4259848E-002  0.1285831E+03  0.7546771E-02  0.1229573E+00
         21   -1    0    0  504  502  0.00000000000E+00  0.00000000000E+00  0.89525992186E+01  0.89525992186E+01  0.00000000000E+00 0.  1.
         21   -1    0    0  502  503 -0.00000000000E+00 -0.00000000000E+00 -0.70439179033E+03  0.70439179033E+03  0.00000000000E+00 0.  1.
         25    2    1    2    0    0 -0.13755201906E+02 -0.26793989359E+02 -0.55221751303E+03  0.56699011897E+03  0.12500595931E+03 0.  0.
          5    1    3    3  501    0  0.34051765648E+02  0.30326448227E+02 -0.11941634101E+03  0.12782600951E+03  0.10000000000E+00 0.  1.
         -5    1    3    3    0  501 -0.47806967554E+02 -0.57120437586E+02 -0.43280117202E+03  0.43916410946E+03  0.10000000000E+00 0.  1.
         21    1    1    2  504  503  0.13755201906E+02  0.26793989359E+02 -0.14322167808E+03  0.14635427058E+03  0.00000000000E+00 0.  1.
<mgrwt>
<rscale>  1 0.12858310E+03</rscale>
<asrwt>0</asrwt>
<pdfrwt beam="1">  1       21 0.13773230E-02 0.12858310E+03</pdfrwt>
<pdfrwt beam="2">  1       21 0.10836796E+00 0.12858310E+03</pdfrwt>
<totfact> 0.15274430E+06</totfact>
</mgrwt>
</event>
<event>
 6    1  0.4259848E-002  0.1265129E+03  0.7546771E-02  0.1232724E+00
         21   -1    0    0  503  502  0.00000000000E+00  0.00000000000E+00  0.61504552272E+01  0.61504552272E+01  0.00000000000E+00 0.  1.
         21   -1    0    0  504  503 -0.00000000000E+00 -0.00000000000E+00 -0.10060603498E+04  0.10060603498E+04  0.00000000000E+00 0.  1.
         25    2    1    2    0    0 -0.14221452321E+02 -0.13101460490E+02 -0.67680288671E+03  0.68852571655E+03  0.12502646487E+03 0.  0.
          5    1    3    3  501    0  0.33379087598E+02 -0.41562780758E+01 -0.57292247801E+03  0.57390906418E+03  0.10000000000E+00 0.  1.
         -5    1    3    3    0  501 -0.47600539919E+02 -0.89451824144E+01 -0.10388040870E+03  0.11461665237E+03  0.10000000000E+00 0.  1.
         21    1    1    2  504  502  0.14221452321E+02  0.13101460490E+02 -0.32310700789E+03  0.32368508851E+03  0.00000000000E+00 0.  1.
<mgrwt>
<rscale>  1 0.12651290E+03</rscale>
<asrwt>0</asrwt>
<pdfrwt beam="1">  1       21 0.94622315E-03 0.12651290E+03</pdfrwt>
<pdfrwt beam="2">  1       21 0.15477863E+00 0.12651290E+03</pdfrwt>
<totfact> 0.11394964E+06</totfact>
</mgrwt>
</event>
<event>
 6    1  0.4259848E-002  0.1268646E+03  0.7546771E-02  0.1232184E+00
         21   -1    0    0  504  502  0.00000000000E+00  0.00000000000E+00  0.18496136178E+03  0.18496136178E+03  0.00000000000E+00 0. -1.
         21   -1    0    0  502  503 -0.00000000000E+00 -0.00000000000E+00 -0.22833583971E+03  0.22833583971E+03  0.00000000000E+00 0. -1.
         25    2    1    2    0    0  0.21603905131E+02  0.15606413111E+01  0.16257235756E+03  0.20621445627E+03  0.12500186485E+03 0.  0.
          5    1    3    3  501    0  0.19490248150E+02 -0.24581496587E+02 -0.90100348183E+01  0.32639094271E+02  0.10000000000E+00 0.  1.
         -5    1    3    3    0  501  0.21136569815E+01  0.26142137898E+02  0.17158239238E+03  0.17357536200E+03  0.10000000000E+00 0.  1.
         21    1    1    2  504  503 -0.21603905131E+02 -0.15606413111E+01 -0.20594683549E+03  0.20708274522E+03  0.00000000000E+00 0. -1.
<mgrwt>
<rscale>  1 0.12686461E+03</rscale>
<asrwt>0</asrwt>
<pdfrwt beam="1">  1       21 0.28455594E-01 0.12686461E+03</pdfrwt>
<pdfrwt beam="2">  1       21 0.35128591E-01 0.12686461E+03</pdfrwt>
<totfact> 0.94683463E+04</totfact>
</mgrwt>
</event>
<event>
 6    1  0.4259848E-002  0.1260387E+03  0.7546771E-02  0.1233455E+00
         21   -1    0    0  503  502  0.00000000000E+00  0.00000000000E+00  0.24751026756E+03  0.24751026756E+03  0.00000000000E+00 0.  1.
         21   -1    0    0  504  503 -0.00000000000E+00 -0.00000000000E+00 -0.44701409209E+02  0.44701409209E+02  0.00000000000E+00 0.  1.
         25    2    1    2    0    0  0.44657600917E+01 -0.15804903496E+02  0.22894380173E+03  0.26134465142E+03  0.12496409279E+03 0.  0.
          5    1    3    3  501    0  0.40849336407E+02 -0.33943761361E+02  0.20978147451E+03  0.21640037954E+03  0.10000000000E+00 0. -1.
         -5    1    3    3    0  501 -0.36383576315E+02  0.18138857864E+02  0.19162327229E+02  0.44944271881E+02  0.10000000000E+00 0. -1.
         21    1    1    2  504  502 -0.44657600917E+01  0.15804903496E+02 -0.26134943387E+02  0.30867025343E+02  0.00000000000E+00 0.  1.
<mgrwt>
<rscale>  1 0.12603873E+03</rscale>
<asrwt>0</asrwt>
<pdfrwt beam="1">  1       21 0.38078502E-01 0.12603873E+03</pdfrwt>
<pdfrwt beam="2">  1       21 0.68771400E-02 0.12603873E+03</pdfrwt>
<totfact> 0.10383104E+06</totfact>
</mgrwt>
</event>
<event>
 6    1  0.4259848E-002  0.1299628E+03  0.7546771E-02  0.1227511E+00
         21   -1    0    0  503  502  0.00000000000E+00  0.00000000000E+00  0.20091990042E+03  0.20091990042E+03  0.00000000000E+00 0. -1.
         21   -1    0    0  504  503 -0.00000000000E+00 -0.00000000000E+00 -0.82730977125E+02  0.82730977125E+02  0.00000000000E+00 0. -1.
         25    2    1    2    0    0  0.29410686619E+02 -0.19989685233E+02  0.17417953944E+03  0.21732196152E+03  0.12500298795E+03 0.  0.
          5    1    3    3  501    0 -0.33098892669E+02 -0.46983352091E+02  0.52267965419E+02  0.77684762204E+02  0.10000000000E+00 0. -1.
         -5    1    3    3    0  501  0.62509579289E+02  0.26993666858E+02  0.12191157402E+03  0.13963719932E+03  0.10000000000E+00 0. -1.
         21    1    1    2  504  502 -0.29410686619E+02  0.19989685233E+02 -0.55990616150E+02  0.66328916017E+02  0.00000000000E+00 0. -1.
<mgrwt>
<rscale>  1 0.12996278E+03</rscale>
<asrwt>0</asrwt>
<pdfrwt beam="1">  1       21 0.30910754E-01 0.12996278E+03</pdfrwt>
<pdfrwt beam="2">  1       21 0.12727843E-01 0.12996278E+03</pdfrwt>
<totfact> 0.53469513E+05</totfact>
</mgrwt>
</event>
<event>
 6    1  0.4259848E-002  0.1417939E+03  0.7546771E-02  0.1210935E+00
         21   -1    0    0  504  502  0.00000000000E+00  0.00000000000E+00  0.50311411846E+02  0.50311411846E+02  0.00000000000E+00 0. -1.
         21   -1    0    0  502  503 -0.00000000000E+00 -0.00000000000E+00 -0.31425367269E+03  0.31425367269E+03  0.00000000000E+00 0. -1.
         25    2    1    2    0    0 -0.66164462383E+02  0.10136490162E+02 -0.67517043718E+02  0.15704797575E+03  0.12500012392E+03 0.  0.
          5    1    3    3  501    0 -0.56061452651E+02 -0.59478921138E+01  0.25669629196E+02  0.61945167341E+02  0.10000000000E+00 0.  1.
         -5    1    3    3    0  501 -0.10103009732E+02  0.16084382276E+02 -0.93186672914E+02  0.95102808411E+02  0.10000000000E+00 0.  1.
         21    1    1    2  504  503  0.66164462383E+02 -0.10136490162E+02 -0.19642521713E+03  0.20751710878E+03  0.00000000000E+00 0. -1.
<mgrwt>
<rscale>  1 0.14179392E+03</rscale>
<asrwt>0</asrwt>
<pdfrwt beam="1">  1       21 0.77402172E-02 0.14179392E+03</pdfrwt>
<pdfrwt beam="2">  1       21 0.48346719E-01 0.14179392E+03</pdfrwt>
<totfact> 0.52309370E+05</totfact>
</mgrwt>
</event>
<event>
 6    1  0.4259848E-002  0.1265758E+03  0.7546771E-02  0.1232627E+00
         21   -1    0    0  504  502  0.00000000000E+00  0.00000000000E+00  0.24434913395E+02  0.24434913395E+02  0.00000000000E+00 0. -1.
         21   -1    0    0  502  503 -0.00000000000E+00 -0.00000000000E+00 -0.22371071432E+03  0.22371071432E+03  0.00000000000E+00 0. -1.
         25    2    1    2    0    0 -0.19347554801E+02 -0.30952028026E+01 -0.15794519849E+03  0.20240585448E+03  0.12505013414E+03 0.  0.
          5    1    3    3  501    0 -0.55822323760E+02 -0.61334505814E+01 -0.19882786794E+02  0.59574207982E+02  0.10000000000E+00 0. -1.
         -5    1    3    3    0  501  0.36474768959E+02  0.30382477788E+01 -0.13806241169E+03  0.14283164650E+03  0.10000000000E+00 0. -1.
         21    1    1    2  504  503  0.19347554801E+02  0.30952028026E+01 -0.41330602442E+02  0.45739773233E+02  0.00000000000E+00 0. -1.
<mgrwt>
<rscale>  1 0.12657584E+03</rscale>
<asrwt>0</asrwt>
<pdfrwt beam="1">  1       21 0.37592175E-02 0.12657584E+03</pdfrwt>
<pdfrwt beam="2">  1       21 0.34417032E-01 0.12657584E+03</pdfrwt>
<totfact> 0.34976820E+06</totfact>
</mgrwt>
</event>
<event>
 6    1  0.4259848E-002  0.1287538E+03  0.7546771E-02  0.1229317E+00
         21   -1    0    0  504  502  0.00000000000E+00  0.00000000000E+00  0.89187274727E+01  0.89187274727E+01  0.00000000000E+00 0. -1.
         21   -1    0    0  502  503 -0.00000000000E+00 -0.00000000000E+00 -0.91790417823E+03  0.91790417823E+03  0.00000000000E+00 0. -1.
         25    2    1    2    0    0  0.29002919076E+02  0.10654081226E+02 -0.48781401540E+03  0.50451962993E+03  0.12499145814E+03 0.  0.
          5    1    3    3  501    0 -0.48936864646E+02  0.95342704614E+01 -0.22091707581E+03  0.22647314062E+03  0.10000000000E+00 0.  1.
         -5    1    3    3    0  501  0.77939783722E+02  0.11198107644E+01 -0.26689693959E+03  0.27804648932E+03  0.10000000000E+00 0.  1.
         21    1    1    2  504  503 -0.29002919076E+02 -0.10654081226E+02 -0.42117143536E+03  0.42230327577E+03  0.00000000000E+00 0. -1.
<mgrwt>
<rscale>  1 0.12875381E+03</rscale>
<asrwt>0</asrwt>
<pdfrwt beam="1">  1       21 0.13721123E-02 0.12875381E+03</pdfrwt>
<pdfrwt beam="2">  1       21 0.14121598E+00 0.12875381E+03</pdfrwt>
<totfact> 0.80158396E+05</totfact>
</mgrwt>
</event>
<event>
 6    1  0.4259848E-002  0.1261547E+03  0.7546771E-02  0.1233276E+00
         21   -1    0    0  503  502  0.00000000000E+00  0.00000000000E+00  0.45548926783E+02  0.45548926783E+02  0.00000000000E+00 0. -1.
         21   -1    0    0  504  503 -0.00000000000E+00 -0.00000000000E+00 -0.11271072870E+03  0.11271072870E+03  0.00000000000E+00 0. -1.
         25    2    1    2    0    0 -0.16498819126E+02  0.42499279730E+01 -0.61138353915E+02  0.14018882688E+03  0.12499894377E+03 0.  0.
          5    1    3    3  501    0  0.15394848633E+02  0.20909503314E+02 -0.90245849919E+02  0.93907039783E+02  0.10000000000E+00 0. -1.
         -5    1    3    3    0  501 -0.31893667760E+02 -0.16659575341E+02  0.29107496003E+02  0.46281787101E+02  0.10000000000E+00 0. -1.
         21    1    1    2  504  502  0.16498819126E+02 -0.42499279730E+01 -0.60234479987E+01  0.18070828596E+02  0.00000000000E+00 0.  1.
<mgrwt>
<rscale>  1 0.12615470E+03</rscale>
<asrwt>0</asrwt>
<pdfrwt beam="1">  1       21 0.70075273E-02 0.12615470E+03</pdfrwt>
<pdfrwt beam="2">  1       21 0.17340112E-01 0.12615470E+03</pdfrwt>
<totfact> 0.44739970E+06</totfact>
</mgrwt>
</event>
<event>
 6    1  0.4259848E-002  0.1264624E+03  0.7546771E-02  0.1232801E+00
         21   -1    0    0  503  502  0.00000000000E+00  0.00000000000E+00  0.52081266120E+03  0.52081266120E+03  0.00000000000E+00 0. -1.
         21   -1    0    0  504  503 -0.00000000000E+00 -0.00000000000E+00 -0.17720195127E+02  0.17720195127E+02  0.00000000000E+00 0. -1.
         25    2    1    2    0    0 -0.14921822402E+02 -0.12055439190E+02  0.50370737481E+03  0.51933982346E+03  0.12499895358E+03 0.  0.
          5    1    3    3  501    0 -0.16135978306E+02 -0.50855468657E+02  0.44956021882E+03  0.45271519616E+03  0.10000000000E+00 0. -1.
         -5    1    3    3    0  501  0.12141559047E+01  0.38800029467E+02  0.54147155986E+02  0.66624627298E+02  0.10000000000E+00 0. -1.
         21    1    1    2  504  502  0.14921822402E+02  0.12055439190E+02 -0.61490873617E+00  0.19193032866E+02  0.00000000000E+00 0. -1.
<mgrwt>
<rscale>  1 0.12646238E+03</rscale>
<asrwt>0</asrwt>
<pdfrwt beam="1">  1       21 0.80125013E-01 0.12646238E+03</pdfrwt>
<pdfrwt beam="2">  1       21 0.27261843E-02 0.12646238E+03</pdfrwt>
<totfact> 0.10195212E+06</totfact>
</mgrwt>
</event>
<event>
 6    1  0.4259848E-002  0.1806209E+03  0.7546771E-02  0.1167204E+00
         21   -1    0    0  503  502  0.00000000000E+00  0.00000000000E+00  0.70025038568E+02  0.70025038568E+02  0.00000000000E+00 0.  1.
         21   -1    0    0  504  503 -0.00000000000E+00 -0.00000000000E+00 -0.35167331508E+03  0.35167331508E+03  0.00000000000E+00 0.  1.
         25    2    1    2    0    0 -0.11802554601E+03  0.55388004554E+02 -0.19117942141E+03  0.26300848534E+03  0.12500412645E+03 0.  0.
          5    1    3    3  501    0 -0.56920150946E+02 -0.26630991474E+02 -0.12852163536E+03  0.14306269272E+03  0.10000000000E+00 0. -1.
         -5    1    3    3    0  501 -0.61105395068E+02  0.82018996028E+02 -0.62657786046E+02  0.11994579262E+03  0.10000000000E+00 0. -1.
         21    1    1    2  504  502  0.11802554601E+03 -0.55388004554E+02 -0.90468855104E+02  0.15868986831E+03  0.00000000000E+00 0.  1.
<mgrwt>
<rscale>  1 0.18062085E+03</rscale>
<asrwt>0</asrwt>
<pdfrwt beam="1">  1       21 0.10773083E-01 0.18062085E+03</pdfrwt>
<pdfrwt beam="2">  1       21 0.54103587E-01 0.18062085E+03</pdfrwt>
<totfact> 0.23042287E+05</totfact>
</mgrwt>
</event>
<event>
 6    1  0.4259848E-002  0.1263801E+03  0.7546771E-02  0.1232928E+00
         21   -1    0    0  504  502  0.00000000000E+00  0.00000000000E+00  0.13473811746E+03  0.13473811746E+03  0.00000000000E+00 0.  1.
         21   -1    0    0  502  503 -0.00000000000E+00 -0.00000000000E+00 -0.44349535897E+02  0.44349535897E+02  0.00000000000E+00 0.  1.
         25    2    1    2    0    0 -0.37580397668E+01 -0.18236084806E+02  0.97016395752E+02  0.15932390945E+03  0.12500099770E+03 0.  0.
          5    1    3    3  501    0 -0.98193508791E+01  0.53472656813E+02  0.39566329370E+02  0.67240234221E+02  0.10000000000E+00 0.  1.
         -5    1    3    3    0  501  0.60613111123E+01 -0.71708741619E+02  0.57450066382E+02  0.92083675232E+02  0.10000000000E+00 0.  1.
         21    1    1    2  504  503  0.37580397668E+01  0.18236084806E+02 -0.66278141933E+01  0.19763743899E+02  0.00000000000E+00 0.  1.
<mgrwt>
<rscale>  1 0.12638009E+03</rscale>
<asrwt>0</asrwt>
<pdfrwt beam="1">  1       21 0.20728941E-01 0.12638009E+03</pdfrwt>
<pdfrwt beam="2">  1       21 0.68230056E-02 0.12638009E+03</pdfrwt>
<totfact> 0.33728409E+06</totfact>
</mgrwt>
</event>
<event>
 6    1  0.4259848E-002  0.1396527E+03  0.7546771E-02  0.1213797E+00
         21   -1    0    0  503  502  0.00000000000E+00  0.00000000000E+00  0.21898962567E+04  0.21898962567E+04  0.00000000000E+00 0. -1.
         21   -1    0    0  504  503 -0.00000000000E+00 -0.00000000000E+00 -0.71852350227E+01  0.71852350227E+01  0.00000000000E+00 0. -1.
         25    2    1    2    0    0 -0.61417750473E+02 -0.10283545272E+02  0.19824255349E+04  0.19873383927E+04  0.12499997716E+03 0.  0.
          5    1    3    3  501    0 -0.48962020699E+02  0.26547732438E+02  0.17978370289E+04  0.17986995453E+04  0.10000000000E+00 0.  1.
         -5    1    3    3    0  501 -0.12455729774E+02 -0.36831277710E+02  0.18458850595E+03  0.18863884741E+03  0.10000000000E+00 0.  1.
         21    1    1    2  504  502  0.61417750473E+02  0.10283545272E+02  0.20028548686E+03  0.20974309911E+03  0.00000000000E+00 0. -1.
<mgrwt>
<rscale>  1 0.13965273E+03</rscale>
<asrwt>0</asrwt>
<pdfrwt beam="1">  1       21 0.33690659E+00 0.13965273E+03</pdfrwt>
<pdfrwt beam="2">  1       21 0.11054225E-02 0.13965273E+03</pdfrwt>
<totfact> 0.70648809E+04</totfact>
</mgrwt>
</event>
<event>
 6    1  0.4259848E-002  0.1459382E+03  0.7546771E-02  0.1205555E+00
         21   -1    0    0  503  502  0.00000000000E+00  0.00000000000E+00  0.21240853674E+03  0.21240853674E+03  0.00000000000E+00 0. -1.
         21   -1    0    0  504  503 -0.00000000000E+00 -0.00000000000E+00 -0.10280081224E+03  0.10280081224E+03  0.00000000000E+00 0. -1.
         25    2    1    2    0    0  0.53110371705E+02  0.53411334840E+02  0.16606412798E+03  0.22107748527E+03  0.12499791046E+03 0.  0.
          5    1    3    3  501    0 -0.40289665310E+01 -0.34741725229E+02  0.17459014462E+02  0.39090244680E+02  0.10000000000E+00 0.  1.
         -5    1    3    3    0  501  0.57139338236E+02  0.88153060069E+02  0.14860511352E+03  0.18198724059E+03  0.10000000000E+00 0.  1.
         21    1    1    2  504  502 -0.53110371705E+02 -0.53411334840E+02 -0.56456403483E+02  0.94131863714E+02  0.00000000000E+00 0. -1.
<mgrwt>
<rscale>  1 0.14593821E+03</rscale>
<asrwt>0</asrwt>
<pdfrwt beam="1">  1       21 0.32678236E-01 0.14593821E+03</pdfrwt>
<pdfrwt beam="2">  1       21 0.15815510E-01 0.14593821E+03</pdfrwt>
<totfact> 0.32411705E+05</totfact>
</mgrwt>
</event>
<event>
 6    1  0.4259848E-002  0.1346421E+03  0.7546771E-02  0.1220726E+00
         21   -1    0    0  503  502  0.00000000000E+00  0.00000000000E+00  0.29083754680E+03  0.29083754680E+03  0.00000000000E+00 0. -1.
         21   -1    0    0  504  503 -0.00000000000E+00 -0.00000000000E+00 -0.31383764710E+02  0.31383764710E+02  0.00000000000E+00 0. -1.
         25    2    1    2    0    0  0.34024896688E+02  0.36704302124E+02  0.22227442510E+03  0.25987386589E+03  0.12499442680E+03 0.  0.
          5    1    3    3  501    0  0.32408405124E+02  0.27325388835E+02  0.53345115991E+01  0.42725269006E+02  0.10000000000E+00 0.  1.
         -5    1    3    3    0  501  0.16164915645E+01  0.93789132892E+01  0.21693991350E+03  0.21714859688E+03  0.10000000000E+00 0.  1.
         21    1    1    2  504  502 -0.34024896688E+02 -0.36704302124E+02  0.37179356991E+02  0.62347445620E+02  0.00000000000E+00 0. -1.
<mgrwt>
<rscale>  1 0.13464214E+03</rscale>
<asrwt>0</asrwt>
<pdfrwt beam="1">  1       21 0.44744236E-01 0.13464214E+03</pdfrwt>
<pdfrwt beam="2">  1       21 0.48282717E-02 0.13464214E+03</pdfrwt>
<totfact> 0.13676455E+06</totfact>
</mgrwt>
</event>
<event>
 6    1  0.4259848E-002  0.1382238E+03  0.7546771E-02  0.1215739E+00
         21   -1    0    0  504  502  0.00000000000E+00  0.00000000000E+00  0.62286227419E+03  0.62286227419E+03  0.00000000000E+00 0.  1.
         21   -1    0    0  502  503 -0.00000000000E+00 -0.00000000000E+00 -0.54613159471E+02  0.54613159471E+02  0.00000000000E+00 0.  1.
         25    2    1    2    0    0  0.52028484080E+02 -0.27773844447E+02  0.59634005365E+03  0.61214970794E+03  0.12500982263E+03 0.  0.
          5    1    3    3  501    0  0.65914012779E+02 -0.56099560132E+02  0.54545210903E+03  0.55227695133E+03  0.10000000000E+00 0.  1.
         -5    1    3    3    0  501 -0.13885528699E+02  0.28325715685E+02  0.50887944625E+02  0.59872756613E+02  0.10000000000E+00 0.  1.
         21    1    1    2  504  503 -0.52028484080E+02  0.27773844447E+02 -0.28090938930E+02  0.65325725722E+02  0.00000000000E+00 0.  1.
<mgrwt>
<rscale>  1 0.13822375E+03</rscale>
<asrwt>0</asrwt>
<pdfrwt beam="1">  1       21 0.95824960E-01 0.13822375E+03</pdfrwt>
<pdfrwt beam="2">  1       21 0.84020250E-02 0.13822375E+03</pdfrwt>
<totfact> 0.10228819E+05</totfact>
</mgrwt>
</event>
<event>
 6    1  0.4259848E-002  0.1267596E+03  0.7546771E-02  0.1232345E+00
         21   -1    0    0  503  502  0.00000000000E+00  0.00000000000E+00  0.17696753916E+02  0.17696753916E+02  0.00000000000E+00 0.  1.
         21   -1    0    0  504  503 -0.00000000000E+00 -0.00000000000E+00 -0.31431686928E+03  0.31431686928E+03  0.00000000000E+00 0.  1.
         25    2    1    2    0    0 -0.18493628665E+02 -0.10090953076E+02 -0.23681576594E+03  0.26860698438E+03  0.12499665367E+03 0.  0.
          5    1    3    3  501    0  0.81059593995E+01 -0.17881227187E+02 -0.23991517658E+03  0.24071715107E+03  0.10000000000E+00 0.  1.
         -5    1    3    3    0  501 -0.26599588065E+02  0.77902741107E+01  0.30994106460E+01  0.27889833314E+02  0.10000000000E+00 0.  1.
         21    1    1    2  504  502  0.18493628665E+02  0.10090953076E+02 -0.59804349425E+02  0.63406638811E+02  0.00000000000E+00 0. -1.
<mgrwt>
<rscale>  1 0.12675963E+03</rscale>
<asrwt>0</asrwt>
<pdfrwt beam="1">  1       21 0.27225774E-02 0.12675963E+03</pdfrwt>
<pdfrwt beam="2">  1       21 0.48356444E-01 0.12675963E+03</pdfrwt>
<totfact> 0.30073755E+06</totfact>
</mgrwt>
</event>
<event>
 6    1  0.4259848E-002  0.1596193E+03  0.7546771E-02  0.1189127E+00
         21   -1    0    0  503  502  0.00000000000E+00  0.00000000000E+00  0.18642462734E+03  0.18642462734E+03  0.00000000000E+00 0. -1.
         21   -1    0    0  504  503 -0.00000000000E+00 -0.00000000000E+00 -0.28311634375E+03  0.28311634375E+03  0.00000000000E+00 0. -1.
         25    2    1    2    0    0 -0.85610524255E+01  0.98890539378E+02  0.14035518795E+03  0.21255096104E+03  0.12500280740E+03 0.  0.
          5    1    3    3  501    0 -0.55916542739E+02  0.49467440271E+02  0.11966458190E+03  0.14104364416E+03  0.10000000000E+00 0.  1.
         -5    1    3    3    0  501  0.47355490314E+02  0.49423099107E+02  0.20690606050E+02  0.71507316877E+02  0.10000000000E+00 0.  1.
         21    1    1    2  504  502  0.85610524255E+01 -0.98890539378E+02 -0.23704690436E+03  0.25699001005E+03  0.00000000000E+00 0. -1.
<mgrwt>
<rscale>  1 0.15961934E+03</rscale>
<asrwt>0</asrwt>
<pdfrwt beam="1">  1       21 0.28680712E-01 0.15961934E+03</pdfrwt>
<pdfrwt beam="2">  1       21 0.43556360E-01 0.15961934E+03</pdfrwt>
<totfact> 0.59835940E+04</totfact>
</mgrwt>
</event>
<event>
 6    1  0.4259848E-002  0.1260942E+03  0.7546771E-02  0.1233369E+00
         21   -1    0    0  504  502  0.00000000000E+00  0.00000000000E+00  0.76357736619E+02  0.76357736619E+02  0.00000000000E+00 0.  1.
         21   -1    0    0  502  503 -0.00000000000E+00 -0.00000000000E+00 -0.50334428283E+03  0.50334428283E+03  0.00000000000E+00 0.  1.
         25    2    1    2    0    0 -0.13938240036E+02 -0.89925550281E+01  0.24044330760E+02  0.12836623252E+03  0.12499847690E+03 0.  0.
          5    1    3    3  501    0 -0.15781331384E+02  0.23793602326E+02  0.67853616468E+02  0.73615957507E+02  0.10000000000E+00 0.  1.
         -5    1    3    3    0  501  0.18430913472E+01 -0.32786157354E+02 -0.43809285707E+02  0.54750275013E+02  0.10000000000E+00 0.  1.
         21    1    1    2  504  503  0.13938240036E+02  0.89925550281E+01 -0.45103087697E+03  0.45133578693E+03  0.00000000000E+00 0.  1.
<mgrwt>
<rscale>  1 0.12609425E+03</rscale>
<asrwt>0</asrwt>
<pdfrwt beam="1">  1       21 0.11747344E-01 0.12609425E+03</pdfrwt>
<pdfrwt beam="2">  1       21 0.77437581E-01 0.12609425E+03</pdfrwt>
<totfact> 0.92760156E+04</totfact>
</mgrwt>
</event>
<event>
 6    1  0.4259848E-002  0.1329425E+03  0.7546771E-02  0.1223154E+00
         21   -1    0    0  504  502  0.00000000000E+00  0.00000000000E+00  0.13874470946E+03  0.13874470946E+03  0.00000000000E+00 0. -1.
         21   -1    0    0  502  503 -0.00000000000E+00 -0.00000000000E+00 -0.86907724663E+02  0.86907724663E+02  0.00000000000E+00 0. -1.
         25    2    1    2    0    0  0.34112552289E+02 -0.29741824605E+02  0.94775414299E+02  0.16326693033E+03  0.12500187611E+03 0.  0.
          5    1    3    3  501    0 -0.15282651126E+02 -0.60599618422E+02  0.82913818512E+02  0.10382959346E+03  0.10000000000E+00 0.  1.
         -5    1    3    3    0  501  0.49395203415E+02  0.30857793817E+02  0.11861595787E+02  0.59437336871E+02  0.10000000000E+00 0.  1.
         21    1    1    2  504  503 -0.34112552289E+02  0.29741824605E+02 -0.42938429504E+02  0.62385503787E+02  0.00000000000E+00 0. -1.
<mgrwt>
<rscale>  1 0.13294251E+03</rscale>
<asrwt>0</asrwt>
<pdfrwt beam="1">  1       21 0.21345340E-01 0.13294251E+03</pdfrwt>
<pdfrwt beam="2">  1       21 0.13370419E-01 0.13294251E+03</pdfrwt>
<totfact> 0.98865969E+05</totfact>
</mgrwt>
</event>
<event>
 6    1  0.4259848E-002  0.1869205E+03  0.7546771E-02  0.1161268E+00
         21   -1    0    0  503  502  0.00000000000E+00  0.00000000000E+00  0.77965008122E+02  0.77965008122E+02  0.00000000000E+00 0. -1.
         21   -1    0    0  504  503 -0.00000000000E+00 -0.00000000000E+00 -0.41047281562E+03  0.41047281562E+03  0.00000000000E+00 0. -1.
         25    2    1    2    0    0 -0.52820978294E+02  0.12855105492E+03 -0.86674205694E+02  0.20603812607E+03  0.12499544789E+03 0.  0.
          5    1    3    3  501    0 -0.69970198022E+02  0.10047847393E+03 -0.10291424673E+02  0.12287259969E+03  0.10000000000E+00 0.  1.
         -5    1    3    3    0  501  0.17149219728E+02  0.28072580993E+02 -0.76382781021E+02  0.83165526376E+02  0.10000000000E+00 0.  1.
         21    1    1    2  504  502  0.52820978294E+02 -0.12855105492E+03 -0.24583360180E+03  0.28239969767E+03  0.00000000000E+00 0. -1.
<mgrwt>
<rscale>  1 0.18692055E+03</rscale>
<asrwt>0</asrwt>
<pdfrwt beam="1">  1       21 0.11994617E-01 0.18692055E+03</pdfrwt>
<pdfrwt beam="2">  1       21 0.63149662E-01 0.18692055E+03</pdfrwt>
<totfact> 0.13655083E+05</totfact>
</mgrwt>
</event>
<event>
 6    1  0.4259848E-002  0.1290917E+03  0.7546771E-02  0.1228810E+00
         21   -1    0    0  503  502  0.00000000000E+00  0.00000000000E+00  0.47951713947E+02  0.47951713947E+02  0.00000000000E+00 0. -1.
         21   -1    0    0  504  503 -0.00000000000E+00 -0.00000000000E+00 -0.14040651293E+03  0.14040651293E+03  0.00000000000E+00 0. -1.
         25    2    1    2    0    0  0.12543574575E+02 -0.29716273052E+02 -0.59161552763E+02  0.14200266204E+03  0.12499707419E+03 0.  0.
          5    1    3    3  501    0  0.58648740005E+00  0.27272738308E+01  0.38396774307E+02  0.38498107319E+02  0.10000000000E+00 0. -1.
         -5    1    3    3    0  501  0.11957087175E+02 -0.32443546883E+02 -0.97558327070E+02  0.10350455472E+03  0.10000000000E+00 0. -1.
         21    1    1    2  504  502 -0.12543574575E+02  0.29716273052E+02 -0.33293246223E+02  0.46355564836E+02  0.00000000000E+00 0. -1.
<mgrwt>
<rscale>  1 0.12909170E+03</rscale>
<asrwt>0</asrwt>
<pdfrwt beam="1">  1       21 0.73771869E-02 0.12909170E+03</pdfrwt>
<pdfrwt beam="2">  1       21 0.21601002E-01 0.12909170E+03</pdfrwt>
<totfact> 0.27355786E+06</totfact>
</mgrwt>
</event>
<event>
 6    1  0.4259848E-002  0.1598733E+03  0.7546771E-02  0.1188840E+00
         21   -1    0    0  504  502  0.00000000000E+00  0.00000000000E+00  0.15541273260E+03  0.15541273260E+03  0.00000000000E+00 0. -1.
         21   -1    0    0  502  503 -0.00000000000E+00 -0.00000000000E+00 -0.11813686355E+04  0.11813686355E+04  0.00000000000E+00 0. -1.
         25    2    1    2    0    0  0.50436374745E+02 -0.85971944113E+02  0.11153310919E+03  0.19493363058E+03  0.12499793125E+03 0.  0.
          5    1    3    3  501    0  0.77516431282E+02 -0.28514881352E+02  0.22572411813E+02  0.85623707887E+02  0.10000000000E+00 0. -1.
         -5    1    3    3    0  501 -0.27080056537E+02 -0.57457062761E+02  0.88960697372E+02  0.10930992270E+03  0.10000000000E+00 0. -1.
         21    1    1    2  504  503 -0.50436374745E+02  0.85971944113E+02 -0.11374890121E+04  0.11418477376E+04  0.00000000000E+00 0. -1.
<mgrwt>
<rscale>  1 0.15987334E+03</rscale>
<asrwt>0</asrwt>
<pdfrwt beam="1">  1       21 0.23909651E-01 0.15987334E+03</pdfrwt>
<pdfrwt beam="2">  1       21 0.18174902E+00 0.15987334E+03</pdfrwt>
<totfact> 0.30199094E+03</totfact>
</mgrwt>
</event>
<event>
 6    1  0.4259848E-002  0.1291211E+03  0.7546771E-02  0.1228766E+00
         21   -1    0    0  503  502  0.00000000000E+00  0.00000000000E+00  0.10729897438E+04  0.10729897438E+04  0.00000000000E+00 0. -1.
         21   -1    0    0  504  503 -0.00000000000E+00 -0.00000000000E+00 -0.61499878551E+01  0.61499878551E+01  0.00000000000E+00 0. -1.
         25    2    1    2    0    0  0.23806219761E+02 -0.21942456892E+02  0.80187214225E+03  0.81220145448E+03  0.12499625047E+03 0.  0.
          5    1    3    3  501    0  0.16727873865E+02 -0.28478978509E+02  0.47988037880E+02  0.58255778774E+02  0.10000000000E+00 0. -1.
         -5    1    3    3    0  501  0.70783458957E+01  0.65365216175E+01  0.75388410437E+03  0.75394567571E+03  0.10000000000E+00 0. -1.
         21    1    1    2  504  502 -0.23806219761E+02  0.21942456892E+02  0.26496761372E+03  0.26693827720E+03  0.00000000000E+00 0. -1.
<mgrwt>
<rscale>  1 0.12912115E+03</rscale>
<asrwt>0</asrwt>
<pdfrwt beam="1">  1       21 0.16507520E+00 0.12912115E+03</pdfrwt>
<pdfrwt beam="2">  1       21 0.94615283E-03 0.12912115E+03</pdfrwt>
<totfact> 0.96051340E+05</totfact>
</mgrwt>
</event>
<event>
 6    1  0.4259848E-002  0.1263436E+03  0.7546771E-02  0.1232984E+00
         21   -1    0    0  504  502  0.00000000000E+00  0.00000000000E+00  0.43890002251E+03  0.43890002251E+03  0.00000000000E+00 0. -1.
         21   -1    0    0  502  503 -0.00000000000E+00 -0.00000000000E+00 -0.18129274408E+02  0.18129274408E+02  0.00000000000E+00 0. -1.
         25    2    1    2    0    0 -0.17307197950E+02 -0.63076804206E+01  0.42000072242E+03  0.43859240801E+03  0.12499347022E+03 0.  0.
          5    1    3    3  501    0 -0.24057015034E+02 -0.35830269300E+00  0.64036818234E+01  0.24897499755E+02  0.10000000000E+00 0.  1.
         -5    1    3    3    0  501  0.67498170837E+01 -0.59493777276E+01  0.41359704059E+03  0.41369490825E+03  0.10000000000E+00 0.  1.
         21    1    1    2  504  503  0.17307197950E+02  0.63076804206E+01  0.77002568589E+00  0.18436888911E+02  0.00000000000E+00 0. -1.
<mgrwt>
<rscale>  1 0.12634355E+03</rscale>
<asrwt>0</asrwt>
<pdfrwt beam="1">  1       21 0.67523073E-01 0.12634355E+03</pdfrwt>
<pdfrwt beam="2">  1       21 0.27891195E-02 0.12634355E+03</pdfrwt>
<totfact> 0.14308786E+06</totfact>
</mgrwt>
</event>
<event>
 6    1  0.4259848E-002  0.1310351E+03  0.7546771E-02  0.1225928E+00
         21   -1    0    0  503  502  0.00000000000E+00  0.00000000000E+00  0.14747367567E+03  0.14747367567E+03  0.00000000000E+00 0.  1.
         21   -1    0    0  504  503 -0.00000000000E+00 -0.00000000000E+00 -0.65195857690E+02  0.65195857690E+02  0.00000000000E+00 0.  1.
         25    2    1    2    0    0 -0.35815424434E+02 -0.16202649131E+02  0.10442028268E+03  0.16755236136E+03  0.12499971159E+03 0.  0.
          5    1    3    3  501    0 -0.10487432075E+01 -0.67162960216E+02  0.39175146993E+02  0.77760306258E+02  0.10000000000E+00 0.  1.
         -5    1    3    3    0  501 -0.34766681226E+02  0.50960311085E+02  0.65245135685E+02  0.89792055105E+02  0.10000000000E+00 0.  1.
         21    1    1    2  504  502  0.35815424434E+02  0.16202649131E+02 -0.22142464697E+02  0.45117171998E+02  0.00000000000E+00 0.  1.
<mgrwt>
<rscale>  1 0.13103510E+03</rscale>
<asrwt>0</asrwt>
<pdfrwt beam="1">  1       21 0.22688258E-01 0.13103510E+03</pdfrwt>
<pdfrwt beam="2">  1       21 0.10030132E-01 0.13103510E+03</pdfrwt>
<totfact> 0.14663928E+06</totfact>
</mgrwt>
</event>
<event>
 6    1  0.4259848E-002  0.1448152E+03  0.7546771E-02  0.1206993E+00
         21   -1    0    0  503  502  0.00000000000E+00  0.00000000000E+00  0.42467258977E+02  0.42467258977E+02  0.00000000000E+00 0.  1.
         21   -1    0    0  504  503 -0.00000000000E+00 -0.00000000000E+00 -0.35977068330E+03  0.35977068330E+03  0.00000000000E+00 0. -1.
         25    2    1    2    0    0 -0.41706659079E+02  0.59949825209E+02 -0.10826999166E+03  0.18081435969E+03  0.12505204765E+03 0.  0.
          5    1    3    3  501    0  0.35287581255E+02 -0.42315460004E+01 -0.33326878565E+01  0.35696444931E+02  0.10000000000E+00 0.  1.
         -5    1    3    3    0  501 -0.76994240334E+02  0.64181371209E+02 -0.10493730380E+03  0.14511791476E+03  0.10000000000E+00 0.  1.
         21    1    1    2  504  502  0.41706659079E+02 -0.59949825209E+02 -0.20903343267E+03  0.22142358259E+03  0.00000000000E+00 0. -1.
<mgrwt>
<rscale>  1 0.14481520E+03</rscale>
<asrwt>0</asrwt>
<pdfrwt beam="1">  1       21 0.65334247E-02 0.14481520E+03</pdfrwt>
<pdfrwt beam="2">  1       21 0.55349334E-01 0.14481520E+03</pdfrwt>
<totfact> 0.52803353E+05</totfact>
</mgrwt>
</event>
<event>
 6    1  0.4259848E-002  0.1473037E+03  0.7546771E-02  0.1203826E+00
         21   -1    0    0  504  502  0.00000000000E+00  0.00000000000E+00  0.38019084119E+02  0.38019084119E+02  0.00000000000E+00 0. -1.
         21   -1    0    0  502  503 -0.00000000000E+00 -0.00000000000E+00 -0.54361742518E+03  0.54361742518E+03  0.00000000000E+00 0. -1.
         25    2    1    2    0    0 -0.11584409244E+01 -0.77926598676E+02 -0.12515608819E+03  0.19329361373E+03  0.12499791171E+03 0.  0.
          5    1    3    3  501    0  0.37918962740E+01 -0.11226437269E+03 -0.90413454725E+02  0.14419525182E+03  0.10000000000E+00 0.  1.
         -5    1    3    3    0  501 -0.49503371985E+01  0.34337774011E+02 -0.34742633465E+02  0.49098361912E+02  0.10000000000E+00 0.  1.
         21    1    1    2  504  503  0.11584409244E+01  0.77926598676E+02 -0.38044225287E+03  0.38834289556E+03  0.00000000000E+00 0. -1.
<mgrwt>
<rscale>  1 0.14730368E+03</rscale>
<asrwt>0</asrwt>
<pdfrwt beam="1">  1       21 0.58490899E-02 0.14730368E+03</pdfrwt>
<pdfrwt beam="2">  1       21 0.83633450E-01 0.14730368E+03</pdfrwt>
<totfact> 0.25927306E+05</totfact>
</mgrwt>
</event>
<event>
 6    1  0.4259848E-002  0.1278076E+03  0.7546771E-02  0.1230746E+00
         21   -1    0    0  503  502  0.00000000000E+00  0.00000000000E+00  0.14085654973E+02  0.14085654973E+02  0.00000000000E+00 0. -1.
         21   -1    0    0  504  503 -0.00000000000E+00 -0.00000000000E+00 -0.46918746229E+03  0.46918746229E+03  0.00000000000E+00 0. -1.
         25    2    1    2    0    0 -0.16136846222E+02 -0.21156371146E+02 -0.30285447834E+03  0.32871814637E+03  0.12500717923E+03 0.  0.
          5    1    3    3  501    0  0.36723378792E+02  0.34966657902E+02 -0.12114472484E+03  0.13132908311E+03  0.10000000000E+00 0. -1.
         -5    1    3    3    0  501 -0.52860225013E+02 -0.56123029048E+02 -0.18170975350E+03  0.19738906326E+03  0.10000000000E+00 0. -1.
         21    1    1    2  504  502  0.16136846222E+02  0.21156371146E+02 -0.15224732898E+03  0.15455497089E+03  0.00000000000E+00 0. -1.
<mgrwt>
<rscale>  1 0.12780761E+03</rscale>
<asrwt>0</asrwt>
<pdfrwt beam="1">  1       21 0.21670245E-02 0.12780761E+03</pdfrwt>
<pdfrwt beam="2">  1       21 0.72182665E-01 0.12780761E+03</pdfrwt>
<totfact> 0.18653652E+06</totfact>
</mgrwt>
</event>
<event>
 6    1  0.4259848E-002  0.1318690E+03  0.7546771E-02  0.1224709E+00
         21   -1    0    0  503  502  0.00000000000E+00  0.00000000000E+00  0.14602609626E+03  0.14602609626E+03  0.00000000000E+00 0. -1.
         21   -1    0    0  504  503 -0.00000000000E+00 -0.00000000000E+00 -0.74369461252E+02  0.74369461252E+02  0.00000000000E+00 0. -1.
         25    2    1    2    0    0  0.34679177510E+02  0.23704693445E+02  0.10353926028E+03  0.16765980456E+03  0.12499949521E+03 0.  0.
          5    1    3    3  501    0 -0.13984356432E+02  0.49552626712E+02  0.12854161202E+01  0.51504245781E+02  0.10000000000E+00 0. -1.
         -5    1    3    3    0  501  0.48663533942E+02 -0.25847933267E+02  0.10225384416E+03  0.11615555878E+03  0.10000000000E+00 0. -1.
         21    1    1    2  504  502 -0.34679177510E+02 -0.23704693445E+02 -0.31882625278E+02  0.52735752946E+02  0.00000000000E+00 0. -1.
<mgrwt>
<rscale>  1 0.13186899E+03</rscale>
<asrwt>0</asrwt>
<pdfrwt beam="1">  1       21 0.22465553E-01 0.13186899E+03</pdfrwt>
<pdfrwt beam="2">  1       21 0.11441456E-01 0.13186899E+03</pdfrwt>
<totfact> 0.11851694E+06</totfact>
</mgrwt>
</event>
<event>
 6    1  0.4259848E-002  0.1330177E+03  0.7546771E-02  0.1223045E+00
         21   -1    0    0  504  502  0.00000000000E+00  0.00000000000E+00  0.83124759139E+02  0.83124759139E+02  0.00000000000E+00 0.  1.
         21   -1    0    0  502  503 -0.00000000000E+00 -0.00000000000E+00 -0.20327825937E+03  0.20327825937E+03  0.00000000000E+00 0.  1.
         25    2    1    2    0    0 -0.45149933606E+02 -0.53335301856E+01  0.24074803289E+02  0.13517879233E+03  0.12500698657E+03 0.  0.
          5    1    3    3  501    0 -0.86822348529E+02 -0.19064645818E+02  0.12202996600E+02  0.89724601143E+02  0.10000000000E+00 0. -1.
         -5    1    3    3    0  501  0.41672414923E+02  0.13731115632E+02  0.11871806689E+02  0.45454191183E+02  0.10000000000E+00 0. -1.
         21    1    1    2  504  503  0.45149933606E+02  0.53335301856E+01 -0.14422830352E+03  0.15122422619E+03  0.00000000000E+00 0.  1.
<mgrwt>
<rscale>  1 0.13301770E+03</rscale>
<asrwt>0</asrwt>
<pdfrwt beam="1">  1       21 0.12788425E-01 0.13301770E+03</pdfrwt>
<pdfrwt beam="2">  1       21 0.31273578E-01 0.13301770E+03</pdfrwt>
<totfact> 0.51824596E+05</totfact>
</mgrwt>
</event>
<event>
 6    1  0.4259848E-002  0.1259925E+03  0.7546771E-02  0.1233526E+00
         21   -1    0    0  503  502  0.00000000000E+00  0.00000000000E+00  0.13248939926E+03  0.13248939926E+03  0.00000000000E+00 0.  1.
         21   -1    0    0  504  503 -0.00000000000E+00 -0.00000000000E+00 -0.14655711940E+03  0.14655711940E+03  0.00000000000E+00 0.  1.
         25    2    1    2    0    0 -0.71624116245E+01  0.14065069460E+02  0.10187979747E+03  0.16202962604E+03  0.12499992106E+03 0.  0.
          5    1    3    3  501    0  0.28902952242E+02  0.48609357160E+02  0.99657085460E+01  0.57424520882E+02  0.10000000000E+00 0.  1.
         -5    1    3    3    0  501 -0.36065363866E+02 -0.34544287699E+02  0.91914088923E+02  0.10460510516E+03  0.10000000000E+00 0.  1.
         21    1    1    2  504  502  0.71624116245E+01 -0.14065069460E+02 -0.11594751761E+03  0.11701689262E+03  0.00000000000E+00 0.  1.
<mgrwt>
<rscale>  1 0.12599249E+03</rscale>
<asrwt>0</asrwt>
<pdfrwt beam="1">  1       21 0.20382985E-01 0.12599249E+03</pdfrwt>
<pdfrwt beam="2">  1       21 0.22547249E-01 0.12599249E+03</pdfrwt>
<totfact> 0.41476266E+05</totfact>
</mgrwt>
</event>
<event>
 6    1  0.4259848E-002  0.1522583E+03  0.7546771E-02  0.1197725E+00
         21   -1    0    0  503  502  0.00000000000E+00  0.00000000000E+00  0.10880565498E+04  0.10880565498E+04  0.00000000000E+00 0.  1.
         21   -1    0    0  504  503 -0.00000000000E+00 -0.00000000000E+00 -0.36560677890E+02  0.36560677890E+02  0.00000000000E+00 0.  1.
         25    2    1    2    0    0  0.19998969351E+02  0.84615521194E+02  0.10212835216E+04  0.10325708735E+04  0.12499132843E+03 0.  0.
          5    1    3    3  501    0 -0.48921993817E+01  0.79528999448E+02  0.28720578703E+03  0.29805363523E+03  0.10000000000E+00 0. -1.
         -5    1    3    3    0  501  0.24891168732E+02  0.50865217458E+01  0.73407773456E+03  0.73451723830E+03  0.10000000000E+00 0. -1.
         21    1    1    2  504  502 -0.19998969351E+02 -0.84615521194E+02  0.30212350312E+02  0.92046354156E+02  0.00000000000E+00 0.  1.
<mgrwt>
<rscale>  1 0.15225826E+03</rscale>
<asrwt>0</asrwt>
<pdfrwt beam="1">  1       21 0.16739329E+00 0.15225826E+03</pdfrwt>
<pdfrwt beam="2">  1       21 0.56247205E-02 0.15225826E+03</pdfrwt>
<totfact> 0.50258617E+04</totfact>
</mgrwt>
</event>
<event>
 6    1  0.4259848E-002  0.1269711E+03  0.7546771E-02  0.1232021E+00
         21   -1    0    0  503  502  0.00000000000E+00  0.00000000000E+00  0.16437557080E+02  0.16437557080E+02  0.00000000000E+00 0.  1.
         21   -1    0    0  504  503 -0.00000000000E+00 -0.00000000000E+00 -0.38265841140E+03  0.38265841140E+03  0.00000000000E+00 0.  1.
         25    2    1    2    0    0  0.25602424216E+01 -0.22144112800E+02 -0.24609717177E+03  0.27692143888E+03  0.12499899514E+03 0.  0.
          5    1    3    3  501    0  0.51595695381E+02  0.20117605954E+02 -0.15923819951E+03  0.16859314350E+03  0.10000000000E+00 0. -1.
         -5    1    3    3    0  501 -0.49035452959E+02 -0.42261718754E+02 -0.86858972251E+02  0.10832829538E+03  0.10000000000E+00 0. -1.
         21    1    1    2  504  502 -0.25602424216E+01  0.22144112800E+02 -0.12012368256E+03  0.12217452960E+03  0.00000000000E+00 0.  1.
<mgrwt>
<rscale>  1 0.12697112E+03</rscale>
<asrwt>0</asrwt>
<pdfrwt beam="1">  1       21 0.25288548E-02 0.12697112E+03</pdfrwt>
<pdfrwt beam="2">  1       21 0.58870528E-01 0.12697112E+03</pdfrwt>
<totfact> 0.22516309E+06</totfact>
</mgrwt>
</event>
<event>
 6    1  0.4259848E-002  0.1311313E+03  0.7546771E-02  0.1225787E+00
         21   -1    0    0  504  502  0.00000000000E+00  0.00000000000E+00  0.24147422494E+03  0.24147422494E+03  0.00000000000E+00 0.  1.
         21   -1    0    0  502  503 -0.00000000000E+00 -0.00000000000E+00 -0.13219547671E+04  0.13219547671E+04  0.00000000000E+00 0.  1.
         25    2    1    2    0    0 -0.98869572178E+01  0.38384291195E+02  0.22334826637E+03  0.25899782571E+03  0.12499727956E+03 0.  0.
          5    1    3    3  501    0 -0.11893552987E+02 -0.42675613337E+01 -0.13406660412E+02  0.18423279453E+02  0.10000000000E+00 0. -1.
         -5    1    3    3    0  501  0.20065957691E+01  0.42651852528E+02  0.23675492678E+03  0.24057454626E+03  0.10000000000E+00 0. -1.
         21    1    1    2  504  503  0.98869572178E+01 -0.38384291195E+02 -0.13038288085E+04  0.13044311663E+04  0.00000000000E+00 0.  1.
<mgrwt>
<rscale>  1 0.13113133E+03</rscale>
<asrwt>0</asrwt>
<pdfrwt beam="1">  1       21 0.37149881E-01 0.13113133E+03</pdfrwt>
<pdfrwt beam="2">  1       21 0.20337765E+00 0.13113133E+03</pdfrwt>
<totfact> 0.96912756E+02</totfact>
</mgrwt>
</event>
<event>
 6    1  0.4259848E-002  0.1275395E+03  0.7546771E-02  0.1231153E+00
         21   -1    0    0  503  502  0.00000000000E+00  0.00000000000E+00  0.54344435909E+02  0.54344435909E+02  0.00000000000E+00 0. -1.
         21   -1    0    0  504  503 -0.00000000000E+00 -0.00000000000E+00 -0.12308491923E+03  0.12308491923E+03  0.00000000000E+00 0. -1.
         25    2    1    2    0    0  0.61294123357E+01 -0.24557899409E+02 -0.79103405709E+02  0.15007884729E+03  0.12500260593E+03 0.  0.
          5    1    3    3  501    0  0.45124314413E+02 -0.49989053251E+02 -0.78623033805E+02  0.10352149845E+03  0.10000000000E+00 0. -1.
         -5    1    3    3    0  501 -0.38994902077E+02  0.25431153842E+02 -0.48037190336E+00  0.46557348839E+02  0.10000000000E+00 0. -1.
         21    1    1    2  504  502 -0.61294123357E+01  0.24557899409E+02  0.10362922393E+02  0.27350507847E+02  0.00000000000E+00 0. -1.
<mgrwt>
<rscale>  1 0.12753945E+03</rscale>
<asrwt>0</asrwt>
<pdfrwt beam="1">  1       21 0.83606825E-02 0.12753945E+03</pdfrwt>
<pdfrwt beam="2">  1       21 0.18936141E-01 0.12753945E+03</pdfrwt>
<totfact> 0.28125180E+06</totfact>
</mgrwt>
</event>
<event>
 6    1  0.4259848E-002  0.1283162E+03  0.7546771E-02  0.1229976E+00
         21   -1    0    0  504  502  0.00000000000E+00  0.00000000000E+00  0.58599806595E+02  0.58599806595E+02  0.00000000000E+00 0.  1.
         21   -1    0    0  502  503 -0.00000000000E+00 -0.00000000000E+00 -0.14745297041E+03  0.14745297041E+03  0.00000000000E+00 0.  1.
         25    2    1    2    0    0  0.26771294253E+02  0.11168436872E+02 -0.18102982589E+02  0.12958693939E+03  0.12499448270E+03 0.  0.
          5    1    3    3  501    0  0.15625147252E+02 -0.35106728500E+02  0.39334871328E+02  0.54989723722E+02  0.10000000000E+00 0. -1.
         -5    1    3    3    0  501  0.11146147001E+02  0.46275165372E+02 -0.57437853917E+02  0.74597215671E+02  0.10000000000E+00 0. -1.
         21    1    1    2  504  503 -0.26771294253E+02 -0.11168436872E+02 -0.70750181231E+02  0.76465837616E+02  0.00000000000E+00 0.  1.
<mgrwt>
<rscale>  1 0.12831624E+03</rscale>
<asrwt>0</asrwt>
<pdfrwt beam="1">  1       21 0.90153548E-02 0.12831624E+03</pdfrwt>
<pdfrwt beam="2">  1       21 0.22685072E-01 0.12831624E+03</pdfrwt>
<totfact> 0.17657966E+06</totfact>
</mgrwt>
</event>
<event>
 6    1  0.4259848E-002  0.1259395E+03  0.7546771E-02  0.1233608E+00
         21   -1    0    0  504  502  0.00000000000E+00  0.00000000000E+00  0.59601995353E+02  0.59601995353E+02  0.00000000000E+00 0.  1.
         21   -1    0    0  502  503 -0.00000000000E+00 -0.00000000000E+00 -0.85515477982E+02  0.85515477982E+02  0.00000000000E+00 0.  1.
         25    2    1    2    0    0 -0.15057353270E+02  0.31137998265E+01 -0.16315854273E+02  0.12699196350E+03  0.12499732819E+03 0.  0.
          5    1    3    3  501    0  0.29741524242E+02 -0.48607518165E+02 -0.13211155474E+02  0.58496100002E+02  0.10000000000E+00 0. -1.
         -5    1    3    3    0  501 -0.44798877513E+02  0.51721317992E+02 -0.31046987984E+01  0.68495863494E+02  0.10000000000E+00 0. -1.
         21    1    1    2  504  503  0.15057353270E+02 -0.31137998265E+01 -0.95976283562E+01  0.18125509839E+02  0.00000000000E+00 0.  1.
<mgrwt>
<rscale>  1 0.12593948E+03</rscale>
<asrwt>0</asrwt>
<pdfrwt beam="1">  1       21 0.91695377E-02 0.12593948E+03</pdfrwt>
<pdfrwt beam="2">  1       21 0.13156227E-01 0.12593948E+03</pdfrwt>
<totfact> 0.46300601E+06</totfact>
</mgrwt>
</event>
<event>
 6    1  0.4259848E-002  0.1268178E+03  0.7546771E-02  0.1232255E+00
         21   -1    0    0  504  502  0.00000000000E+00  0.00000000000E+00  0.12892427066E+03  0.12892427066E+03  0.00000000000E+00 0. -1.
         21   -1    0    0  502  503 -0.00000000000E+00 -0.00000000000E+00 -0.45897737786E+02  0.45897737786E+02  0.00000000000E+00 0. -1.
         25    2    1    2    0    0  0.12050305492E+02  0.17708181445E+02  0.85956196778E+02  0.15320320914E+03  0.12499586383E+03 0.  0.
          5    1    3    3  501    0  0.17443229558E+01  0.38070486344E+02  0.11215787377E+03  0.11845591265E+03  0.10000000000E+00 0. -1.
         -5    1    3    3    0  501  0.10305982536E+02 -0.20362304900E+02 -0.26201676987E+02  0.34747296496E+02  0.10000000000E+00 0. -1.
         21    1    1    2  504  503 -0.12050305492E+02 -0.17708181445E+02 -0.29296639085E+01  0.21618799299E+02  0.00000000000E+00 0. -1.
<mgrwt>
<rscale>  1 0.12681780E+03</rscale>
<asrwt>0</asrwt>
<pdfrwt beam="1">  1       21 0.19834503E-01 0.12681780E+03</pdfrwt>
<pdfrwt beam="2">  1       21 0.70611905E-02 0.12681780E+03</pdfrwt>
<totfact> 0.34517348E+06</totfact>
</mgrwt>
</event>
<event>
 6    1  0.4259848E-002  0.1261527E+03  0.7546771E-02  0.1233279E+00
         21   -1    0    0  503  502  0.00000000000E+00  0.00000000000E+00  0.16622051363E+02  0.16622051363E+02  0.00000000000E+00 0.  1.
         21   -1    0    0  504  503 -0.00000000000E+00 -0.00000000000E+00 -0.31486321302E+03  0.31486321302E+03  0.00000000000E+00 0.  1.
         25    2    1    2    0    0  0.12563144864E+02 -0.11452827484E+02 -0.24461475422E+03  0.27522878528E+03  0.12500202558E+03 0.  0.
          5    1    3    3  501    0  0.43960069601E+02 -0.56256073405E+02 -0.14225739259E+03  0.15916786504E+03  0.10000000000E+00 0.  1.
         -5    1    3    3    0  501 -0.31396924737E+02  0.44803245920E+02 -0.10235736163E+03  0.11606092024E+03  0.10000000000E+00 0.  1.
         21    1    1    2  504  502 -0.12563144864E+02  0.11452827484E+02 -0.53626407435E+02  0.56256479099E+02  0.00000000000E+00 0.  1.
<mgrwt>
<rscale>  1 0.12615271E+03</rscale>
<asrwt>0</asrwt>
<pdfrwt beam="1">  1       21 0.25572386E-02 0.12615271E+03</pdfrwt>
<pdfrwt beam="2">  1       21 0.48440495E-01 0.12615271E+03</pdfrwt>
<totfact> 0.33183720E+06</totfact>
</mgrwt>
</event>
<event>
 6    1  0.4259848E-002  0.1339859E+03  0.7546771E-02  0.1221658E+00
         21   -1    0    0  504  502  0.00000000000E+00  0.00000000000E+00  0.35639677258E+03  0.35639677258E+03  0.00000000000E+00 0. -1.
         21   -1    0    0  502  503 -0.00000000000E+00 -0.00000000000E+00 -0.24205144650E+02  0.24205144650E+02  0.00000000000E+00 0. -1.
         25    2    1    2    0    0  0.13931574419E+02 -0.46187183375E+02  0.27406385557E+03  0.30506263875E+03  0.12499948782E+03 0.  0.
          5    1    3    3  501    0  0.29186054267E+02  0.38187311633E+02  0.10613056373E+03  0.11650666544E+03  0.10000000000E+00 0. -1.
         -5    1    3    3    0  501 -0.15254479848E+02 -0.84374495008E+02  0.16793329184E+03  0.18855597331E+03  0.10000000000E+00 0. -1.
         21    1    1    2  504  503 -0.13931574419E+02  0.46187183375E+02  0.58127772356E+02  0.75539278478E+02  0.00000000000E+00 0. -1.
<mgrwt>
<rscale>  1 0.13398588E+03</rscale>
<asrwt>0</asrwt>
<pdfrwt beam="1">  1       21 0.54830269E-01 0.13398588E+03</pdfrwt>
<pdfrwt beam="2">  1       21 0.37238687E-02 0.13398588E+03</pdfrwt>
<totfact> 0.13865563E+06</totfact>
</mgrwt>
</event>
<event>
 6    1  0.4259848E-002  0.1274868E+03  0.7546771E-02  0.1231233E+00
         21   -1    0    0  504  502  0.00000000000E+00  0.00000000000E+00  0.13363110489E+04  0.13363110489E+04  0.00000000000E+00 0.  1.
         21   -1    0    0  502  503 -0.00000000000E+00 -0.00000000000E+00 -0.99014616370E+01  0.99014616370E+01  0.00000000000E+00 0.  1.
         25    2    1    2    0    0 -0.13908728471E+02  0.20838150457E+02  0.13101658390E+04  0.13163538334E+04  0.12500083102E+03 0.  0.
          5    1    3    3  501    0  0.21924390176E+01 -0.32317628112E+02  0.10440436125E+03  0.10931384415E+03  0.10000000000E+00 0.  1.
         -5    1    3    3    0  501 -0.16101167489E+02  0.53155778569E+02  0.12057614778E+04  0.12070399893E+04  0.10000000000E+00 0.  1.
         21    1    1    2  504  503  0.13908728471E+02 -0.20838150457E+02  0.16243748220E+02  0.29858677104E+02  0.00000000000E+00 0.  1.
<mgrwt>
<rscale>  1 0.12748682E+03</rscale>
<asrwt>0</asrwt>
<pdfrwt beam="1">  1       21 0.20558617E+00 0.12748682E+03</pdfrwt>
<pdfrwt beam="2">  1       21 0.15233028E-02 0.12748682E+03</pdfrwt>
<totfact> 0.24465204E+05</totfact>
</mgrwt>
</event>
<event>
 6    1  0.4259848E-002  0.1411074E+03  0.7546771E-02  0.1211847E+00
         21   -1    0    0  504  502  0.00000000000E+00  0.00000000000E+00  0.37957981358E+02  0.37957981358E+02  0.00000000000E+00 0.  1.
         21   -1    0    0  502  503 -0.00000000000E+00 -0.00000000000E+00 -0.58394560805E+03  0.58394560805E+03  0.00000000000E+00 0.  1.
         25    2    1    2    0    0  0.47861685124E+02  0.44674287496E+02 -0.10450362854E+03  0.17559130693E+03  0.12499906330E+03 0.  0.
          5    1    3    3  501    0  0.70693863876E+02 -0.14128877903E+02 -0.80591755367E+02  0.10813088649E+03  0.10000000000E+00 0.  1.
         -5    1    3    3    0  501 -0.22832178751E+02  0.58803165399E+02 -0.23911873177E+02  0.67460420443E+02  0.10000000000E+00 0.  1.
         21    1    1    2  504  503 -0.47861685124E+02 -0.44674287496E+02 -0.44148399815E+03  0.44631228248E+03  0.00000000000E+00 0.  1.
<mgrwt>
<rscale>  1 0.14110740E+03</rscale>
<asrwt>0</asrwt>
<pdfrwt beam="1">  1       21 0.58396894E-02 0.14110740E+03</pdfrwt>
<pdfrwt beam="2">  1       21 0.89837787E-01 0.14110740E+03</pdfrwt>
<totfact> 0.22123746E+05</totfact>
</mgrwt>
</event>
<event>
 6    1  0.4259848E-002  0.1273924E+03  0.7546771E-02  0.1231377E+00
         21   -1    0    0  504  502  0.00000000000E+00  0.00000000000E+00  0.38091939338E+03  0.38091939338E+03  0.00000000000E+00 0.  1.
         21   -1    0    0  502  503 -0.00000000000E+00 -0.00000000000E+00 -0.19371447031E+02  0.19371447031E+02  0.00000000000E+00 0.  1.
         25    2    1    2    0    0  0.21364138710E+02  0.12109309768E+02  0.35129277628E+03  0.37367824341E+03  0.12500301247E+03 0.  0.
          5    1    3    3  501    0 -0.14253474268E+02  0.63375234267E+02  0.17686197145E+03  0.18841377018E+03  0.10000000000E+00 0.  1.
         -5    1    3    3    0  501  0.35617612978E+02 -0.51265924500E+02  0.17443080483E+03  0.18526447324E+03  0.10000000000E+00 0.  1.
         21    1    1    2  504  503 -0.21364138710E+02 -0.12109309768E+02  0.10255170068E+02  0.26612596998E+02  0.00000000000E+00 0.  1.
<mgrwt>
<rscale>  1 0.12739237E+03</rscale>
<asrwt>0</asrwt>
<pdfrwt beam="1">  1       21 0.58602978E-01 0.12739237E+03</pdfrwt>
<pdfrwt beam="2">  1       21 0.29802229E-02 0.12739237E+03</pdfrwt>
<totfact> 0.17387055E+06</totfact>
</mgrwt>
</event>
<event>
 6    1  0.4259848E-002  0.1362939E+03  0.7546771E-02  0.1218405E+00
         21   -1    0    0  504  502  0.00000000000E+00  0.00000000000E+00  0.15449132250E+03  0.15449132250E+03  0.00000000000E+00 0. -1.
         21   -1    0    0  502  503 -0.00000000000E+00 -0.00000000000E+00 -0.68484403007E+02  0.68484403007E+02  0.00000000000E+00 0. -1.
         25    2    1    2    0    0  0.47995312833E+02 -0.25447408305E+02  0.20424096586E+02  0.13781571550E+03  0.12499962830E+03 0.  0.
          5    1    3    3  501    0  0.25393194418E+02  0.49694304908E+02 -0.31161419576E+01  0.55893278699E+02  0.10000000000E+00 0.  1.
         -5    1    3    3    0  501  0.22602118415E+02 -0.75141713212E+02  0.23540238544E+02  0.81922436805E+02  0.10000000000E+00 0.  1.
         21    1    1    2  504  503 -0.47995312833E+02  0.25447408305E+02  0.65582822903E+02  0.85160010001E+02  0.00000000000E+00 0. -1.
<mgrwt>
<rscale>  1 0.13629390E+03</rscale>
<asrwt>0</asrwt>
<pdfrwt beam="1">  1       21 0.23767896E-01 0.13629390E+03</pdfrwt>
<pdfrwt beam="2">  1       21 0.10536062E-01 0.13629390E+03</pdfrwt>
<totfact> 0.12333893E+06</totfact>
</mgrwt>
</event>
<event>
 6    1  0.4259848E-002  0.1285697E+03  0.7546771E-02  0.1229594E+00
         21   -1    0    0  504  502  0.00000000000E+00  0.00000000000E+00  0.59679339298E+03  0.59679339298E+03  0.00000000000E+00 0. -1.
         21   -1    0    0  502  503 -0.00000000000E+00 -0.00000000000E+00 -0.12754205277E+02  0.12754205277E+02  0.00000000000E+00 0. -1.
         25    2    1    2    0    0  0.18478366921E+02  0.23825430311E+02  0.54639111620E+03  0.56131401596E+03  0.12498428490E+03 0.  0.
          5    1    3    3  501    0  0.32432548749E+02 -0.80059344518E+01  0.50963123930E+03  0.51072495070E+03  0.10000000000E+00 0. -1.
         -5    1    3    3    0  501 -0.13954181828E+02  0.31831364763E+02  0.36759876906E+02  0.50589065254E+02  0.10000000000E+00 0. -1.
         21    1    1    2  504  503 -0.18478366921E+02 -0.23825430311E+02  0.37648071498E+02  0.48233582296E+02  0.00000000000E+00 0. -1.
<mgrwt>
<rscale>  1 0.12856972E+03</rscale>
<asrwt>0</asrwt>
<pdfrwt beam="1">  1       21 0.91814346E-01 0.12856972E+03</pdfrwt>
<pdfrwt beam="2">  1       21 0.19621859E-02 0.12856972E+03</pdfrwt>
<totfact> 0.12770567E+06</totfact>
</mgrwt>
</event>
<event>
 6    1  0.4259848E-002  0.1263589E+03  0.7546771E-02  0.1232961E+00
         21   -1    0    0  503  502  0.00000000000E+00  0.00000000000E+00  0.37851988736E+03  0.37851988736E+03  0.00000000000E+00 0. -1.
         21   -1    0    0  504  503 -0.00000000000E+00 -0.00000000000E+00 -0.27000834702E+02  0.27000834702E+02  0.00000000000E+00 0. -1.
         25    2    1    2    0    0 -0.18350863596E+02  0.16335109579E+01  0.36262433567E+03  0.38400910048E+03  0.12500863122E+03 0.  0.
          5    1    3    3  501    0  0.26791674496E+01 -0.53246552439E+02  0.26292977412E+03  0.26828054235E+03  0.10000000000E+00 0. -1.
         -5    1    3    3    0  501 -0.21030031045E+02  0.54880063397E+02  0.99694561547E+02  0.11572855813E+03  0.10000000000E+00 0. -1.
         21    1    1    2  504  502  0.18350863596E+02 -0.16335109579E+01 -0.11105283006E+02  0.21511621589E+02  0.00000000000E+00 0. -1.
<mgrwt>
<rscale>  1 0.12635893E+03</rscale>
<asrwt>0</asrwt>
<pdfrwt beam="1">  1       21 0.58233825E-01 0.12635893E+03</pdfrwt>
<pdfrwt beam="2">  1       21 0.41539748E-02 0.12635893E+03</pdfrwt>
<totfact> 0.10183402E+06</totfact>
</mgrwt>
</event>
<event>
 6    1  0.4259848E-002  0.1328144E+03  0.7546771E-02  0.1223338E+00
         21   -1    0    0  504  502  0.00000000000E+00  0.00000000000E+00  0.39594440148E+03  0.39594440148E+03  0.00000000000E+00 0. -1.
         21   -1    0    0  502  503 -0.00000000000E+00 -0.00000000000E+00 -0.40285172860E+02  0.40285172860E+02  0.00000000000E+00 0. -1.
         25    2    1    2    0    0 -0.19078064627E+02  0.40612989151E+02  0.36670800272E+03  0.39001850590E+03  0.12500515289E+03 0.  0.
          5    1    3    3  501    0  0.19027357566E+02  0.76916224722E+02  0.19701810743E+03  0.21235416317E+03  0.10000000000E+00 0. -1.
         -5    1    3    3    0  501 -0.38105422193E+02 -0.36303235571E+02  0.16968989529E+03  0.17766434273E+03  0.10000000000E+00 0. -1.
         21    1    1    2  504  503  0.19078064627E+02 -0.40612989151E+02 -0.11048774096E+02  0.46211068444E+02  0.00000000000E+00 0. -1.
<mgrwt>
<rscale>  1 0.13281444E+03</rscale>
<asrwt>0</asrwt>
<pdfrwt beam="1">  1       21 0.60914521E-01 0.13281444E+03</pdfrwt>
<pdfrwt beam="2">  1       21 0.61977192E-02 0.13281444E+03</pdfrwt>
<totfact> 0.47229310E+05</totfact>
</mgrwt>
</event>
<event>
 6    1  0.4259848E-002  0.1523927E+03  0.7546771E-02  0.1197563E+00
         21   -1    0    0  504  502  0.00000000000E+00  0.00000000000E+00  0.15602588618E+03  0.15602588618E+03  0.00000000000E+00 0.  1.
         21   -1    0    0  502  503 -0.00000000000E+00 -0.00000000000E+00 -0.23129060313E+03  0.23129060313E+03  0.00000000000E+00 0.  1.
         25    2    1    2    0    0 -0.56502970743E+02  0.66375070130E+02  0.10637274734E+03  0.18584588581E+03  0.12500118502E+03 0.  0.
          5    1    3    3  501    0 -0.14818797447E+02 -0.35033110413E+02  0.49211268108E+02  0.62198669534E+02  0.10000000000E+00 0. -1.
         -5    1    3    3    0  501 -0.41684173296E+02  0.10140818054E+03  0.57161479237E+02  0.12364721628E+03  0.10000000000E+00 0. -1.
         21    1    1    2  504  503  0.56502970743E+02 -0.66375070130E+02 -0.18163746429E+03  0.20147060349E+03  0.00000000000E+00 0.  1.
<mgrwt>
<rscale>  1 0.15239269E+03</rscale>
<asrwt>0</asrwt>
<pdfrwt beam="1">  1       21 0.24003983E-01 0.15239269E+03</pdfrwt>
<pdfrwt beam="2">  1       21 0.35583170E-01 0.15239269E+03</pdfrwt>
<totfact> 0.12641105E+05</totfact>
</mgrwt>
</event>
<event>
 6    1  0.4259848E-002  0.1414496E+03  0.7546771E-02  0.1211392E+00
         21   -1    0    0  504  502  0.00000000000E+00  0.00000000000E+00  0.28748518182E+03  0.28748518182E+03  0.00000000000E+00 0.  1.
         21   -1    0    0  502  503 -0.00000000000E+00 -0.00000000000E+00 -0.39486230796E+02  0.39486230796E+02  0.00000000000E+00 0.  1.
         25    2    1    2    0    0 -0.43390808719E+01 -0.66085334029E+02  0.20091364781E+03  0.24571179918E+03  0.12498758092E+03 0.  0.
          5    1    3    3  501    0 -0.21356615972E+02 -0.18072223569E+02  0.19196371280E+03  0.19399171978E+03  0.10000000000E+00 0.  1.
         -5    1    3    3    0  501  0.17017535100E+02 -0.48013110460E+02  0.89499350077E+01  0.51720079404E+02  0.10000000000E+00 0.  1.
         21    1    1    2  504  503  0.43390808719E+01  0.66085334029E+02  0.47085303216E+02  0.81259613434E+02  0.00000000000E+00 0.  1.
<mgrwt>
<rscale>  1 0.14144962E+03</rscale>
<asrwt>0</asrwt>
<pdfrwt beam="1">  1       21 0.44228488E-01 0.14144962E+03</pdfrwt>
<pdfrwt beam="2">  1       21 0.60748049E-02 0.14144962E+03</pdfrwt>
<totfact> 0.95030941E+05</totfact>
</mgrwt>
</event>
<event>
 6    1  0.4259848E-002  0.1372894E+03  0.7546771E-02  0.1217024E+00
         21   -1    0    0  503  502  0.00000000000E+00  0.00000000000E+00  0.19201419784E+03  0.19201419784E+03  0.00000000000E+00 0.  1.
         21   -1    0    0  504  503 -0.00000000000E+00 -0.00000000000E+00 -0.14684578768E+04  0.14684578768E+04  0.00000000000E+00 0.  1.
         25    2    1    2    0    0 -0.94942318615E+00 -0.56763560752E+02  0.16684426494E+03  0.21606801337E+03  0.12500149769E+03 0.  0.
          5    1    3    3  501    0  0.57448778121E+02 -0.49897696027E+02  0.11368105028E+03  0.13679741726E+03  0.10000000000E+00 0.  1.
         -5    1    3    3    0  501 -0.58398201308E+02 -0.68658647255E+01  0.53163214652E+02  0.79270596103E+02  0.10000000000E+00 0.  1.
         21    1    1    2  504  502  0.94942318615E+00  0.56763560752E+02 -0.14432879439E+04  0.14444040612E+04  0.00000000000E+00 0.  1.
<mgrwt>
<rscale>  1 0.13728939E+03</rscale>
<asrwt>0</asrwt>
<pdfrwt beam="1">  1       21 0.29540647E-01 0.13728939E+03</pdfrwt>
<pdfrwt beam="2">  1       21 0.22591659E+00 0.13728939E+03</pdfrwt>
<totfact> 0.10951883E+03</totfact>
</mgrwt>
</event>
<event>
 6    1  0.4259848E-002  0.1265592E+03  0.7546771E-02  0.1232652E+00
         21   -1    0    0  504  502  0.00000000000E+00  0.00000000000E+00  0.10757494847E+03  0.10757494847E+03  0.00000000000E+00 0. -1.
         21   -1    0    0  502  503 -0.00000000000E+00 -0.00000000000E+00 -0.62029512147E+02  0.62029512147E+02  0.00000000000E+00 0. -1.
         25    2    1    2    0    0  0.19746183143E+02  0.13048203119E+01  0.64634762419E+02  0.14210870321E+03  0.12500246681E+03 0.  0.
          5    1    3    3  501    0 -0.31201889851E+01 -0.59274108249E+02  0.44872700529E+02  0.74409171080E+02  0.10000000000E+00 0. -1.
         -5    1    3    3    0  501  0.22866372128E+02  0.60578928561E+02  0.19762061890E+02  0.67699532126E+02  0.10000000000E+00 0. -1.
         21    1    1    2  504  503 -0.19746183143E+02 -0.13048203119E+01 -0.19089326096E+02  0.27495757410E+02  0.00000000000E+00 0. -1.
<mgrwt>
<rscale>  1 0.12655920E+03</rscale>
<asrwt>0</asrwt>
<pdfrwt beam="1">  1       21 0.16549992E-01 0.12655920E+03</pdfrwt>
<pdfrwt beam="2">  1       21 0.95430019E-02 0.12655920E+03</pdfrwt>
<totfact> 0.28585649E+06</totfact>
</mgrwt>
</event>
<event>
 6    1  0.4259848E-002  0.1343977E+03  0.7546771E-02  0.1221072E+00
         21   -1    0    0  504  502  0.00000000000E+00  0.00000000000E+00  0.30338989454E+03  0.30338989454E+03  0.00000000000E+00 0. -1.
         21   -1    0    0  502  503 -0.00000000000E+00 -0.00000000000E+00 -0.63195485552E+02  0.63195485552E+02  0.00000000000E+00 0. -1.
         25    2    1    2    0    0 -0.41851948430E+02  0.26184818442E+02  0.27506556389E+03  0.30614344310E+03  0.12500205203E+03 0.  0.
          5    1    3    3  501    0 -0.32021374604E+02 -0.13607601180E+02  0.76748280799E+01  0.35629316966E+02  0.10000000000E+00 0. -1.
         -5    1    3    3    0  501 -0.98305738265E+01  0.39792419622E+02  0.26739073581E+03  0.27051412613E+03  0.10000000000E+00 0. -1.
         21    1    1    2  504  503  0.41851948430E+02 -0.26184818442E+02 -0.34871154895E+02  0.60441936998E+02  0.00000000000E+00 0. -1.
<mgrwt>
<rscale>  1 0.13439771E+03</rscale>
<asrwt>0</asrwt>
<pdfrwt beam="1">  1       21 0.46675368E-01 0.13439771E+03</pdfrwt>
<pdfrwt beam="2">  1       21 0.97223826E-02 0.13439771E+03</pdfrwt>
<totfact> 0.37880537E+05</totfact>
</mgrwt>
</event>
<event>
 6    1  0.4259848E-002  0.1467076E+03  0.7546771E-02  0.1204578E+00
         21   -1    0    0  504  502  0.00000000000E+00  0.00000000000E+00  0.26414824930E+02  0.26414824930E+02  0.00000000000E+00 0. -1.
         21   -1    0    0  502  503 -0.00000000000E+00 -0.00000000000E+00 -0.86226758341E+03  0.86226758341E+03  0.00000000000E+00 0. -1.
         25    2    1    2    0    0  0.16256246005E+02 -0.75062075863E+02 -0.19909378258E+03  0.24730843463E+03  0.12499818722E+03 0.  0.
          5    1    3    3  501    0 -0.35553590196E+02 -0.26799665305E+02 -0.10335511247E+02  0.45706811626E+02  0.10000000000E+00 0.  1.
         -5    1    3    3    0  501  0.51809836200E+02 -0.48262410558E+02 -0.18875827133E+03  0.20160162300E+03  0.10000000000E+00 0.  1.
         21    1    1    2  504  503 -0.16256246005E+02  0.75062075863E+02 -0.63675897590E+03  0.64137397371E+03  0.00000000000E+00 0. -1.
<mgrwt>
<rscale>  1 0.14670763E+03</rscale>
<asrwt>0</asrwt>
<pdfrwt beam="1">  1       21 0.40638195E-02 0.14670763E+03</pdfrwt>
<pdfrwt beam="2">  1       21 0.13265654E+00 0.14670763E+03</pdfrwt>
<totfact> 0.15961675E+05</totfact>
</mgrwt>
</event>
<event>
 6    1  0.4259848E-002  0.1285482E+03  0.7546771E-02  0.1229626E+00
         21   -1    0    0  503  502  0.00000000000E+00  0.00000000000E+00  0.88749705302E+02  0.88749705302E+02  0.00000000000E+00 0. -1.
         21   -1    0    0  504  503 -0.00000000000E+00 -0.00000000000E+00 -0.13438907166E+03  0.13438907166E+03  0.00000000000E+00 0. -1.
         25    2    1    2    0    0 -0.20263103361E+02  0.22152760216E+02  0.38185395667E+02  0.13409985923E+03  0.12499323845E+03 0.  0.
          5    1    3    3  501    0 -0.20527437145E+02  0.53993630651E+02  0.68864275837E+02  0.89883181481E+02  0.10000000000E+00 0. -1.
         -5    1    3    3    0  501  0.26433378353E+00 -0.31840870435E+02 -0.30678880170E+02  0.44216677745E+02  0.10000000000E+00 0. -1.
         21    1    1    2  504  502  0.20263103361E+02 -0.22152760216E+02 -0.83824762021E+02  0.89038917732E+02  0.00000000000E+00 0. -1.
<mgrwt>
<rscale>  1 0.12854823E+03</rscale>
<asrwt>0</asrwt>
<pdfrwt beam="1">  1       21 0.13653801E-01 0.12854823E+03</pdfrwt>
<pdfrwt beam="2">  1       21 0.20675242E-01 0.12854823E+03</pdfrwt>
<totfact> 0.10100663E+06</totfact>
</mgrwt>
</event>
<event>
 6    1  0.4259848E-002  0.1295380E+03  0.7546771E-02  0.1228143E+00
         21   -1    0    0  504  502  0.00000000000E+00  0.00000000000E+00  0.67046768540E+02  0.67046768540E+02  0.00000000000E+00 0. -1.
         21   -1    0    0  502  503 -0.00000000000E+00 -0.00000000000E+00 -0.10056860809E+03  0.10056860809E+03  0.00000000000E+00 0. -1.
         25    2    1    2    0    0  0.33733845475E+02  0.37066431024E+01 -0.32996486718E+02  0.13367443484E+03  0.12501349871E+03 0.  0.
          5    1    3    3  501    0  0.63696682618E+02 -0.23977312677E+01  0.24712422930E+02  0.68364686343E+02  0.10000000000E+00 0. -1.
         -5    1    3    3    0  501 -0.29962837143E+02  0.61043743700E+01 -0.57708909648E+02  0.65309748498E+02  0.10000000000E+00 0. -1.
         21    1    1    2  504  503 -0.33733845475E+02 -0.37066431024E+01 -0.52535282752E+00  0.33940941784E+02  0.00000000000E+00 0.  1.
<mgrwt>
<rscale>  1 0.12953797E+03</rscale>
<asrwt>0</asrwt>
<pdfrwt beam="1">  1       21 0.10314887E-01 0.12953797E+03</pdfrwt>
<pdfrwt beam="2">  1       21 0.15472094E-01 0.12953797E+03</pdfrwt>
<totfact> 0.28214635E+06</totfact>
</mgrwt>
</event>
<event>
 6    1  0.4259848E-002  0.1277307E+03  0.7546771E-02  0.1230862E+00
         21   -1    0    0  503  502  0.00000000000E+00  0.00000000000E+00  0.34555094333E+03  0.34555094333E+03  0.00000000000E+00 0. -1.
         21   -1    0    0  504  503 -0.00000000000E+00 -0.00000000000E+00 -0.61464895025E+02  0.61464895025E+02  0.00000000000E+00 0. -1.
         25    2    1    2    0    0 -0.41933706233E+01 -0.25930826865E+02  0.33014516735E+03  0.35399287554E+03  0.12500052909E+03 0.  0.
          5    1    3    3  501    0  0.44496927382E+02  0.26928083568E+02  0.97563376140E+02  0.11056093612E+03  0.10000000000E+00 0.  1.
         -5    1    3    3    0  501 -0.48690298005E+02 -0.52858910433E+02  0.23258179121E+03  0.24343193943E+03  0.10000000000E+00 0.  1.
         21    1    1    2  504  502  0.41933706233E+01  0.25930826865E+02 -0.46059119039E+02  0.53022962815E+02  0.00000000000E+00 0. -1.
<mgrwt>
<rscale>  1 0.12773067E+03</rscale>
<asrwt>0</asrwt>
<pdfrwt beam="1">  1       21 0.53161683E-01 0.12773067E+03</pdfrwt>
<pdfrwt beam="2">  1       21 0.94561379E-02 0.12773067E+03</pdfrwt>
<totfact> 0.30433518E+05</totfact>
</mgrwt>
</event>
<event>
 6    1  0.4259848E-002  0.1265784E+03  0.7546771E-02  0.1232623E+00
         21   -1    0    0  504  502  0.00000000000E+00  0.00000000000E+00  0.81300037016E+02  0.81300037016E+02  0.00000000000E+00 0. -1.
         21   -1    0    0  502  503 -0.00000000000E+00 -0.00000000000E+00 -0.69280852958E+02  0.69280852958E+02  0.00000000000E+00 0. -1.
         25    2    1    2    0    0 -0.14393477825E+02 -0.13764189551E+02  0.21720018632E+02  0.12842843392E+03  0.12500191323E+03 0.  0.
          5    1    3    3  501    0 -0.14719752125E+02 -0.31469474699E+02 -0.46444688936E+02  0.58001017843E+02  0.10000000000E+00 0.  1.
         -5    1    3    3    0  501  0.32627430038E+00  0.17705285148E+02  0.68164707568E+02  0.70427416075E+02  0.10000000000E+00 0.  1.
         21    1    1    2  504  503  0.14393477825E+02  0.13764189551E+02 -0.97008345735E+01  0.22152456056E+02  0.00000000000E+00 0. -1.
<mgrwt>
<rscale>  1 0.12657845E+03</rscale>
<asrwt>0</asrwt>
<pdfrwt beam="1">  1       21 0.12507698E-01 0.12657845E+03</pdfrwt>
<pdfrwt beam="2">  1       21 0.10658593E-01 0.12657845E+03</pdfrwt>
<totfact> 0.38956572E+06</totfact>
</mgrwt>
</event>
<event>
 6    1  0.4259848E-002  0.1308884E+03  0.7546771E-02  0.1226143E+00
         21   -1    0    0  504  502  0.00000000000E+00  0.00000000000E+00  0.83682328716E+03  0.83682328716E+03  0.00000000000E+00 0. -1.
         21   -1    0    0  502  503 -0.00000000000E+00 -0.00000000000E+00 -0.21391349462E+03  0.21391349462E+03  0.00000000000E+00 0.  1.
         25    2    1    2    0    0  0.36576318039E+02  0.13006753318E+02  0.82988963099E+03  0.84014794969E+03  0.12499910029E+03 0.  0.
          5    1    3    3  501    0  0.60969649312E+00  0.17214777076E+02  0.10957552670E+02  0.20415637147E+02  0.10000000000E+00 0.  1.
         -5    1    3    3    0  501  0.35966621546E+02 -0.42080237577E+01  0.81893207832E+03  0.81973231255E+03  0.10000000000E+00 0.  1.
         21    1    1    2  504  503 -0.36576318039E+02 -0.13006753318E+02 -0.20697983845E+03  0.21058883208E+03  0.00000000000E+00 0.  1.
<mgrwt>
<rscale>  1 0.13088842E+03</rscale>
<asrwt>0</asrwt>
<pdfrwt beam="1">  1       21 0.12874204E+00 0.13088842E+03</pdfrwt>
<pdfrwt beam="2">  1       21 0.32909769E-01 0.13088842E+03</pdfrwt>
<totfact> 0.41769941E+03</totfact>
</mgrwt>
</event>
<event>
 6    1  0.4259848E-002  0.1467192E+03  0.7546771E-02  0.1204563E+00
         21   -1    0    0  503  502  0.00000000000E+00  0.00000000000E+00  0.95348841278E+02  0.95348841278E+02  0.00000000000E+00 0.  1.
         21   -1    0    0  504  503 -0.00000000000E+00 -0.00000000000E+00 -0.13591133942E+03  0.13591133942E+03  0.00000000000E+00 0.  1.
         25    2    1    2    0    0 -0.74229694627E+02 -0.19728990477E+02 -0.54825656503E+01  0.14682155036E+03  0.12500891366E+03 0.  0.
          5    1    3    3  501    0 -0.67275662793E+01 -0.54165894337E+02  0.30942575339E+02  0.62742786246E+02  0.10000000000E+00 0.  1.
         -5    1    3    3    0  501 -0.67502128347E+02  0.34436903860E+02 -0.36425140989E+02  0.84078764114E+02  0.10000000000E+00 0.  1.
         21    1    1    2  504  502  0.74229694627E+02  0.19728990477E+02 -0.35079932492E+02  0.84438630337E+02  0.00000000000E+00 0.  1.
<mgrwt>
<rscale>  1 0.14671915E+03</rscale>
<asrwt>0</asrwt>
<pdfrwt beam="1">  1       21 0.14669053E-01 0.14671915E+03</pdfrwt>
<pdfrwt beam="2">  1       21 0.20909437E-01 0.14671915E+03</pdfrwt>
<totfact> 0.87007623E+05</totfact>
</mgrwt>
</event>
<event>
 6    1  0.4259848E-002  0.1289537E+03  0.7546771E-02  0.1229017E+00
         21   -1    0    0  503  502  0.00000000000E+00  0.00000000000E+00  0.91140822414E+01  0.91140822414E+01  0.00000000000E+00 0.  1.
         21   -1    0    0  504  503 -0.00000000000E+00 -0.00000000000E+00 -0.72159421029E+03  0.72159421029E+03  0.00000000000E+00 0.  1.
         25    2    1    2    0    0 -0.80313705024E+01 -0.30608313614E+02 -0.52697348560E+03  0.54252198546E+03  0.12501071320E+03 0.  0.
          5    1    3    3  501    0  0.40918182890E+02 -0.12268545035E+02 -0.43205597216E+03  0.43416262848E+03  0.10000000000E+00 0.  1.
         -5    1    3    3    0  501 -0.48949553392E+02 -0.18339768579E+02 -0.94917513432E+02  0.10835935698E+03  0.10000000000E+00 0.  1.
         21    1    1    2  504  502  0.80313705024E+01  0.30608313614E+02 -0.18550664245E+03  0.18818630707E+03  0.00000000000E+00 0.  1.
<mgrwt>
<rscale>  1 0.12895367E+03</rscale>
<asrwt>0</asrwt>
<pdfrwt beam="1">  1       21 0.14021653E-02 0.12895367E+03</pdfrwt>
<pdfrwt beam="2">  1       21 0.11101459E+00 0.12895367E+03</pdfrwt>
<totfact> 0.14014869E+06</totfact>
</mgrwt>
</event>
<event>
 6    1  0.4259848E-002  0.1265339E+03  0.7546771E-02  0.1232691E+00
         21   -1    0    0  503  502  0.00000000000E+00  0.00000000000E+00  0.96373128985E+01  0.96373128985E+01  0.00000000000E+00 0. -1.
         21   -1    0    0  504  503 -0.00000000000E+00 -0.00000000000E+00 -0.91537394645E+03  0.91537394645E+03  0.00000000000E+00 0. -1.
         25    2    1    2    0    0  0.81397985516E+01 -0.17835407350E+02 -0.41449327999E+03  0.43337685200E+03  0.12500583431E+03 0.  0.
          5    1    3    3  501    0 -0.28515706757E+02  0.22425972223E+02 -0.33538760614E+03  0.33734392852E+03  0.10000000000E+00 0.  1.
         -5    1    3    3    0  501  0.36655505308E+02 -0.40261379573E+02 -0.79105673854E+02  0.96032923471E+02  0.10000000000E+00 0.  1.
         21    1    1    2  504  502 -0.81397985516E+01  0.17835407350E+02 -0.49124335356E+03  0.49163440736E+03  0.00000000000E+00 0. -1.
<mgrwt>
<rscale>  1 0.12653386E+03</rscale>
<asrwt>0</asrwt>
<pdfrwt beam="1">  1       21 0.14826636E-02 0.12653386E+03</pdfrwt>
<pdfrwt beam="2">  1       21 0.14082675E+00 0.12653386E+03</pdfrwt>
<totfact> 0.71370441E+05</totfact>
</mgrwt>
</event>
<event>
 6    1  0.4259848E-002  0.1338319E+03  0.7546771E-02  0.1221878E+00
         21   -1    0    0  504  502  0.00000000000E+00  0.00000000000E+00  0.17842033500E+03  0.17842033500E+03  0.00000000000E+00 0.  1.
         21   -1    0    0  502  503 -0.00000000000E+00 -0.00000000000E+00 -0.51731408227E+03  0.51731408227E+03  0.00000000000E+00 0. -1.
         25    2    1    2    0    0 -0.46861344600E+02  0.95030661591E+01  0.15199765394E+03  0.20251979698E+03  0.12499874991E+03 0.  0.
          5    1    3    3  501    0 -0.50694221588E+02  0.58747623938E+02  0.59950857742E+02  0.98057650210E+02  0.10000000000E+00 0. -1.
         -5    1    3    3    0  501  0.38328769879E+01 -0.49244557779E+02  0.92046796199E+02  0.10446214677E+03  0.10000000000E+00 0. -1.
         21    1    1    2  504  503  0.46861344600E+02 -0.95030661591E+01 -0.49089140122E+03  0.49321462029E+03  0.00000000000E+00 0. -1.
<mgrwt>
<rscale>  1 0.13383191E+03</rscale>
<asrwt>0</asrwt>
<pdfrwt beam="1">  1       21 0.27449283E-01 0.13383191E+03</pdfrwt>
<pdfrwt beam="2">  1       21 0.79586781E-01 0.13383191E+03</pdfrwt>
<totfact> 0.18322805E+04</totfact>
</mgrwt>
</event>
<event>
 6    1  0.4259848E-002  0.1284608E+03  0.7546771E-02  0.1229758E+00
         21   -1    0    0  504  502  0.00000000000E+00  0.00000000000E+00  0.60191221674E+01  0.60191221674E+01  0.00000000000E+00 0. -1.
         21   -1    0    0  502  503 -0.00000000000E+00 -0.00000000000E+00 -0.12278655593E+04  0.12278655593E+04  0.00000000000E+00 0. -1.
         25    2    1    2    0    0 -0.53957175372E+01 -0.29132574185E+02 -0.73530477224E+03  0.74644174909E+03  0.12499742422E+03 0.  0.
          5    1    3    3  501    0 -0.14746322501E+02  0.46127360793E+02 -0.38418251114E+03  0.38722267406E+03  0.10000000000E+00 0. -1.
         -5    1    3    3    0  501  0.93506049642E+01 -0.75259934978E+02 -0.35112226110E+03  0.35921907503E+03  0.10000000000E+00 0. -1.
         21    1    1    2  504  503  0.53957175372E+01  0.29132574185E+02 -0.48654166485E+03  0.48744293233E+03  0.00000000000E+00 0. -1.
<mgrwt>
<rscale>  1 0.12846080E+03</rscale>
<asrwt>0</asrwt>
<pdfrwt beam="1">  1       21 0.92601783E-03 0.12846080E+03</pdfrwt>
<pdfrwt beam="2">  1       21 0.18890259E+00 0.12846080E+03</pdfrwt>
<totfact> 0.68627361E+05</totfact>
</mgrwt>
</event>
<event>
 6    1  0.4259848E-002  0.1434809E+03  0.7546771E-02  0.1208720E+00
         21   -1    0    0  503  502  0.00000000000E+00  0.00000000000E+00  0.58256592514E+03  0.58256592514E+03  0.00000000000E+00 0. -1.
         21   -1    0    0  504  503 -0.00000000000E+00 -0.00000000000E+00 -0.35292045175E+02  0.35292045175E+02  0.00000000000E+00 0. -1.
         25    2    1    2    0    0 -0.66914471144E+02  0.22012898569E+02  0.52458318643E+03  0.54385133734E+03  0.12499857394E+03 0.  0.
          5    1    3    3  501    0 -0.10073691454E+02  0.67988685628E+02  0.29539409817E+03  0.30328472409E+03  0.10000000000E+00 0.  1.
         -5    1    3    3    0  501 -0.56840779690E+02 -0.45975787060E+02  0.22918908826E+03  0.24056661325E+03  0.10000000000E+00 0.  1.
         21    1    1    2  504  502  0.66914471144E+02 -0.22012898569E+02  0.22690693538E+02  0.74006632981E+02  0.00000000000E+00 0. -1.
<mgrwt>
<rscale>  1 0.14348086E+03</rscale>
<asrwt>0</asrwt>
<pdfrwt beam="1">  1       21 0.89625520E-01 0.14348086E+03</pdfrwt>
<pdfrwt beam="2">  1       21 0.54295458E-02 0.14348086E+03</pdfrwt>
<totfact> 0.25148375E+05</totfact>
</mgrwt>
</event>
<event>
 6    1  0.4259848E-002  0.1260282E+03  0.7546771E-02  0.1233471E+00
         21   -1    0    0  504  502  0.00000000000E+00  0.00000000000E+00  0.28761503394E+02  0.28761503394E+02  0.00000000000E+00 0. -1.
         21   -1    0    0  502  503 -0.00000000000E+00 -0.00000000000E+00 -0.10810342460E+04  0.10810342460E+04  0.00000000000E+00 0.  1.
         25    2    1    2    0    0  0.12129849763E+02 -0.10734633619E+02 -0.10970167168E+03  0.16708551323E+03  0.12498298424E+03 0.  0.
          5    1    3    3  501    0 -0.48674276342E+02 -0.35518322237E+02 -0.48991360266E+02  0.77658867959E+02  0.10000000000E+00 0. -1.
         -5    1    3    3    0  501  0.60804126105E+02  0.24783688617E+02 -0.60710311409E+02  0.89426645271E+02  0.10000000000E+00 0. -1.
         21    1    1    2  504  503 -0.12129849763E+02  0.10734633619E+02 -0.94257107093E+03  0.94271023616E+03  0.00000000000E+00 0.  1.
<mgrwt>
<rscale>  1 0.12602822E+03</rscale>
<asrwt>0</asrwt>
<pdfrwt beam="1">  1       21 0.44248465E-02 0.12602822E+03</pdfrwt>
<pdfrwt beam="2">  1       21 0.16631297E+00 0.12602822E+03</pdfrwt>
<totfact> 0.77869009E+04</totfact>
</mgrwt>
</event>
<event>
 6    1  0.4259848E-002  0.1944366E+03  0.7546771E-02  0.1154520E+00
         21   -1    0    0  504  502  0.00000000000E+00  0.00000000000E+00  0.72288202415E+02  0.72288202415E+02  0.00000000000E+00 0.  1.
         21   -1    0    0  502  503 -0.00000000000E+00 -0.00000000000E+00 -0.63786087890E+03  0.63786087890E+03  0.00000000000E+00 0.  1.
         25    2    1    2    0    0 -0.57508877833E+02 -0.13737953695E+03 -0.94674820297E+02  0.21626124064E+03  0.12500077761E+03 0.  0.
          5    1    3    3  501    0  0.74342320394E+00  0.20653320844E+02 -0.28714769668E+02  0.35378811979E+02  0.10000000000E+00 0. -1.
         -5    1    3    3    0  501 -0.58252301037E+02 -0.15803285780E+03 -0.65960050629E+02  0.18088242866E+03  0.10000000000E+00 0. -1.
         21    1    1    2  504  503  0.57508877833E+02  0.13737953695E+03 -0.47089785618E+03  0.49388784067E+03  0.00000000000E+00 0.  1.
<mgrwt>
<rscale>  1 0.19443663E+03</rscale>
<asrwt>0</asrwt>
<pdfrwt beam="1">  1       21 0.11121262E-01 0.19443663E+03</pdfrwt>
<pdfrwt beam="2">  1       21 0.98132444E-01 0.19443663E+03</pdfrwt>
<totfact> 0.57642384E+04</totfact>
</mgrwt>
</event>
<event>
 6    1  0.4259848E-002  0.1288354E+03  0.7546771E-02  0.1229194E+00
         21   -1    0    0  504  502  0.00000000000E+00  0.00000000000E+00  0.23500615858E+02  0.23500615858E+02  0.00000000000E+00 0. -1.
         21   -1    0    0  502  503 -0.00000000000E+00 -0.00000000000E+00 -0.29830243218E+03  0.29830243218E+03  0.00000000000E+00 0. -1.
         25    2    1    2    0    0  0.49212643361E+01  0.30791617510E+02 -0.17544768680E+03  0.21767050939E+03  0.12500486912E+03 0.  0.
          5    1    3    3  501    0 -0.48170981241E+02  0.15662517320E+02 -0.23182386795E+02  0.55706291746E+02  0.10000000000E+00 0. -1.
         -5    1    3    3    0  501  0.53092245577E+02  0.15129100189E+02 -0.15226530000E+03  0.16196421765E+03  0.10000000000E+00 0. -1.
         21    1    1    2  504  503 -0.49212643361E+01 -0.30791617510E+02 -0.99354129522E+02  0.10413253864E+03  0.00000000000E+00 0. -1.
<mgrwt>
<rscale>  1 0.12883540E+03</rscale>
<asrwt>0</asrwt>
<pdfrwt beam="1">  1       21 0.36154794E-02 0.12883540E+03</pdfrwt>
<pdfrwt beam="2">  1       21 0.45892681E-01 0.12883540E+03</pdfrwt>
<totfact> 0.21011425E+06</totfact>
</mgrwt>
</event>
<event>
 6    1  0.4259848E-002  0.1304293E+03  0.7546771E-02  0.1226820E+00
         21   -1    0    0  503  502  0.00000000000E+00  0.00000000000E+00  0.18970423821E+03  0.18970423821E+03  0.00000000000E+00 0.  1.
         21   -1    0    0  504  503 -0.00000000000E+00 -0.00000000000E+00 -0.38491794994E+02  0.38491794994E+02  0.00000000000E+00 0.  1.
         25    2    1    2    0    0  0.20764050335E+02  0.30917879933E+02  0.13456292795E+03  0.18740059909E+03  0.12499896750E+03 0.  0.
          5    1    3    3  501    0  0.46505517064E+02  0.55223080483E+02  0.13374613888E+03  0.15198812915E+03  0.10000000000E+00 0.  1.
         -5    1    3    3    0  501 -0.25741466729E+02 -0.24305200550E+02  0.81678906143E+00  0.35412469944E+02  0.10000000000E+00 0.  1.
         21    1    1    2  504  502 -0.20764050335E+02 -0.30917879933E+02  0.16649515275E+02  0.40795434116E+02  0.00000000000E+00 0.  1.
<mgrwt>
<rscale>  1 0.13042930E+03</rscale>
<asrwt>0</asrwt>
<pdfrwt beam="1">  1       21 0.29185267E-01 0.13042930E+03</pdfrwt>
<pdfrwt beam="2">  1       21 0.59218147E-02 0.13042930E+03</pdfrwt>
<totfact> 0.22528347E+06</totfact>
</mgrwt>
</event>
<event>
 6    1  0.4259848E-002  0.2010094E+03  0.7546771E-02  0.1148890E+00
         21   -1    0    0  503  502  0.00000000000E+00  0.00000000000E+00  0.63710291525E+03  0.63710291525E+03  0.00000000000E+00 0.  1.
         21   -1    0    0  504  503 -0.00000000000E+00 -0.00000000000E+00 -0.15353388294E+03  0.15353388294E+03  0.00000000000E+00 0.  1.
         25    2    1    2    0    0  0.12460659067E+03  0.96195194153E+02  0.57463394531E+03  0.60877658759E+03  0.12499777868E+03 0.  0.
          5    1    3    3  501    0  0.11091199446E+03  0.38332972260E+02  0.22143946194E+03  0.25061191628E+03  0.10000000000E+00 0.  1.
         -5    1    3    3    0  501  0.13694596204E+02  0.57862221892E+02  0.35319448338E+03  0.35816467131E+03  0.10000000000E+00 0.  1.
         21    1    1    2  504  502 -0.12460659067E+03 -0.96195194153E+02 -0.91064913006E+02  0.18186021059E+03  0.00000000000E+00 0.  1.
<mgrwt>
<rscale>  1 0.20100936E+03</rscale>
<asrwt>0</asrwt>
<pdfrwt beam="1">  1       21 0.98015832E-01 0.20100936E+03</pdfrwt>
<pdfrwt beam="2">  1       21 0.23620598E-01 0.20100936E+03</pdfrwt>
<totfact> 0.14445571E+04</totfact>
</mgrwt>
</event>
<event>
 6    1  0.4259848E-002  0.1297867E+03  0.7546771E-02  0.1227773E+00
         21   -1    0    0  503  502  0.00000000000E+00  0.00000000000E+00  0.97798611541E+02  0.97798611541E+02  0.00000000000E+00 0. -1.
         21   -1    0    0  504  503 -0.00000000000E+00 -0.00000000000E+00 -0.97030368056E+02  0.97030368056E+02  0.00000000000E+00 0. -1.
         25    2    1    2    0    0  0.21384351913E+02  0.27624957416E+02  0.45981875777E+02  0.13769141468E+03  0.12499665595E+03 0.  0.
          5    1    3    3  501    0  0.29862722798E+02  0.74174198631E+02  0.41706867752E+02  0.90183517192E+02  0.10000000000E+00 0. -1.
         -5    1    3    3    0  501 -0.84783708849E+01 -0.46549241215E+02  0.42750080249E+01  0.47507897492E+02  0.10000000000E+00 0. -1.
         21    1    1    2  504  502 -0.21384351913E+02 -0.27624957416E+02 -0.45213632292E+02  0.57137564912E+02  0.00000000000E+00 0. -1.
<mgrwt>
<rscale>  1 0.12978672E+03</rscale>
<asrwt>0</asrwt>
<pdfrwt beam="1">  1       21 0.15045940E-01 0.12978672E+03</pdfrwt>
<pdfrwt beam="2">  1       21 0.14927749E-01 0.12978672E+03</pdfrwt>
<totfact> 0.15387410E+06</totfact>
</mgrwt>
</event>
<event>
 6    1  0.4259848E-002  0.1338909E+03  0.7546771E-02  0.1221794E+00
         21   -1    0    0  503  502  0.00000000000E+00  0.00000000000E+00  0.12311403937E+03  0.12311403937E+03  0.00000000000E+00 0. -1.
         21   -1    0    0  504  503 -0.00000000000E+00 -0.00000000000E+00 -0.22260407513E+03  0.22260407513E+03  0.00000000000E+00 0. -1.
         25    2    1    2    0    0 -0.38470674602E+02  0.28674516992E+02  0.82662082848E+02  0.15735247262E+03  0.12499823987E+03 0.  0.
          5    1    3    3  501    0 -0.17013273276E+02  0.59197793747E+02  0.99019506445E+02  0.11661347653E+03  0.10000000000E+00 0.  1.
         -5    1    3    3    0  501 -0.21457401326E+02 -0.30523276756E+02 -0.16357423597E+02  0.40738996089E+02  0.10000000000E+00 0.  1.
         21    1    1    2  504  502  0.38470674602E+02 -0.28674516992E+02 -0.18215211860E+03  0.18836564188E+03  0.00000000000E+00 0. -1.
<mgrwt>
<rscale>  1 0.13389093E+03</rscale>
<asrwt>0</asrwt>
<pdfrwt beam="1">  1       21 0.18940621E-01 0.13389093E+03</pdfrwt>
<pdfrwt beam="2">  1       21 0.34246781E-01 0.13389093E+03</pdfrwt>
<totfact> 0.21318596E+05</totfact>
</mgrwt>
</event>
<event>
 6    1  0.4259848E-002  0.1424740E+03  0.7546771E-02  0.1210038E+00
         21   -1    0    0  503  502  0.00000000000E+00  0.00000000000E+00  0.17586025336E+02  0.17586025336E+02  0.00000000000E+00 0.  1.
         21   -1    0    0  504  503 -0.00000000000E+00 -0.00000000000E+00 -0.64963908492E+03  0.64963908492E+03  0.00000000000E+00 0.  1.
         25    2    1    2    0    0  0.68345666716E+02 -0.16778522918E+01 -0.37243722177E+03  0.39875848554E+03  0.12499960110E+03 0.  0.
          5    1    3    3  501    0  0.39238969984E+02  0.59964535390E+02 -0.15248512593E+03  0.16848491297E+03  0.10000000000E+00 0. -1.
         -5    1    3    3    0  501  0.29106696732E+02 -0.61642387682E+02 -0.21995209584E+03  0.23027357256E+03  0.10000000000E+00 0. -1.
         21    1    1    2  504  502 -0.68345666716E+02  0.16778522918E+01 -0.25961583781E+03  0.26846662472E+03  0.00000000000E+00 0.  1.
<mgrwt>
<rscale>  1 0.14247402E+03</rscale>
<asrwt>0</asrwt>
<pdfrwt beam="1">  1       21 0.27055424E-02 0.14247402E+03</pdfrwt>
<pdfrwt beam="2">  1       21 0.99944471E-01 0.14247402E+03</pdfrwt>
<totfact> 0.62206253E+05</totfact>
</mgrwt>
</event>
<event>
 6    1  0.4259848E-002  0.1274867E+03  0.7546771E-02  0.1231233E+00
         21   -1    0    0  504  502  0.00000000000E+00  0.00000000000E+00  0.19657131410E+02  0.19657131410E+02  0.00000000000E+00 0. -1.
         21   -1    0    0  502  503 -0.00000000000E+00 -0.00000000000E+00 -0.52137997470E+03  0.52137997470E+03  0.00000000000E+00 0. -1.
         25    2    1    2    0    0 -0.20628407819E+01  0.24621746918E+02 -0.19286188489E+03  0.23118943812E+03  0.12506943640E+03 0.  0.
          5    1    3    3  501    0 -0.14786073374E+02 -0.44549039799E+02 -0.35583520077E+02  0.58901967827E+02  0.10000000000E+00 0.  1.
         -5    1    3    3    0  501  0.12723232592E+02  0.69170786717E+02 -0.15727836481E+03  0.17228747029E+03  0.10000000000E+00 0.  1.
         21    1    1    2  504  503  0.20628407819E+01 -0.24621746918E+02 -0.30886095840E+03  0.30984766799E+03  0.00000000000E+00 0. -1.
<mgrwt>
<rscale>  1 0.12748666E+03</rscale>
<asrwt>0</asrwt>
<pdfrwt beam="1">  1       21 0.30241741E-02 0.12748666E+03</pdfrwt>
<pdfrwt beam="2">  1       21 0.80212302E-01 0.12748666E+03</pdfrwt>
<totfact> 0.85827417E+05</totfact>
</mgrwt>
</event>
<event>
 6    1  0.4259848E-002  0.1259500E+03  0.7546771E-02  0.1233592E+00
         21   -1    0    0  504  502  0.00000000000E+00  0.00000000000E+00  0.54125316446E+02  0.54125316446E+02  0.00000000000E+00 0. -1.
         21   -1    0    0  502  503 -0.00000000000E+00 -0.00000000000E+00 -0.96619368900E+02  0.96619368900E+02  0.00000000000E+00 0. -1.
         25    2    1    2    0    0  0.51968681478E+01 -0.14538614616E+02 -0.47354844055E+02  0.13455808445E+03  0.12500007233E+03 0.  0.
          5    1    3    3  501    0  0.34911522191E+02  0.46215360858E+02 -0.16523227992E+02  0.60230399503E+02  0.10000000000E+00 0. -1.
         -5    1    3    3    0  501 -0.29714654043E+02 -0.60753975475E+02 -0.30831616063E+02  0.74327684949E+02  0.10000000000E+00 0. -1.
         21    1    1    2  504  503 -0.51968681478E+01  0.14538614616E+02  0.48607916016E+01  0.16186600894E+02  0.00000000000E+00 0.  1.
<mgrwt>
<rscale>  1 0.12594998E+03</rscale>
<asrwt>0</asrwt>
<pdfrwt beam="1">  1       21 0.83269719E-02 0.12594998E+03</pdfrwt>
<pdfrwt beam="2">  1       21 0.14864518E-01 0.12594998E+03</pdfrwt>
<totfact> 0.43966211E+06</totfact>
</mgrwt>
</event>
<event>
 6    1  0.4259848E-002  0.1445099E+03  0.7546771E-02  0.1207386E+00
         21   -1    0    0  503  502  0.00000000000E+00  0.00000000000E+00  0.12592449093E+04  0.12592449093E+04  0.00000000000E+00 0. -1.
         21   -1    0    0  504  503 -0.00000000000E+00 -0.00000000000E+00 -0.14126371793E+02  0.14126371793E+02  0.00000000000E+00 0. -1.
         25    2    1    2    0    0 -0.48349593693E+02  0.54037124303E+02  0.11157368225E+04  0.11250563385E+04  0.12500165497E+03 0.  0.
          5    1    3    3  501    0 -0.14793875085E+01 -0.26028419574E+02  0.62203433782E+02  0.67445862639E+02  0.10000000000E+00 0.  1.
         -5    1    3    3    0  501 -0.46870206185E+02  0.80065543878E+02  0.10535333887E+04  0.10576104759E+04  0.10000000000E+00 0.  1.
         21    1    1    2  504  502  0.48349593693E+02 -0.54037124303E+02  0.12938171502E+03  0.14831494258E+03  0.00000000000E+00 0. -1.
<mgrwt>
<rscale>  1 0.14450989E+03</rscale>
<asrwt>0</asrwt>
<pdfrwt beam="1">  1       21 0.19372990E+00 0.14450989E+03</pdfrwt>
<pdfrwt beam="2">  1       21 0.21732890E-02 0.14450989E+03</pdfrwt>
<totfact> 0.16251280E+05</totfact>
</mgrwt>
</event>
<event>
 6    1  0.4259848E-002  0.1308421E+03  0.7546771E-02  0.1226212E+00
         21   -1    0    0  503  502  0.00000000000E+00  0.00000000000E+00  0.10300759307E+03  0.10300759307E+03  0.00000000000E+00 0.  1.
         21   -1    0    0  504  503 -0.00000000000E+00 -0.00000000000E+00 -0.70486466550E+02  0.70486466550E+02  0.00000000000E+00 0.  1.
         25    2    1    2    0    0  0.30438029944E+02 -0.23796885234E+02  0.17356567825E+02  0.13198828587E+03  0.12500756676E+03 0.  0.
          5    1    3    3  501    0  0.67362516988E+02 -0.22738777554E+02  0.46485663883E+02  0.84945203786E+02  0.10000000000E+00 0.  1.
         -5    1    3    3    0  501 -0.36924487043E+02 -0.10581076794E+01 -0.29129096058E+02  0.47043082089E+02  0.10000000000E+00 0.  1.
         21    1    1    2  504  502 -0.30438029944E+02  0.23796885234E+02  0.15164558696E+02  0.41505773745E+02  0.00000000000E+00 0.  1.
<mgrwt>
<rscale>  1 0.13084211E+03</rscale>
<asrwt>0</asrwt>
<pdfrwt beam="1">  1       21 0.15847322E-01 0.13084211E+03</pdfrwt>
<pdfrwt beam="2">  1       21 0.10844072E-01 0.13084211E+03</pdfrwt>
<totfact> 0.24753585E+06</totfact>
</mgrwt>
</event>
<event>
 6    1  0.4259848E-002  0.1269792E+03  0.7546771E-02  0.1232008E+00
         21   -1    0    0  503  502  0.00000000000E+00  0.00000000000E+00  0.18389465708E+02  0.18389465708E+02  0.00000000000E+00 0.  1.
         21   -1    0    0  504  503 -0.00000000000E+00 -0.00000000000E+00 -0.85547282142E+03  0.85547282142E+03  0.00000000000E+00 0.  1.
         25    2    1    2    0    0 -0.22150094257E+02 -0.28174510977E+01 -0.20337377359E+03  0.23975945699E+03  0.12500056291E+03 0.  0.
          5    1    3    3  501    0  0.37120816175E+02 -0.25740136587E+02 -0.15036670737E+03  0.15700530663E+03  0.10000000000E+00 0. -1.
         -5    1    3    3    0  501 -0.59270910432E+02  0.22922685490E+02 -0.53007066220E+02  0.82754150366E+02  0.10000000000E+00 0. -1.
         21    1    1    2  504  502  0.22150094257E+02  0.28174510977E+01 -0.63370958213E+03  0.63410283014E+03  0.00000000000E+00 0.  1.
<mgrwt>
<rscale>  1 0.12697915E+03</rscale>
<asrwt>0</asrwt>
<pdfrwt beam="1">  1       21 0.28291486E-02 0.12697915E+03</pdfrwt>
<pdfrwt beam="2">  1       21 0.13161120E+00 0.12697915E+03</pdfrwt>
<totfact> 0.29808491E+05</totfact>
</mgrwt>
</event>
<event>
 6    1  0.4259848E-002  0.1262800E+03  0.7546771E-02  0.1233082E+00
         21   -1    0    0  504  502  0.00000000000E+00  0.00000000000E+00  0.31348526441E+02  0.31348526441E+02  0.00000000000E+00 0. -1.
         21   -1    0    0  502  503 -0.00000000000E+00 -0.00000000000E+00 -0.18496932544E+03  0.18496932544E+03  0.00000000000E+00 0. -1.
         25    2    1    2    0    0 -0.17701725529E+02  0.28322988231E+01 -0.10411453283E+03  0.16366575417E+03  0.12500108055E+03 0.  0.
          5    1    3    3  501    0 -0.58188324503E+02 -0.20691607329E+02 -0.98836197668E+02  0.11654453094E+03  0.10000000000E+00 0.  1.
         -5    1    3    3    0  501  0.40486598973E+02  0.23523906152E+02 -0.52783351664E+01  0.47121223235E+02  0.10000000000E+00 0.  1.
         21    1    1    2  504  503  0.17701725529E+02 -0.28322988231E+01 -0.49506266160E+02  0.52652097702E+02  0.00000000000E+00 0. -1.
<mgrwt>
<rscale>  1 0.12628002E+03</rscale>
<asrwt>0</asrwt>
<pdfrwt beam="1">  1       21 0.48228502E-02 0.12628002E+03</pdfrwt>
<pdfrwt beam="2">  1       21 0.28456820E-01 0.12628002E+03</pdfrwt>
<totfact> 0.33383698E+06</totfact>
</mgrwt>
</event>
<event>
 6    1  0.4259848E-002  0.1268838E+03  0.7546771E-02  0.1232154E+00
         21   -1    0    0  504  502  0.00000000000E+00  0.00000000000E+00  0.24904061493E+03  0.24904061493E+03  0.00000000000E+00 0. -1.
         21   -1    0    0  502  503 -0.00000000000E+00 -0.00000000000E+00 -0.24908079000E+02  0.24908079000E+02  0.00000000000E+00 0. -1.
         25    2    1    2    0    0  0.15516307546E+02  0.15149718000E+02  0.21653253443E+03  0.25096979539E+03  0.12501691876E+03 0.  0.
          5    1    3    3  501    0 -0.39983450906E+02  0.39005895724E+02  0.54494199097E+02  0.78036939861E+02  0.10000000000E+00 0. -1.
         -5    1    3    3    0  501  0.55499758452E+02 -0.23856177725E+02  0.16203833533E+03  0.17293285553E+03  0.10000000000E+00 0. -1.
         21    1    1    2  504  503 -0.15516307546E+02 -0.15149718000E+02  0.76000015006E+01  0.22978898540E+02  0.00000000000E+00 0. -1.
<mgrwt>
<rscale>  1 0.12688380E+03</rscale>
<asrwt>0</asrwt>
<pdfrwt beam="1">  1       21 0.38313939E-01 0.12688380E+03</pdfrwt>
<pdfrwt beam="2">  1       21 0.38320123E-02 0.12688380E+03</pdfrwt>
<totfact> 0.27424550E+06</totfact>
</mgrwt>
</event>
<event>
 6    1  0.4259848E-002  0.1271540E+03  0.7546771E-02  0.1231741E+00
         21   -1    0    0  504  502  0.00000000000E+00  0.00000000000E+00  0.88023947840E+03  0.88023947840E+03  0.00000000000E+00 0. -1.
         21   -1    0    0  502  503 -0.00000000000E+00 -0.00000000000E+00 -0.13817696090E+03  0.13817696090E+03  0.00000000000E+00 0. -1.
         25    2    1    2    0    0  0.82280459313E+01  0.21798526448E+02  0.87462618208E+03  0.88382074227E+03  0.12500107837E+03 0.  0.
          5    1    3    3  501    0  0.61817094819E+02  0.30580984686E+02  0.37856550801E+03  0.38479657443E+03  0.10000000000E+00 0.  1.
         -5    1    3    3    0  501 -0.53589048888E+02 -0.87824582387E+01  0.49606067406E+03  0.49902416784E+03  0.10000000000E+00 0.  1.
         21    1    1    2  504  503 -0.82280459313E+01 -0.21798526448E+02 -0.13256366458E+03  0.13459569704E+03  0.00000000000E+00 0. -1.
<mgrwt>
<rscale>  1 0.12715403E+03</rscale>
<asrwt>0</asrwt>
<pdfrwt beam="1">  1       21 0.13542145E+00 0.12715403E+03</pdfrwt>
<pdfrwt beam="2">  1       21 0.21257995E-01 0.12715403E+03</pdfrwt>
<totfact> 0.84905047E+03</totfact>
</mgrwt>
</event>
<event>
 6    1  0.4259848E-002  0.1330831E+03  0.7546771E-02  0.1222951E+00
         21   -1    0    0  504  502  0.00000000000E+00  0.00000000000E+00  0.53343422822E+03  0.53343422822E+03  0.00000000000E+00 0. -1.
         21   -1    0    0  502  503 -0.00000000000E+00 -0.00000000000E+00 -0.16042076254E+02  0.16042076254E+02  0.00000000000E+00 0. -1.
         25    2    1    2    0    0 -0.28995235224E+01 -0.45580837582E+02  0.43922208640E+03  0.45894134360E+03  0.12500038274E+03 0.  0.
          5    1    3    3  501    0  0.19385557810E+02 -0.62551776331E+02  0.10636828580E+03  0.12491095548E+03  0.10000000000E+00 0. -1.
         -5    1    3    3    0  501 -0.22285081333E+02  0.16970938749E+02  0.33285380060E+03  0.33403038812E+03  0.10000000000E+00 0. -1.
         21    1    1    2  504  503  0.28995235224E+01  0.45580837582E+02  0.78170065566E+02  0.90534960882E+02  0.00000000000E+00 0. -1.
<mgrwt>
<rscale>  1 0.13308312E+03</rscale>
<asrwt>0</asrwt>
<pdfrwt beam="1">  1       21 0.82066791E-01 0.13308312E+03</pdfrwt>
<pdfrwt beam="2">  1       21 0.24680121E-02 0.13308312E+03</pdfrwt>
<totfact> 0.11365894E+06</totfact>
</mgrwt>
</event>
<event>
 6    1  0.4259848E-002  0.1295985E+03  0.7546771E-02  0.1228053E+00
         21   -1    0    0  503  502  0.00000000000E+00  0.00000000000E+00  0.78631541901E+02  0.78631541901E+02  0.00000000000E+00 0. -1.
         21   -1    0    0  504  503 -0.00000000000E+00 -0.00000000000E+00 -0.86219599826E+02  0.86219599826E+02  0.00000000000E+00 0. -1.
         25    2    1    2    0    0  0.17701164148E+02  0.29280408901E+02 -0.12849033336E+02  0.13023392896E+03  0.12500042015E+03 0.  0.
          5    1    3    3  501    0  0.58924559742E+02  0.38343152799E+02  0.23916898286E+02  0.74258529011E+02  0.10000000000E+00 0.  1.
         -5    1    3    3    0  501 -0.41223395594E+02 -0.90627438985E+01 -0.36765931621E+02  0.55975399947E+02  0.10000000000E+00 0.  1.
         21    1    1    2  504  502 -0.17701164148E+02 -0.29280408901E+02  0.52609754110E+01  0.34617212768E+02  0.00000000000E+00 0. -1.
<mgrwt>
<rscale>  1 0.12959853E+03</rscale>
<asrwt>0</asrwt>
<pdfrwt beam="1">  1       21 0.12097160E-01 0.12959853E+03</pdfrwt>
<pdfrwt beam="2">  1       21 0.13264554E-01 0.12959853E+03</pdfrwt>
<totfact> 0.28091019E+06</totfact>
</mgrwt>
</event>
<event>
 6    1  0.4259848E-002  0.1419560E+03  0.7546771E-02  0.1210721E+00
         21   -1    0    0  504  502  0.00000000000E+00  0.00000000000E+00  0.33083347572E+02  0.33083347572E+02  0.00000000000E+00 0. -1.
         21   -1    0    0  502  503 -0.00000000000E+00 -0.00000000000E+00 -0.48680575149E+03  0.48680575149E+03  0.00000000000E+00 0. -1.
         25    2    1    2    0    0 -0.52910129365E+02 -0.41556937242E+02 -0.14125623939E+03  0.20026187119E+03  0.12500012426E+03 0.  0.
          5    1    3    3  501    0 -0.34033568412E+02  0.33830884483E+02 -0.10302294565E+03  0.11365100023E+03  0.10000000000E+00 0.  1.
         -5    1    3    3    0  501 -0.18876560953E+02 -0.75387821726E+02 -0.38233293745E+02  0.86610870961E+02  0.10000000000E+00 0.  1.
         21    1    1    2  504  503  0.52910129365E+02  0.41556937242E+02 -0.31246616452E+03  0.31962722787E+03  0.00000000000E+00 0. -1.
<mgrwt>
<rscale>  1 0.14195595E+03</rscale>
<asrwt>0</asrwt>
<pdfrwt beam="1">  1       21 0.50897458E-02 0.14195595E+03</pdfrwt>
<pdfrwt beam="2">  1       21 0.74893192E-01 0.14195595E+03</pdfrwt>
<totfact> 0.42035979E+05</totfact>
</mgrwt>
</event>
<event>
 6    1  0.4259848E-002  0.1318672E+03  0.7546771E-02  0.1224711E+00
         21   -1    0    0  504  502  0.00000000000E+00  0.00000000000E+00  0.13749160792E+04  0.13749160792E+04  0.00000000000E+00 0.  1.
         21   -1    0    0  502  503 -0.00000000000E+00 -0.00000000000E+00 -0.55392442821E+02  0.55392442821E+02  0.00000000000E+00 0.  1.
         25    2    1    2    0    0  0.40168605631E+02 -0.11885322216E+02  0.13633325088E+04  0.13696950330E+04  0.12503669925E+03 0.  0.
          5    1    3    3  501    0 -0.14546702437E+01  0.51845879495E+02  0.39786299463E+03  0.40122946525E+03  0.10000000000E+00 0. -1.
         -5    1    3    3    0  501  0.41623275875E+02 -0.63731201710E+02  0.96546951413E+03  0.96846556773E+03  0.10000000000E+00 0. -1.
         21    1    1    2  504  503 -0.40168605631E+02  0.11885322216E+02 -0.43808872344E+02  0.60613489081E+02  0.00000000000E+00 0.  1.
<mgrwt>
<rscale>  1 0.13186718E+03</rscale>
<asrwt>0</asrwt>
<pdfrwt beam="1">  1       21 0.21152553E+00 0.13186718E+03</pdfrwt>
<pdfrwt beam="2">  1       21 0.85219153E-02 0.13186718E+03</pdfrwt>
<totfact> 0.12920868E+04</totfact>
</mgrwt>
</event>
<event>
 6    1  0.4259848E-002  0.1287904E+03  0.7546771E-02  0.1229262E+00
         21   -1    0    0  504  502  0.00000000000E+00  0.00000000000E+00  0.53767631577E+02  0.53767631577E+02  0.00000000000E+00 0.  1.
         21   -1    0    0  502  503 -0.00000000000E+00 -0.00000000000E+00 -0.16179949227E+03  0.16179949227E+03  0.00000000000E+00 0.  1.
         25    2    1    2    0    0 -0.37039099664E+01 -0.30805606966E+02 -0.30924330946E+02  0.13245108741E+03  0.12499708773E+03 0.  0.
          5    1    3    3  501    0 -0.40515692178E+02 -0.55550875732E+02  0.13058748566E+02  0.69985441496E+02  0.10000000000E+00 0. -1.
         -5    1    3    3    0  501  0.36811782212E+02  0.24745268766E+02 -0.43983079512E+02  0.62465645913E+02  0.10000000000E+00 0. -1.
         21    1    1    2  504  503  0.37039099664E+01  0.30805606966E+02 -0.77107529748E+02  0.83116036440E+02  0.00000000000E+00 0.  1.
<mgrwt>
<rscale>  1 0.12879044E+03</rscale>
<asrwt>0</asrwt>
<pdfrwt beam="1">  1       21 0.82719434E-02 0.12879044E+03</pdfrwt>
<pdfrwt beam="2">  1       21 0.24892229E-01 0.12879044E+03</pdfrwt>
<totfact> 0.17215330E+06</totfact>
</mgrwt>
</event>
<event>
 6    1  0.4259848E-002  0.1285377E+03  0.7546771E-02  0.1229642E+00
         21   -1    0    0  503  502  0.00000000000E+00  0.00000000000E+00  0.56003864238E+02  0.56003864238E+02  0.00000000000E+00 0.  1.
         21   -1    0    0  504  503 -0.00000000000E+00 -0.00000000000E+00 -0.31456719248E+03  0.31456719248E+03  0.00000000000E+00 0.  1.
         25    2    1    2    0    0  0.19476441837E+02 -0.22769321241E+02 -0.19941449848E+02  0.13007537147E+03  0.12499666821E+03 0.  0.
          5    1    3    3  501    0  0.65175017142E+02  0.17038019230E+02 -0.16587195169E+02  0.69377388264E+02  0.10000000000E+00 0.  1.
         -5    1    3    3    0  501 -0.45698575305E+02 -0.39807340471E+02 -0.33542546783E+01  0.60697983201E+02  0.10000000000E+00 0.  1.
         21    1    1    2  504  502 -0.19476441837E+02  0.22769321241E+02 -0.23862187839E+03  0.24049568525E+03  0.00000000000E+00 0.  1.
<mgrwt>
<rscale>  1 0.12853770E+03</rscale>
<asrwt>0</asrwt>
<pdfrwt beam="1">  1       21 0.86159792E-02 0.12853770E+03</pdfrwt>
<pdfrwt beam="2">  1       21 0.48394952E-01 0.12853770E+03</pdfrwt>
<totfact> 0.43434425E+05</totfact>
</mgrwt>
</event>
<event>
 6    1  0.4259848E-002  0.1268078E+03  0.7546771E-02  0.1232271E+00
         21   -1    0    0  503  502  0.00000000000E+00  0.00000000000E+00  0.10519685647E+03  0.10519685647E+03  0.00000000000E+00 0. -1.
         21   -1    0    0  504  503 -0.00000000000E+00 -0.00000000000E+00 -0.78290876443E+02  0.78290876443E+02  0.00000000000E+00 0. -1.
         25    2    1    2    0    0  0.44454825524E+01 -0.20902945431E+02  0.62958937546E+02  0.14157698025E+03  0.12499407217E+03 0.  0.
          5    1    3    3  501    0 -0.31715927035E+02 -0.61435235266E+02  0.51114409290E+02  0.85981864349E+02  0.10000000000E+00 0.  1.
         -5    1    3    3    0  501  0.36161409587E+02  0.40532289835E+02  0.11844528256E+02  0.55595115903E+02  0.10000000000E+00 0.  1.
         21    1    1    2  504  502 -0.44454825524E+01  0.20902945431E+02 -0.36052957518E+02  0.41910752661E+02  0.00000000000E+00 0. -1.
<mgrwt>
<rscale>  1 0.12680778E+03</rscale>
<asrwt>0</asrwt>
<pdfrwt beam="1">  1       21 0.16184132E-01 0.12680778E+03</pdfrwt>
<pdfrwt beam="2">  1       21 0.12044750E-01 0.12680778E+03</pdfrwt>
<totfact> 0.19776530E+06</totfact>
</mgrwt>
</event>
