<event>
 6    2  0.1674964E-002  0.1313717E+03  0.7546771E-02  0.1225434E+00
         21   -1    0    0  502  503  0.00000000000E+00  0.00000000000E+00  0.16957859933E+02  0.16957859933E+02  0.00000000000E+00 0. -1.
          4   -1    0    0  503    0 -0.00000000000E+00 -0.00000000000E+00 -0.57133811314E+03  0.57133811314E+03  0.00000000000E+00 0. -1.
         25    2    1    2    0    0 -0.39054051994E+02 -0.10378537781E+02 -0.26153415403E+03  0.29267498121E+03  0.12500239150E+03 0.  0.
          5    1    3    3  501    0 -0.36589253340E+02 -0.57085713401E+02 -0.78359922242E+02  0.10362354727E+03  0.10000000000E+00 0.  1.
         -5    1    3    3    0  501 -0.24647986541E+01  0.46707175620E+02 -0.18317423179E+03  0.18905143395E+03  0.10000000000E+00 0.  1.
          4    1    1    2  502    0  0.39054051994E+02  0.10378537781E+02 -0.29284609918E+03  0.29562099186E+03  0.00000000000E+00 0. -1.
<mgrwt>
<rscale>  1 0.13137173E+03</rscale>
<asrwt>0</asrwt>
<pdfrwt beam="1">  1       21 0.26089018E-02 0.13137173E+03</pdfrwt>
<pdfrwt beam="2">  1        4 0.87898163E-01 0.13137173E+03</pdfrwt>
<totfact> 0.36933279E+04</totfact>
</mgrwt>
</event>
<event>
 6    2  0.1674964E-002  0.1331579E+03  0.7546771E-02  0.1222844E+00
         21   -1    0    0  502  503  0.00000000000E+00  0.00000000000E+00  0.35260433064E+03  0.35260433064E+03  0.00000000000E+00 0.  1.
          1   -1    0    0  503    0 -0.00000000000E+00 -0.00000000000E+00 -0.40036061937E+02  0.40036061937E+02  0.00000000000E+00 0.  1.
         25    2    1    2    0    0 -0.42186922282E+01  0.45702235263E+02  0.79475893084E+02  0.15507240811E+03  0.12499817000E+03 0.  0.
          5    1    3    3  501    0  0.47678054910E+02  0.24143459868E+02  0.83053133703E+02  0.98762019988E+02  0.10000000000E+00 0. -1.
         -5    1    3    3    0  501 -0.51896747138E+02  0.21558775395E+02 -0.35772406180E+01  0.56310388122E+02  0.10000000000E+00 0. -1.
          1    1    1    2  502    0  0.42186922282E+01 -0.45702235263E+02  0.23309237562E+03  0.23756798447E+03  0.00000000000E+00 0.  1.
<mgrwt>
<rscale>  1 0.13315793E+03</rscale>
<asrwt>0</asrwt>
<pdfrwt beam="1">  1       21 0.54246818E-01 0.13315793E+03</pdfrwt>
<pdfrwt beam="2">  1        1 0.61593944E-02 0.13315793E+03</pdfrwt>
<totfact> 0.42046676E+04</totfact>
</mgrwt>
</event>
<event>
 6    2  0.1674964E-002  0.1271607E+03  0.7546771E-02  0.1231731E+00
          1   -1    0    0  503    0 -0.00000000000E+00  0.00000000000E+00  0.85629526607E+03  0.85629526607E+03  0.00000000000E+00 0. -1.
         21   -1    0    0  502  503  0.00000000000E+00 -0.00000000000E+00 -0.12173766282E+02  0.12173766282E+02  0.00000000000E+00 0.  1.
         25    2    1    2    0    0  0.19651783979E+02 -0.12592525702E+02  0.32749911794E+03  0.35131968280E+03  0.12500033181E+03 0.  0.
          5    1    3    3  501    0 -0.30047445987E+02  0.12163682496E+02  0.26793986404E+03  0.26989365484E+03  0.10000000000E+00 0. -1.
         -5    1    3    3    0  501  0.49699229965E+02 -0.24756208199E+02  0.59559253897E+02  0.81426027954E+02  0.10000000000E+00 0. -1.
          1    1    1    2  502    0 -0.19651783979E+02  0.12592525702E+02  0.51662238185E+03  0.51714934955E+03  0.00000000000E+00 0. -1.
<mgrwt>
<rscale>  1 0.12716071E+03</rscale>
<asrwt>0</asrwt>
<pdfrwt beam="1">  1       21 0.18728878E-02 0.12716071E+03</pdfrwt>
<pdfrwt beam="2">  1        1 0.13173769E+00 0.12716071E+03</pdfrwt>
<totfact> 0.31269052E+05</totfact>
</mgrwt>
</event>
<event>
 6    2  0.1674964E-002  0.1460008E+03  0.7546771E-02  0.1205475E+00
          2   -1    0    0  503    0 -0.00000000000E+00  0.00000000000E+00  0.17092450159E+04  0.17092450159E+04  0.00000000000E+00 0. -1.
         21   -1    0    0  502  503  0.00000000000E+00 -0.00000000000E+00 -0.17946936735E+02  0.17946936735E+02  0.00000000000E+00 0. -1.
         25    2    1    2    0    0  0.40797585578E+02 -0.63460639678E+02  0.29790901468E+03  0.33176198994E+03  0.12499816463E+03 0.  0.
          5    1    3    3  501    0  0.30378238093E+02  0.70661711677E+01  0.23384001193E+03  0.23591085033E+03  0.10000000000E+00 0.  1.
         -5    1    3    3    0  501  0.10419347484E+02 -0.70526810846E+02  0.64069002755E+02  0.95851139608E+02  0.10000000000E+00 0.  1.
          2    1    1    2  502    0 -0.40797585578E+02  0.63460639678E+02  0.13933890645E+04  0.13954299627E+04  0.00000000000E+00 0. -1.
<mgrwt>
<rscale>  1 0.14600081E+03</rscale>
<asrwt>0</asrwt>
<pdfrwt beam="1">  1       21 0.27610685E-02 0.14600081E+03</pdfrwt>
<pdfrwt beam="2">  1        2 0.26296064E+00 0.14600081E+03</pdfrwt>
<totfact> 0.99447801E+04</totfact>
</mgrwt>
</event>
<event>
 6    2  0.1674964E-002  0.1260222E+03  0.7546771E-02  0.1233480E+00
          1   -1    0    0  503    0 -0.00000000000E+00  0.00000000000E+00  0.30521671805E+03  0.30521671805E+03  0.00000000000E+00 0.  1.
         21   -1    0    0  502  503  0.00000000000E+00 -0.00000000000E+00 -0.74428491679E+02  0.74428491679E+02  0.00000000000E+00 0.  1.
         25    2    1    2    0    0 -0.16040447161E+02  0.45032155750E+00 -0.20643624671E+02  0.12770181439E+03  0.12499638165E+03 0.  0.
          5    1    3    3  501    0 -0.62243643816E+02 -0.70164969191E+00  0.20793073178E+02  0.65628693419E+02  0.10000000000E+00 0. -1.
         -5    1    3    3    0  501  0.46203196655E+02  0.11519712494E+01 -0.41436697849E+02  0.62073120975E+02  0.10000000000E+00 0. -1.
          1    1    1    2  502    0  0.16040447161E+02 -0.45032155750E+00  0.25143185104E+03  0.25194339534E+03  0.00000000000E+00 0.  1.
<mgrwt>
<rscale>  1 0.12602220E+03</rscale>
<asrwt>0</asrwt>
<pdfrwt beam="1">  1       21 0.11450537E-01 0.12602220E+03</pdfrwt>
<pdfrwt beam="2">  1        1 0.46956418E-01 0.12602220E+03</pdfrwt>
<totfact> 0.59465014E+04</totfact>
</mgrwt>
</event>
<event>
 6    2  0.1674964E-002  0.1287704E+03  0.7546771E-02  0.1229292E+00
          3   -1    0    0  503    0 -0.00000000000E+00  0.00000000000E+00  0.67927602284E+03  0.67927602284E+03  0.00000000000E+00 0. -1.
         21   -1    0    0  502  503  0.00000000000E+00 -0.00000000000E+00 -0.16413139956E+02  0.16413139956E+02  0.00000000000E+00 0.  1.
         25    2    1    2    0    0 -0.23138057716E+02  0.20495560378E+02  0.24584809779E+03  0.27753037872E+03  0.12500554474E+03 0.  0.
          5    1    3    3  501    0 -0.43368097279E+02  0.47619101990E+02  0.58047413556E+02  0.86705726203E+02  0.10000000000E+00 0.  1.
         -5    1    3    3    0  501  0.20230039563E+02 -0.27123541612E+02  0.18780068423E+03  0.19082465252E+03  0.10000000000E+00 0.  1.
          3    1    1    2  502    0  0.23138057716E+02 -0.20495560378E+02  0.41701478510E+03  0.41815878407E+03  0.00000000000E+00 0. -1.
<mgrwt>
<rscale>  1 0.12877043E+03</rscale>
<asrwt>0</asrwt>
<pdfrwt beam="1">  1       21 0.25250990E-02 0.12877043E+03</pdfrwt>
<pdfrwt beam="2">  1        3 0.10450398E+00 0.12877043E+03</pdfrwt>
<totfact> 0.32935914E+04</totfact>
</mgrwt>
</event>
<event>
 6    2  0.1674964E-002  0.1276132E+03  0.7546771E-02  0.1231041E+00
          1   -1    0    0  503    0 -0.00000000000E+00  0.00000000000E+00  0.26596345163E+02  0.26596345163E+02  0.00000000000E+00 0. -1.
         21   -1    0    0  502  503  0.00000000000E+00 -0.00000000000E+00 -0.37122541839E+03  0.37122541839E+03  0.00000000000E+00 0. -1.
         25    2    1    2    0    0  0.23288199091E+02  0.10825537970E+02 -0.34915468398E+03  0.37174469236E+03  0.12500236183E+03 0.  0.
          5    1    3    3  501    0  0.42855741238E+02  0.34043576339E+02 -0.33277209289E+03  0.33724302135E+03  0.10000000000E+00 0.  1.
         -5    1    3    3    0  501 -0.19567542147E+02 -0.23218038370E+02 -0.16382591094E+02  0.34501671008E+02  0.10000000000E+00 0.  1.
          1    1    1    2  502    0 -0.23288199091E+02 -0.10825537970E+02  0.45256107536E+01  0.26077071192E+02  0.00000000000E+00 0. -1.
<mgrwt>
<rscale>  1 0.12761318E+03</rscale>
<asrwt>0</asrwt>
<pdfrwt beam="1">  1       21 0.57111602E-01 0.12761318E+03</pdfrwt>
<pdfrwt beam="2">  1        1 0.40917455E-02 0.12761318E+03</pdfrwt>
<totfact> 0.65884394E+04</totfact>
</mgrwt>
</event>
<event>
 6    2  0.1674964E-002  0.1384897E+03  0.7546771E-02  0.1215376E+00
          1   -1    0    0  503    0 -0.00000000000E+00  0.00000000000E+00  0.16077080056E+04  0.16077080056E+04  0.00000000000E+00 0. -1.
         21   -1    0    0  502  503  0.00000000000E+00 -0.00000000000E+00 -0.22571199964E+02  0.22571199964E+02  0.00000000000E+00 0. -1.
         25    2    1    2    0    0 -0.59245535246E+02 -0.74592470803E+01  0.15589280878E+04  0.15650674681E+04  0.12495488429E+03 0.  0.
          5    1    3    3  501    0  0.10868011401E+02 -0.90906497162E+01  0.19828002254E+02  0.24370335605E+02  0.10000000000E+00 0.  1.
         -5    1    3    3    0  501 -0.70113546648E+02  0.16314026359E+01  0.15391000855E+04  0.15406971325E+04  0.10000000000E+00 0.  1.
          1    1    1    2  502    0  0.59245535246E+02  0.74592470803E+01  0.26208717928E+02  0.65211737510E+02  0.00000000000E+00 0. -1.
<mgrwt>
<rscale>  1 0.13848970E+03</rscale>
<asrwt>0</asrwt>
<pdfrwt beam="1">  1       21 0.34724936E-02 0.13848970E+03</pdfrwt>
<pdfrwt beam="2">  1        1 0.24733960E+00 0.13848970E+03</pdfrwt>
<totfact> 0.34688963E+04</totfact>
</mgrwt>
</event>
<event>
 6    2  0.1674964E-002  0.1293896E+03  0.7546771E-02  0.1228364E+00
         21   -1    0    0  502  503  0.00000000000E+00  0.00000000000E+00  0.27801776947E+02  0.27801776947E+02  0.00000000000E+00 0. -1.
          1   -1    0    0  503    0 -0.00000000000E+00 -0.00000000000E+00 -0.27256316405E+03  0.27256316405E+03  0.00000000000E+00 0. -1.
         25    2    1    2    0    0  0.16228375264E+02  0.29230861820E+02 -0.14109475771E+03  0.19144031800E+03  0.12499544494E+03 0.  0.
          5    1    3    3  501    0 -0.15403013504E+02 -0.45551857450E+02 -0.56262883556E+02  0.74011800466E+02  0.10000000000E+00 0.  1.
         -5    1    3    3    0  501  0.31631388767E+02  0.74782719270E+02 -0.84831874155E+02  0.11742851753E+03  0.10000000000E+00 0.  1.
          1    1    1    2  502    0 -0.16228375264E+02 -0.29230861820E+02 -0.10366662940E+03  0.10892462300E+03  0.00000000000E+00 0. -1.
<mgrwt>
<rscale>  1 0.12938958E+03</rscale>
<asrwt>0</asrwt>
<pdfrwt beam="1">  1       21 0.42771962E-02 0.12938958E+03</pdfrwt>
<pdfrwt beam="2">  1        1 0.41932797E-01 0.12938958E+03</pdfrwt>
<totfact> 0.36947688E+05</totfact>
</mgrwt>
</event>
<event>
 6    2  0.1674964E-002  0.1320231E+03  0.7546771E-02  0.1224484E+00
         21   -1    0    0  502  503  0.00000000000E+00  0.00000000000E+00  0.10000282470E+04  0.10000282470E+04  0.00000000000E+00 0.  1.
          2   -1    0    0  503    0 -0.00000000000E+00 -0.00000000000E+00 -0.12573598880E+02  0.12573598880E+02  0.00000000000E+00 0. -1.
         25    2    1    2    0    0  0.41845945923E+02 -0.73942751588E+01  0.93865245050E+03  0.94789162267E+03  0.12499738799E+03 0.  0.
          5    1    3    3  501    0 -0.35890635355E+00 -0.62538327549E+02  0.43283804922E+03  0.43733277727E+03  0.10000000000E+00 0. -1.
         -5    1    3    3    0  501  0.42204852277E+02  0.55144052390E+02  0.50581440129E+03  0.51055884540E+03  0.10000000000E+00 0. -1.
          2    1    1    2  502    0 -0.41845945923E+02  0.73942751588E+01  0.48802197626E+02  0.64710223214E+02  0.00000000000E+00 0. -1.
<mgrwt>
<rscale>  1 0.13202312E+03</rscale>
<asrwt>0</asrwt>
<pdfrwt beam="1">  1       21 0.15385044E+00 0.13202312E+03</pdfrwt>
<pdfrwt beam="2">  1        2 0.19344006E-02 0.13202312E+03</pdfrwt>
<totfact> 0.19194209E+04</totfact>
</mgrwt>
</event>
<event>
 6    2  0.1674964E-002  0.1292014E+03  0.7546771E-02  0.1228646E+00
          2   -1    0    0  503    0 -0.00000000000E+00  0.00000000000E+00  0.69195726999E+03  0.69195726999E+03  0.00000000000E+00 0. -1.
         21   -1    0    0  502  503  0.00000000000E+00 -0.00000000000E+00 -0.15373499531E+02  0.15373499531E+02  0.00000000000E+00 0. -1.
         25    2    1    2    0    0  0.30644513675E+02 -0.11449135879E+02  0.26882057422E+03  0.29825743485E+03  0.12499130926E+03 0.  0.
          5    1    3    3  501    0 -0.38914216000E+02 -0.34531995893E+02  0.77152254123E+02  0.93055119491E+02  0.10000000000E+00 0.  1.
         -5    1    3    3    0  501  0.69558729675E+02  0.23082860015E+02  0.19166832010E+03  0.20520231536E+03  0.10000000000E+00 0.  1.
          2    1    1    2  502    0 -0.30644513675E+02  0.11449135879E+02  0.40776319624E+03  0.40907333467E+03  0.00000000000E+00 0. -1.
<mgrwt>
<rscale>  1 0.12920138E+03</rscale>
<asrwt>0</asrwt>
<pdfrwt beam="1">  1       21 0.23651543E-02 0.12920138E+03</pdfrwt>
<pdfrwt beam="2">  1        2 0.10645494E+00 0.12920138E+03</pdfrwt>
<totfact> 0.49218918E+05</totfact>
</mgrwt>
</event>
<event>
 6    2  0.1674964E-002  0.1267742E+03  0.7546771E-02  0.1232322E+00
         21   -1    0    0  502  503  0.00000000000E+00  0.00000000000E+00  0.23717128174E+02  0.23717128174E+02  0.00000000000E+00 0.  1.
          2   -1    0    0  503    0 -0.00000000000E+00 -0.00000000000E+00 -0.33603472470E+03  0.33603472470E+03  0.00000000000E+00 0.  1.
         25    2    1    2    0    0 -0.99378391341E+01 -0.18646803583E+02 -0.15146743345E+03  0.19751980027E+03  0.12500089669E+03 0.  0.
          5    1    3    3  501    0  0.50084730091E+02  0.94012386763E+01 -0.29933984308E+02  0.59100904337E+02  0.10000000000E+00 0.  1.
         -5    1    3    3    0  501 -0.60022569225E+02 -0.28048042260E+02 -0.12153344914E+03  0.13841889593E+03  0.10000000000E+00 0.  1.
          2    1    1    2  502    0  0.99378391341E+01  0.18646803583E+02 -0.16085016308E+03  0.16223205261E+03  0.00000000000E+00 0.  1.
<mgrwt>
<rscale>  1 0.12677416E+03</rscale>
<asrwt>0</asrwt>
<pdfrwt beam="1">  1       21 0.36487892E-02 0.12677416E+03</pdfrwt>
<pdfrwt beam="2">  1        2 0.51697646E-01 0.12677416E+03</pdfrwt>
<totfact> 0.53442167E+05</totfact>
</mgrwt>
</event>
<event>
 6    2  0.1674964E-002  0.1287773E+03  0.7546771E-02  0.1229281E+00
          3   -1    0    0  503    0 -0.00000000000E+00  0.00000000000E+00  0.26030477282E+03  0.26030477282E+03  0.00000000000E+00 0. -1.
         21   -1    0    0  502  503  0.00000000000E+00 -0.00000000000E+00 -0.30767401934E+02  0.30767401934E+02  0.00000000000E+00 0. -1.
         25    2    1    2    0    0  0.28425775711E+02 -0.12249256117E+02  0.11575698800E+03  0.17315676215E+03  0.12500206001E+03 0.  0.
          5    1    3    3  501    0  0.20068620979E+02 -0.23422851807E+02 -0.19950149096E+02  0.36734152825E+02  0.10000000000E+00 0.  1.
         -5    1    3    3    0  501  0.83571547321E+01  0.11173595690E+02  0.13570713709E+03  0.13642260932E+03  0.10000000000E+00 0.  1.
          3    1    1    2  502    0 -0.28425775711E+02  0.12249256117E+02  0.11378038289E+03  0.11791541260E+03  0.00000000000E+00 0. -1.
<mgrwt>
<rscale>  1 0.12877727E+03</rscale>
<asrwt>0</asrwt>
<pdfrwt beam="1">  1       21 0.47334466E-02 0.12877727E+03</pdfrwt>
<pdfrwt beam="2">  1        3 0.40046887E-01 0.12877727E+03</pdfrwt>
<totfact> 0.86627044E+04</totfact>
</mgrwt>
</event>
<event>
 6    2  0.1674964E-002  0.1806991E+03  0.7546771E-02  0.1167128E+00
          2   -1    0    0  503    0 -0.00000000000E+00  0.00000000000E+00  0.57721006294E+03  0.57721006294E+03  0.00000000000E+00 0.  1.
         21   -1    0    0  502  503  0.00000000000E+00 -0.00000000000E+00 -0.28149973110E+03  0.28149973110E+03  0.00000000000E+00 0.  1.
         25    2    1    2    0    0 -0.40737017279E+02  0.12396053592E+03 -0.24390166436E+03  0.30354601146E+03  0.12500576049E+03 0.  0.
          5    1    3    3  501    0  0.26240455381E+02 -0.81099021286E+01 -0.16078118320E+02  0.31825271402E+02  0.10000000000E+00 0. -1.
         -5    1    3    3    0  501 -0.66977472660E+02  0.13207043805E+03 -0.22782354604E+03  0.27172074006E+03  0.10000000000E+00 0. -1.
          2    1    1    2  502    0  0.40737017279E+02 -0.12396053592E+03  0.53961199619E+03  0.55516378257E+03  0.00000000000E+00 0.  1.
<mgrwt>
<rscale>  1 0.18069908E+03</rscale>
<asrwt>0</asrwt>
<pdfrwt beam="1">  1       21 0.43307651E-01 0.18069908E+03</pdfrwt>
<pdfrwt beam="2">  1        2 0.88801548E-01 0.18069908E+03</pdfrwt>
<totfact> 0.34147620E+03</totfact>
</mgrwt>
</event>
<event>
 6    2  0.1674964E-002  0.1887050E+03  0.7546771E-02  0.1159635E+00
          2   -1    0    0  503    0 -0.00000000000E+00  0.00000000000E+00  0.18304627137E+03  0.18304627137E+03  0.00000000000E+00 0. -1.
         21   -1    0    0  502  503  0.00000000000E+00 -0.00000000000E+00 -0.16128279323E+03  0.16128279323E+03  0.00000000000E+00 0. -1.
         25    2    1    2    0    0  0.13035947820E+03  0.54678126504E+02 -0.35130612479E+02  0.19194721325E+03  0.12500512656E+03 0.  0.
          5    1    3    3  501    0  0.10376315257E+03  0.90109170272E+02 -0.34297689190E+01  0.13747082495E+03  0.10000000000E+00 0.  1.
         -5    1    3    3    0  501  0.26596325629E+02 -0.35431043768E+02 -0.31700843560E+02  0.54476388297E+02  0.10000000000E+00 0.  1.
          2    1    1    2  502    0 -0.13035947820E+03 -0.54678126504E+02  0.56894090613E+02  0.15238185135E+03  0.00000000000E+00 0. -1.
<mgrwt>
<rscale>  1 0.18870499E+03</rscale>
<asrwt>0</asrwt>
<pdfrwt beam="1">  1       21 0.24812738E-01 0.18870499E+03</pdfrwt>
<pdfrwt beam="2">  1        2 0.28160965E-01 0.18870499E+03</pdfrwt>
<totfact> 0.35570067E+04</totfact>
</mgrwt>
</event>
<event>
 6    2  0.1674964E-002  0.1569901E+03  0.7546771E-02  0.1192137E+00
         21   -1    0    0  502  503  0.00000000000E+00  0.00000000000E+00  0.90833968962E+02  0.90833968962E+02  0.00000000000E+00 0.  1.
          2   -1    0    0  503    0 -0.00000000000E+00 -0.00000000000E+00 -0.30862927478E+03  0.30862927478E+03  0.00000000000E+00 0.  1.
         25    2    1    2    0    0  0.83175303223E+02  0.45876635799E+02  0.52038246857E+01  0.15707634438E+03  0.12499240534E+03 0.  0.
          5    1    3    3  501    0  0.64461397578E+01 -0.32570652554E+02 -0.26912641190E+02  0.42739915552E+02  0.10000000000E+00 0.  1.
         -5    1    3    3    0  501  0.76729163465E+02  0.78447288353E+02  0.32116465876E+02  0.11433642882E+03  0.10000000000E+00 0.  1.
          2    1    1    2  502    0 -0.83175303223E+02 -0.45876635799E+02 -0.22299913051E+03  0.24238689937E+03  0.00000000000E+00 0.  1.
<mgrwt>
<rscale>  1 0.15699012E+03</rscale>
<asrwt>0</asrwt>
<pdfrwt beam="1">  1       21 0.13974457E-01 0.15699012E+03</pdfrwt>
<pdfrwt beam="2">  1        2 0.47481427E-01 0.15699012E+03</pdfrwt>
<totfact> 0.58620711E+04</totfact>
</mgrwt>
</event>
<event>
 6    2  0.1674964E-002  0.1493662E+03  0.7546771E-02  0.1201254E+00
          1   -1    0    0  503    0 -0.00000000000E+00  0.00000000000E+00  0.73765948738E+03  0.73765948738E+03  0.00000000000E+00 0. -1.
         21   -1    0    0  502  503  0.00000000000E+00 -0.00000000000E+00 -0.33145931308E+02  0.33145931308E+02  0.00000000000E+00 0.  1.
         25    2    1    2    0    0 -0.32627654269E+02 -0.74964400342E+02  0.15504863199E+03  0.21529130732E+03  0.12500417425E+03 0.  0.
          5    1    3    3  501    0 -0.20867449785E+02 -0.55926276932E+02  0.10773234896E+01  0.59702341143E+02  0.10000000000E+00 0. -1.
         -5    1    3    3    0  501 -0.11760204484E+02 -0.19038123410E+02  0.15397130850E+03  0.15558896617E+03  0.10000000000E+00 0. -1.
          1    1    1    2  502    0  0.32627654269E+02  0.74964400342E+02  0.54946492408E+03  0.55551411137E+03  0.00000000000E+00 0. -1.
<mgrwt>
<rscale>  1 0.14936622E+03</rscale>
<asrwt>0</asrwt>
<pdfrwt beam="1">  1       21 0.50993746E-02 0.14936622E+03</pdfrwt>
<pdfrwt beam="2">  1        1 0.11348606E+00 0.14936622E+03</pdfrwt>
<totfact> 0.75602516E+04</totfact>
</mgrwt>
</event>
<event>
 6    2  0.1674964E-002  0.1537480E+03  0.7546771E-02  0.1195942E+00
          2   -1    0    0  503    0 -0.00000000000E+00  0.00000000000E+00  0.14194976210E+04  0.14194976210E+04  0.00000000000E+00 0. -1.
         21   -1    0    0  502  503  0.00000000000E+00 -0.00000000000E+00 -0.54807078021E+02  0.54807078021E+02  0.00000000000E+00 0. -1.
         25    2    1    2    0    0  0.72240491883E+02  0.52849815367E+02  0.57647088722E+02  0.16419997688E+03  0.12500661550E+03 0.  0.
          5    1    3    3  501    0 -0.28644647748E+02  0.43837587039E+02  0.22386094610E+02  0.56950830669E+02  0.10000000000E+00 0. -1.
         -5    1    3    3    0  501  0.10088513963E+03  0.90122283284E+01  0.35260994112E+02  0.10724914621E+03  0.10000000000E+00 0. -1.
          2    1    1    2  502    0 -0.72240491883E+02 -0.52849815367E+02  0.13070434543E+04  0.13101047222E+04  0.00000000000E+00 0. -1.
<mgrwt>
<rscale>  1 0.15374799E+03</rscale>
<asrwt>0</asrwt>
<pdfrwt beam="1">  1       21 0.84318592E-02 0.15374799E+03</pdfrwt>
<pdfrwt beam="2">  1        2 0.21838422E+00 0.15374799E+03</pdfrwt>
<totfact> 0.21433611E+04</totfact>
</mgrwt>
</event>
<event>
 6    2  0.1674964E-002  0.1331277E+03  0.7546771E-02  0.1222887E+00
          2   -1    0    0  503    0 -0.00000000000E+00  0.00000000000E+00  0.10965629204E+04  0.10965629204E+04  0.00000000000E+00 0. -1.
         21   -1    0    0  502  503  0.00000000000E+00 -0.00000000000E+00 -0.36029804144E+02  0.36029804144E+02  0.00000000000E+00 0.  1.
         25    2    1    2    0    0 -0.45812614443E+02  0.31815981025E+00  0.89355702981E+02  0.16033531782E+03  0.12499630242E+03 0.  0.
          5    1    3    3  501    0 -0.77299378800E+02  0.15181837055E+01  0.10060176300E+03  0.12687877507E+03  0.10000000000E+00 0. -1.
         -5    1    3    3    0  501  0.31486764357E+02 -0.12000238953E+01 -0.11246060019E+02  0.33456542753E+02  0.10000000000E+00 0. -1.
          2    1    1    2  502    0  0.45812614443E+02 -0.31815981025E+00  0.97117741329E+03  0.97225740674E+03  0.00000000000E+00 0. -1.
<mgrwt>
<rscale>  1 0.13312765E+03</rscale>
<asrwt>0</asrwt>
<pdfrwt beam="1">  1       21 0.55430476E-02 0.13312765E+03</pdfrwt>
<pdfrwt beam="2">  1        2 0.16870196E+00 0.13312765E+03</pdfrwt>
<totfact> 0.66278368E+04</totfact>
</mgrwt>
</event>
<event>
 6    2  0.1674964E-002  0.1299024E+03  0.7546771E-02  0.1227601E+00
          3   -1    0    0  503    0 -0.00000000000E+00  0.00000000000E+00  0.40488339458E+02  0.40488339458E+02  0.00000000000E+00 0.  1.
         21   -1    0    0  502  503  0.00000000000E+00 -0.00000000000E+00 -0.24638533790E+03  0.24638533790E+03  0.00000000000E+00 0.  1.
         25    2    1    2    0    0 -0.20197312694E+02 -0.28965620768E+02 -0.21427981028E+03  0.25058028732E+03  0.12501081822E+03 0.  0.
          5    1    3    3  501    0  0.12618958715E+02 -0.16111208546E+02  0.10536472588E+02  0.23018175741E+02  0.10000000000E+00 0.  1.
         -5    1    3    3    0  501 -0.32816271408E+02 -0.12854412221E+02 -0.22481628287E+03  0.22756211158E+03  0.10000000000E+00 0.  1.
          3    1    1    2  502    0  0.20197312694E+02  0.28965620768E+02  0.83828118347E+01  0.36293390042E+02  0.00000000000E+00 0.  1.
<mgrwt>
<rscale>  1 0.12990244E+03</rscale>
<asrwt>0</asrwt>
<pdfrwt beam="1">  1       21 0.37905437E-01 0.12990244E+03</pdfrwt>
<pdfrwt beam="2">  1        3 0.62289752E-02 0.12990244E+03</pdfrwt>
<totfact> 0.51331656E+04</totfact>
</mgrwt>
</event>
<event>
 6    2  0.1674964E-002  0.1279373E+03  0.7546771E-02  0.1230549E+00
          3   -1    0    0  503    0 -0.00000000000E+00  0.00000000000E+00  0.29583436571E+02  0.29583436571E+02  0.00000000000E+00 0. -1.
         21   -1    0    0  502  503  0.00000000000E+00 -0.00000000000E+00 -0.44572875271E+03  0.44572875271E+03  0.00000000000E+00 0.  1.
         25    2    1    2    0    0  0.74836790404E+01 -0.26196728768E+02 -0.42717315617E+03  0.44592022940E+03  0.12500268633E+03 0.  0.
          5    1    3    3  501    0  0.21491011005E+02  0.47511762985E+02 -0.15168939867E+03  0.16040235299E+03  0.10000000000E+00 0. -1.
         -5    1    3    3    0  501 -0.14007331964E+02 -0.73708491754E+02 -0.27548375750E+03  0.28551787641E+03  0.10000000000E+00 0. -1.
          3    1    1    2  502    0 -0.74836790404E+01  0.26196728768E+02  0.11027840025E+02  0.29391959883E+02  0.00000000000E+00 0. -1.
<mgrwt>
<rscale>  1 0.12793727E+03</rscale>
<asrwt>0</asrwt>
<pdfrwt beam="1">  1       21 0.68573654E-01 0.12793727E+03</pdfrwt>
<pdfrwt beam="2">  1        3 0.45512979E-02 0.12793727E+03</pdfrwt>
<totfact> 0.24682101E+04</totfact>
</mgrwt>
</event>
<event>
 6    2  0.1674964E-002  0.1290065E+03  0.7546771E-02  0.1228937E+00
          1   -1    0    0  503    0 -0.00000000000E+00  0.00000000000E+00  0.34905418836E+02  0.34905418836E+02  0.00000000000E+00 0.  1.
         21   -1    0    0  502  503  0.00000000000E+00 -0.00000000000E+00 -0.40757087380E+03  0.40757087380E+03  0.00000000000E+00 0.  1.
         25    2    1    2    0    0 -0.31527633641E+02 -0.49169806593E+01 -0.38667496844E+03  0.40762755020E+03  0.12499808031E+03 0.  0.
          5    1    3    3  501    0 -0.17419461038E+01 -0.56181366283E+02 -0.27997477306E+03  0.28556131363E+03  0.10000000000E+00 0.  1.
         -5    1    3    3    0  501 -0.29785687538E+02  0.51264385623E+02 -0.10670019539E+03  0.12206623657E+03  0.10000000000E+00 0.  1.
          1    1    1    2  502    0  0.31527633641E+02  0.49169806593E+01  0.14009513474E+02  0.34848742439E+02  0.00000000000E+00 0.  1.
<mgrwt>
<rscale>  1 0.12900654E+03</rscale>
<asrwt>0</asrwt>
<pdfrwt beam="1">  1       21 0.62703211E-01 0.12900654E+03</pdfrwt>
<pdfrwt beam="2">  1        1 0.53700645E-02 0.12900654E+03</pdfrwt>
<totfact> 0.37269023E+04</totfact>
</mgrwt>
</event>
<event>
 6    2  0.1674964E-002  0.1372792E+03  0.7546771E-02  0.1217038E+00
          1   -1    0    0  503    0 -0.00000000000E+00  0.00000000000E+00  0.14326038174E+04  0.14326038174E+04  0.00000000000E+00 0. -1.
         21   -1    0    0  502  503  0.00000000000E+00 -0.00000000000E+00 -0.15975628553E+02  0.15975628553E+02  0.00000000000E+00 0. -1.
         25    2    1    2    0    0  0.46720207873E+02  0.32224014417E+02  0.29350104710E+03  0.32401920236E+03  0.12499765567E+03 0.  0.
          5    1    3    3  501    0 -0.24043065333E+02  0.54365734098E+02  0.94372871818E+02  0.11153452815E+03  0.10000000000E+00 0. -1.
         -5    1    3    3    0  501  0.70763273206E+02 -0.22141719680E+02  0.19912817528E+03  0.21248467421E+03  0.10000000000E+00 0. -1.
          1    1    1    2  502    0 -0.46720207873E+02 -0.32224014417E+02  0.11231271417E+04  0.11245602436E+04  0.00000000000E+00 0. -1.
<mgrwt>
<rscale>  1 0.13727920E+03</rscale>
<asrwt>0</asrwt>
<pdfrwt beam="1">  1       21 0.24577901E-02 0.13727920E+03</pdfrwt>
<pdfrwt beam="2">  1        1 0.22040049E+00 0.13727920E+03</pdfrwt>
<totfact> 0.79416255E+04</totfact>
</mgrwt>
</event>
<event>
 6    2  0.1674964E-002  0.1279073E+03  0.7546771E-02  0.1230594E+00
          2   -1    0    0  503    0 -0.00000000000E+00  0.00000000000E+00  0.23440418413E+04  0.23440418413E+04  0.00000000000E+00 0. -1.
         21   -1    0    0  502  503  0.00000000000E+00 -0.00000000000E+00 -0.65262380227E+01  0.65262380227E+01  0.00000000000E+00 0. -1.
         25    2    1    2    0    0  0.15785349357E+02  0.22032136904E+02  0.63079876834E+03  0.64363605168E+03  0.12500275429E+03 0.  0.
          5    1    3    3  501    0 -0.51243549596E+02 -0.16353142179E+01  0.17599897962E+03  0.18331455603E+03  0.10000000000E+00 0.  1.
         -5    1    3    3    0  501  0.67028898953E+02  0.23667451122E+02  0.45479978872E+03  0.46032149565E+03  0.10000000000E+00 0.  1.
          2    1    1    2  502    0 -0.15785349357E+02 -0.22032136904E+02  0.17067168350E+04  0.17069320277E+04  0.00000000000E+00 0. -1.
<mgrwt>
<rscale>  1 0.12790731E+03</rscale>
<asrwt>0</asrwt>
<pdfrwt beam="1">  1       21 0.10040385E-02 0.12790731E+03</pdfrwt>
<pdfrwt beam="2">  1        2 0.36062115E+00 0.12790731E+03</pdfrwt>
<totfact> 0.23813181E+05</totfact>
</mgrwt>
</event>
<event>
 6    2  0.1674964E-002  0.1382048E+03  0.7546771E-02  0.1215765E+00
         21   -1    0    0  502  503  0.00000000000E+00  0.00000000000E+00  0.31013498510E+02  0.31013498510E+02  0.00000000000E+00 0.  1.
          2   -1    0    0  503    0 -0.00000000000E+00 -0.00000000000E+00 -0.19982112878E+04  0.19982112878E+04  0.00000000000E+00 0. -1.
         25    2    1    2    0    0  0.52468658045E+02  0.26905680282E+02 -0.12580741910E+03  0.18689056822E+03  0.12499480822E+03 0.  0.
          5    1    3    3  501    0  0.77830413804E+02  0.58382041232E+02 -0.95851991297E+02  0.13657836683E+03  0.10000000000E+00 0. -1.
         -5    1    3    3    0  501 -0.25361755759E+02 -0.31476360950E+02 -0.29955427805E+02  0.50312201391E+02  0.10000000000E+00 0. -1.
          2    1    1    2  502    0 -0.52468658045E+02 -0.26905680282E+02 -0.18413903702E+04  0.18423342181E+04  0.00000000000E+00 0. -1.
<mgrwt>
<rscale>  1 0.13820484E+03</rscale>
<asrwt>0</asrwt>
<pdfrwt beam="1">  1       21 0.47713068E-02 0.13820484E+03</pdfrwt>
<pdfrwt beam="2">  1        2 0.30741716E+00 0.13820484E+03</pdfrwt>
<totfact> 0.28605636E+04</totfact>
</mgrwt>
</event>
<event>
 6    2  0.1674964E-002  0.1658819E+03  0.7546771E-02  0.1182212E+00
         21   -1    0    0  502  503  0.00000000000E+00  0.00000000000E+00  0.96404486461E+02  0.96404486461E+02  0.00000000000E+00 0.  1.
          2   -1    0    0  503    0 -0.00000000000E+00 -0.00000000000E+00 -0.41110133871E+03  0.41110133871E+03  0.00000000000E+00 0.  1.
         25    2    1    2    0    0 -0.10607079174E+03  0.25338468623E+02  0.88063608558E+01  0.16611546247E+03  0.12499497602E+03 0.  0.
          5    1    3    3  501    0  0.26555230804E+02 -0.10280066404E+02 -0.43557166948E+00  0.28479111135E+02  0.10000000000E+00 0.  1.
         -5    1    3    3    0  501 -0.13262602254E+03  0.35618535028E+02  0.92419325252E+01  0.13763635134E+03  0.10000000000E+00 0.  1.
          2    1    1    2  502    0  0.10607079174E+03 -0.25338468623E+02 -0.32350321311E+03  0.34139036270E+03  0.00000000000E+00 0.  1.
<mgrwt>
<rscale>  1 0.16588187E+03</rscale>
<asrwt>0</asrwt>
<pdfrwt beam="1">  1       21 0.14831459E-01 0.16588187E+03</pdfrwt>
<pdfrwt beam="2">  1        2 0.63246361E-01 0.16588187E+03</pdfrwt>
<totfact> 0.38741269E+04</totfact>
</mgrwt>
</event>
<event>
 6    2  0.1674964E-002  0.1260084E+03  0.7546771E-02  0.1233502E+00
          2   -1    0    0  503    0 -0.00000000000E+00  0.00000000000E+00  0.37902336483E+02  0.37902336483E+02  0.00000000000E+00 0.  1.
         21   -1    0    0  502  503  0.00000000000E+00 -0.00000000000E+00 -0.54526299151E+03  0.54526299151E+03  0.00000000000E+00 0.  1.
         25    2    1    2    0    0 -0.47525233668E+01 -0.15202104362E+02 -0.53588217885E+03  0.55049779401E+03  0.12499768454E+03 0.  0.
          5    1    3    3  501    0 -0.23019958167E+02  0.37158508430E+02 -0.41736808779E+03  0.41965081190E+03  0.10000000000E+00 0.  1.
         -5    1    3    3    0  501  0.18267434800E+02 -0.52360612792E+02 -0.11851409106E+03  0.13084698210E+03  0.10000000000E+00 0.  1.
          2    1    1    2  502    0  0.47525233668E+01  0.15202104362E+02  0.28521523825E+02  0.32667533986E+02  0.00000000000E+00 0.  1.
<mgrwt>
<rscale>  1 0.12600838E+03</rscale>
<asrwt>0</asrwt>
<pdfrwt beam="1">  1       21 0.83886610E-01 0.12600838E+03</pdfrwt>
<pdfrwt beam="2">  1        2 0.58311290E-02 0.12600838E+03</pdfrwt>
<totfact> 0.19116880E+04</totfact>
</mgrwt>
</event>
<event>
 6    2  0.1674964E-002  0.1297516E+03  0.7546771E-02  0.1227825E+00
         21   -1    0    0  502  503  0.00000000000E+00  0.00000000000E+00  0.47325447781E+01  0.47325447781E+01  0.00000000000E+00 0.  1.
          2   -1    0    0  503    0 -0.00000000000E+00 -0.00000000000E+00 -0.17129967339E+04  0.17129967339E+04  0.00000000000E+00 0. -1.
         25    2    1    2    0    0  0.18285791407E+02 -0.29592190995E+02 -0.96917112895E+03  0.97781805460E+03  0.12500161103E+03 0.  0.
          5    1    3    3  501    0 -0.31826397314E+02  0.25790920380E+02 -0.58632903680E+03  0.58775831814E+03  0.10000000000E+00 0.  1.
         -5    1    3    3    0  501  0.50112188721E+02 -0.55383111375E+02 -0.38284209215E+03  0.39005973646E+03  0.10000000000E+00 0.  1.
          2    1    1    2  502    0 -0.18285791407E+02  0.29592190995E+02 -0.73909306013E+03  0.73991122405E+03  0.00000000000E+00 0. -1.
<mgrwt>
<rscale>  1 0.12975157E+03</rscale>
<asrwt>0</asrwt>
<pdfrwt beam="1">  1       21 0.72808401E-03 0.12975157E+03</pdfrwt>
<pdfrwt beam="2">  1        2 0.26353789E+00 0.12975157E+03</pdfrwt>
<totfact> 0.83111915E+05</totfact>
</mgrwt>
</event>
<event>
 6    2  0.1674964E-002  0.1262455E+03  0.7546771E-02  0.1233135E+00
         21   -1    0    0  502  503  0.00000000000E+00  0.00000000000E+00  0.20123831529E+03  0.20123831529E+03  0.00000000000E+00 0. -1.
          1   -1    0    0  503    0 -0.00000000000E+00 -0.00000000000E+00 -0.40547777264E+02  0.40547777264E+02  0.00000000000E+00 0. -1.
         25    2    1    2    0    0  0.17477885037E+02 -0.26215124507E+01  0.17721917401E+03  0.21758806369E+03  0.12500232411E+03 0.  0.
          5    1    3    3  501    0  0.19255036408E+02  0.21408597939E+01 -0.15494186403E+02  0.24807650433E+02  0.10000000000E+00 0. -1.
         -5    1    3    3    0  501 -0.17771513712E+01 -0.47623722446E+01  0.19271336041E+03  0.19278041326E+03  0.10000000000E+00 0. -1.
          1    1    1    2  502    0 -0.17477885037E+02  0.26215124507E+01 -0.16528635986E+02  0.24198028855E+02  0.00000000000E+00 0. -1.
<mgrwt>
<rscale>  1 0.12624551E+03</rscale>
<asrwt>0</asrwt>
<pdfrwt beam="1">  1       21 0.30959740E-01 0.12624551E+03</pdfrwt>
<pdfrwt beam="2">  1        1 0.62381197E-02 0.12624551E+03</pdfrwt>
<totfact> 0.12721537E+05</totfact>
</mgrwt>
</event>
<event>
 6    2  0.1674964E-002  0.1521339E+03  0.7546771E-02  0.1197875E+00
         21   -1    0    0  502  503  0.00000000000E+00  0.00000000000E+00  0.14456100343E+03  0.14456100343E+03  0.00000000000E+00 0.  1.
          2   -1    0    0  503    0 -0.00000000000E+00 -0.00000000000E+00 -0.60534457135E+03  0.60534457135E+03  0.00000000000E+00 0.  1.
         25    2    1    2    0    0 -0.71925598570E+02  0.48447785895E+02  0.10025967915E+03  0.18219966081E+03  0.12499693375E+03 0.  0.
          5    1    3    3  501    0 -0.23862534465E+02  0.61310322266E+02 -0.47884055623E+01  0.65964497991E+02  0.10000000000E+00 0. -1.
         -5    1    3    3    0  501 -0.48063064106E+02 -0.12862536371E+02  0.10504808471E+03  0.11623516282E+03  0.10000000000E+00 0. -1.
          2    1    1    2  502    0  0.71925598570E+02 -0.48447785895E+02 -0.56104324706E+03  0.56770591398E+03  0.00000000000E+00 0.  1.
<mgrwt>
<rscale>  1 0.15213387E+03</rscale>
<asrwt>0</asrwt>
<pdfrwt beam="1">  1       21 0.22240154E-01 0.15213387E+03</pdfrwt>
<pdfrwt beam="2">  1        2 0.93129934E-01 0.15213387E+03</pdfrwt>
<totfact> 0.11985952E+04</totfact>
</mgrwt>
</event>
<event>
 6    2  0.1674964E-002  0.1376416E+03  0.7546771E-02  0.1216538E+00
         21   -1    0    0  502  503  0.00000000000E+00  0.00000000000E+00  0.94739640834E+01  0.94739640834E+01  0.00000000000E+00 0.  1.
          2   -1    0    0  503    0 -0.00000000000E+00 -0.00000000000E+00 -0.10204054475E+04  0.10204054475E+04  0.00000000000E+00 0. -1.
         25    2    1    2    0    0  0.38934242247E+02  0.42502419540E+02 -0.65438450530E+03  0.66870344548E+03  0.12499154505E+03 0.  0.
          5    1    3    3  501    0  0.46999468233E+02  0.83091714531E+02 -0.48801569277E+03  0.49726502936E+03  0.10000000000E+00 0. -1.
         -5    1    3    3    0  501 -0.80652259861E+01 -0.40589294991E+02 -0.16636881254E+03  0.17143841612E+03  0.10000000000E+00 0. -1.
          2    1    1    2  502    0 -0.38934242247E+02 -0.42502419540E+02 -0.35654697807E+03  0.36117596605E+03  0.00000000000E+00 0. -1.
<mgrwt>
<rscale>  1 0.13764163E+03</rscale>
<asrwt>0</asrwt>
<pdfrwt beam="1">  1       21 0.14575343E-02 0.13764163E+03</pdfrwt>
<pdfrwt beam="2">  1        2 0.15698530E+00 0.13764163E+03</pdfrwt>
<totfact> 0.65681352E+05</totfact>
</mgrwt>
</event>
<event>
 6    2  0.1674964E-002  0.1332973E+03  0.7546771E-02  0.1222644E+00
         21   -1    0    0  502  503  0.00000000000E+00  0.00000000000E+00  0.68970753026E+02  0.68970753026E+02  0.00000000000E+00 0.  1.
          1   -1    0    0  503    0 -0.00000000000E+00 -0.00000000000E+00 -0.14698682133E+04  0.14698682133E+04  0.00000000000E+00 0. -1.
         25    2    1    2    0    0 -0.15722086810E+02 -0.43393891473E+02  0.38311162182E+01  0.13335236467E+03  0.12505183677E+03 0.  0.
          5    1    3    3  501    0 -0.69374744048E+02 -0.10201185295E+02  0.44120926486E+01  0.70259489428E+02  0.10000000000E+00 0. -1.
         -5    1    3    3    0  501  0.53652657238E+02 -0.33192706178E+02 -0.58097643042E+00  0.63092875238E+02  0.10000000000E+00 0. -1.
          1    1    1    2  502    0  0.15722086810E+02  0.43393891473E+02 -0.14047285764E+04  0.14054866016E+04  0.00000000000E+00 0. -1.
<mgrwt>
<rscale>  1 0.13329732E+03</rscale>
<asrwt>0</asrwt>
<pdfrwt beam="1">  1       21 0.10610886E-01 0.13329732E+03</pdfrwt>
<pdfrwt beam="2">  1        1 0.22613356E+00 0.13329732E+03</pdfrwt>
<totfact> 0.63784826E+03</totfact>
</mgrwt>
</event>
<event>
 6    2  0.1674964E-002  0.1663312E+03  0.7546771E-02  0.1181729E+00
         21   -1    0    0  502  503  0.00000000000E+00  0.00000000000E+00  0.40382646694E+02  0.40382646694E+02  0.00000000000E+00 0. -1.
          2   -1    0    0  503    0 -0.00000000000E+00 -0.00000000000E+00 -0.50275232683E+03  0.50275232683E+03  0.00000000000E+00 0. -1.
         25    2    1    2    0    0  0.77800006951E+02 -0.77387726194E+02 -0.20963816681E+03  0.26760835217E+03  0.12499747166E+03 0.  0.
          5    1    3    3  501    0  0.56594128148E+02 -0.94439849951E+02 -0.82469618050E+02  0.13756099920E+03  0.10000000000E+00 0.  1.
         -5    1    3    3    0  501  0.21205878803E+02  0.17052123757E+02 -0.12716854876E+03  0.13004735297E+03  0.10000000000E+00 0.  1.
          2    1    1    2  502    0 -0.77800006951E+02  0.77387726194E+02 -0.25273151332E+03  0.27552662135E+03  0.00000000000E+00 0. -1.
<mgrwt>
<rscale>  1 0.16633120E+03</rscale>
<asrwt>0</asrwt>
<pdfrwt beam="1">  1       21 0.62127145E-02 0.16633120E+03</pdfrwt>
<pdfrwt beam="2">  1        2 0.77346517E-01 0.16633120E+03</pdfrwt>
<totfact> 0.14348862E+05</totfact>
</mgrwt>
</event>
<event>
 6    2  0.1674964E-002  0.1314890E+03  0.7546771E-02  0.1225263E+00
          1   -1    0    0  503    0 -0.00000000000E+00  0.00000000000E+00  0.18515729083E+04  0.18515729083E+04  0.00000000000E+00 0. -1.
         21   -1    0    0  502  503  0.00000000000E+00 -0.00000000000E+00 -0.40118436566E+01  0.40118436566E+01  0.00000000000E+00 0. -1.
         25    2    1    2    0    0 -0.32096086654E+02  0.25179761000E+02  0.14351976111E+04  0.14412083566E+04  0.12500066128E+03 0.  0.
          5    1    3    3  501    0  0.36808658416E+02 -0.69761789370E+01  0.18809005533E+03  0.19178483600E+03  0.10000000000E+00 0.  1.
         -5    1    3    3    0  501 -0.68904745070E+02  0.32155939937E+02  0.12471075557E+04  0.12494235206E+04  0.10000000000E+00 0.  1.
          1    1    1    2  502    0  0.32096086654E+02 -0.25179761000E+02  0.41236345362E+03  0.41437639535E+03  0.00000000000E+00 0. -1.
<mgrwt>
<rscale>  1 0.13148895E+03</rscale>
<asrwt>0</asrwt>
<pdfrwt beam="1">  1       21 0.61720819E-03 0.13148895E+03</pdfrwt>
<pdfrwt beam="2">  1        1 0.28485669E+00 0.13148895E+03</pdfrwt>
<totfact> 0.38418656E+05</totfact>
</mgrwt>
</event>
<event>
 6    2  0.1674964E-002  0.1322758E+03  0.7546771E-02  0.1224117E+00
         21   -1    0    0  502  503  0.00000000000E+00  0.00000000000E+00  0.19211774808E+02  0.19211774808E+02  0.00000000000E+00 0. -1.
          2   -1    0    0  503    0 -0.00000000000E+00 -0.00000000000E+00 -0.64419970496E+03  0.64419970496E+03  0.00000000000E+00 0.  1.
         25    2    1    2    0    0  0.29565812903E+02  0.31567185982E+02 -0.22431857185E+03  0.26041450806E+03  0.12500507913E+03 0.  0.
          5    1    3    3  501    0  0.91227197389E+00 -0.22657791293E+02  0.48432126880E+01  0.23187808339E+02  0.10000000000E+00 0.  1.
         -5    1    3    3    0  501  0.28653540929E+02  0.54224977275E+02 -0.22916178454E+03  0.23722669972E+03  0.10000000000E+00 0.  1.
          2    1    1    2  502    0 -0.29565812903E+02 -0.31567185982E+02 -0.40066935831E+03  0.40299697171E+03  0.00000000000E+00 0.  1.
<mgrwt>
<rscale>  1 0.13227583E+03</rscale>
<asrwt>0</asrwt>
<pdfrwt beam="1">  1       21 0.29556577E-02 0.13227583E+03</pdfrwt>
<pdfrwt beam="2">  1        2 0.99107646E-01 0.13227583E+03</pdfrwt>
<totfact> 0.37245047E+05</totfact>
</mgrwt>
</event>
<event>
 6    2  0.1674964E-002  0.1261024E+03  0.7546771E-02  0.1233356E+00
         21   -1    0    0  502  503  0.00000000000E+00  0.00000000000E+00  0.36908443838E+01  0.36908443838E+01  0.00000000000E+00 0. -1.
          2   -1    0    0  503    0 -0.00000000000E+00 -0.00000000000E+00 -0.15007222048E+04  0.15007222048E+04  0.00000000000E+00 0. -1.
         25    2    1    2    0    0 -0.63655332169E+01 -0.15371450993E+02 -0.11318789898E+04  0.11388818531E+04  0.12500010532E+03 0.  0.
          5    1    3    3  501    0  0.14214758093E+02  0.52561824260E+02 -0.55025569228E+03  0.55294316309E+03  0.10000000000E+00 0. -1.
         -5    1    3    3    0  501 -0.20580291310E+02 -0.67933275253E+02 -0.58162329747E+03  0.58593869000E+03  0.10000000000E+00 0. -1.
          2    1    1    2  502    0  0.63655332169E+01  0.15371450993E+02 -0.36515237069E+03  0.36553119612E+03  0.00000000000E+00 0. -1.
<mgrwt>
<rscale>  1 0.12610245E+03</rscale>
<asrwt>0</asrwt>
<pdfrwt beam="1">  1       21 0.56782211E-03 0.12610245E+03</pdfrwt>
<pdfrwt beam="2">  1        2 0.23088038E+00 0.12610245E+03</pdfrwt>
<totfact> 0.15707100E+06</totfact>
</mgrwt>
</event>
<event>
 6    2  0.1674964E-002  0.1459572E+03  0.7546771E-02  0.1205531E+00
          3   -1    0    0  503    0 -0.00000000000E+00  0.00000000000E+00  0.12941095726E+02  0.12941095726E+02  0.00000000000E+00 0. -1.
         21   -1    0    0  502  503  0.00000000000E+00 -0.00000000000E+00 -0.95010300082E+03  0.95010300082E+03  0.00000000000E+00 0. -1.
         25    2    1    2    0    0 -0.75356678040E+02  0.26010613273E+00 -0.64666303089E+03  0.66293029730E+03  0.12499922794E+03 0.  0.
          5    1    3    3  501    0 -0.43806325014E+00 -0.30691979741E+02 -0.43801460239E+03  0.43908881952E+03  0.10000000000E+00 0. -1.
         -5    1    3    3    0  501 -0.74918614790E+02  0.30952085873E+02 -0.20864842850E+03  0.22384147779E+03  0.10000000000E+00 0. -1.
          3    1    1    2  502    0  0.75356678040E+02 -0.26010613273E+00 -0.29049887421E+03  0.30011379924E+03  0.00000000000E+00 0. -1.
<mgrwt>
<rscale>  1 0.14595720E+03</rscale>
<asrwt>0</asrwt>
<pdfrwt beam="1">  1       21 0.14616970E+00 0.14595720E+03</pdfrwt>
<pdfrwt beam="2">  1        3 0.19909377E-02 0.14595720E+03</pdfrwt>
<totfact> 0.15021680E+04</totfact>
</mgrwt>
</event>
<event>
 6    2  0.1674964E-002  0.1463336E+03  0.7546771E-02  0.1205052E+00
         21   -1    0    0  502  503  0.00000000000E+00  0.00000000000E+00  0.11811871817E+03  0.11811871817E+03  0.00000000000E+00 0. -1.
          3   -1    0    0  503    0 -0.00000000000E+00 -0.00000000000E+00 -0.14306143288E+03  0.14306143288E+03  0.00000000000E+00 0. -1.
         25    2    1    2    0    0  0.41431985530E+02  0.63801689336E+02  0.49757966448E+02  0.15456187516E+03  0.12500501206E+03 0.  0.
          5    1    3    3  501    0 -0.37740773369E+02  0.31233216392E+02 -0.10205988975E+02  0.50040503512E+02  0.10000000000E+00 0.  1.
         -5    1    3    3    0  501  0.79172758899E+02  0.32568472943E+02  0.59963955423E+02  0.10452137165E+03  0.10000000000E+00 0.  1.
          3    1    1    2  502    0 -0.41431985530E+02 -0.63801689336E+02 -0.74700681162E+02  0.10661827589E+03  0.00000000000E+00 0. -1.
<mgrwt>
<rscale>  1 0.14633358E+03</rscale>
<asrwt>0</asrwt>
<pdfrwt beam="1">  1       21 0.18172111E-01 0.14633358E+03</pdfrwt>
<pdfrwt beam="2">  1        3 0.22009451E-01 0.14633358E+03</pdfrwt>
<totfact> 0.25263601E+04</totfact>
</mgrwt>
</event>
<event>
 6    2  0.1674964E-002  0.1269365E+03  0.7546771E-02  0.1232074E+00
          4   -1    0    0  503    0 -0.00000000000E+00  0.00000000000E+00  0.14050812968E+03  0.14050812968E+03  0.00000000000E+00 0. -1.
         21   -1    0    0  502  503  0.00000000000E+00 -0.00000000000E+00 -0.44270343935E+02  0.44270343935E+02  0.00000000000E+00 0. -1.
         25    2    1    2    0    0 -0.40795356449E+01  0.21704707086E+02  0.55709076846E+02  0.13862315793E+03  0.12500056700E+03 0.  0.
          5    1    3    3  501    0 -0.28013015394E+02  0.31905186396E+02  0.87671102259E+02  0.97410995898E+02  0.10000000000E+00 0. -1.
         -5    1    3    3    0  501  0.23933479749E+02 -0.10200479310E+02 -0.31962025414E+02  0.41212162035E+02  0.10000000000E+00 0. -1.
          4    1    1    2  502    0  0.40795356449E+01 -0.21704707086E+02  0.40528708898E+02  0.46155315682E+02  0.00000000000E+00 0. -1.
<mgrwt>
<rscale>  1 0.12693651E+03</rscale>
<asrwt>0</asrwt>
<pdfrwt beam="1">  1       21 0.68108222E-02 0.12693651E+03</pdfrwt>
<pdfrwt beam="2">  1        4 0.21616635E-01 0.12693651E+03</pdfrwt>
<totfact> 0.12354514E+05</totfact>
</mgrwt>
</event>
<event>
 6    2  0.1674964E-002  0.1876618E+03  0.7546771E-02  0.1160587E+00
         21   -1    0    0  502  503  0.00000000000E+00  0.00000000000E+00  0.10340363469E+03  0.10340363469E+03  0.00000000000E+00 0. -1.
          2   -1    0    0  503    0 -0.00000000000E+00 -0.00000000000E+00 -0.27287072446E+04  0.27287072446E+04  0.00000000000E+00 0. -1.
         25    2    1    2    0    0 -0.91530704432E+02  0.10589793859E+03  0.14850935621E+02  0.18824850248E+03  0.12499882058E+03 0.  0.
          5    1    3    3  501    0  0.21285870677E+02 -0.11530855846E+02 -0.31629498098E+01  0.24414405144E+02  0.10000000000E+00 0.  1.
         -5    1    3    3    0  501 -0.11281657511E+03  0.11742879444E+03  0.18013885431E+02  0.16383409734E+03  0.10000000000E+00 0.  1.
          2    1    1    2  502    0  0.91530704432E+02 -0.10589793859E+03 -0.26401545455E+04  0.26438623768E+04  0.00000000000E+00 0. -1.
<mgrwt>
<rscale>  1 0.18766179E+03</rscale>
<asrwt>0</asrwt>
<pdfrwt beam="1">  1       21 0.15908253E-01 0.18766179E+03</pdfrwt>
<pdfrwt beam="2">  1        2 0.41980109E+00 0.18766179E+03</pdfrwt>
<totfact> 0.13886699E+03</totfact>
</mgrwt>
</event>
<event>
 6    2  0.1674964E-002  0.1704820E+03  0.7546771E-02  0.1177346E+00
          1   -1    0    0  503    0 -0.00000000000E+00  0.00000000000E+00  0.27856094963E+03  0.27856094963E+03  0.00000000000E+00 0. -1.
         21   -1    0    0  502  503  0.00000000000E+00 -0.00000000000E+00 -0.15262999208E+03  0.15262999208E+03  0.00000000000E+00 0.  1.
         25    2    1    2    0    0 -0.11291036944E+03  0.26289885646E+02 -0.85002814578E+02  0.19049826248E+03  0.12499679959E+03 0.  0.
          5    1    3    3  501    0 -0.12703996426E+03  0.16526323360E+02 -0.28229330807E+02  0.13118375281E+03  0.10000000000E+00 0. -1.
         -5    1    3    3    0  501  0.14129594817E+02  0.97635622857E+01 -0.56773483772E+02  0.59314509673E+02  0.10000000000E+00 0. -1.
          1    1    1    2  502    0  0.11291036944E+03 -0.26289885646E+02  0.21093377212E+03  0.24069267924E+03  0.00000000000E+00 0. -1.
<mgrwt>
<rscale>  1 0.17048199E+03</rscale>
<asrwt>0</asrwt>
<pdfrwt beam="1">  1       21 0.23481537E-01 0.17048199E+03</pdfrwt>
<pdfrwt beam="2">  1        1 0.42855531E-01 0.17048199E+03</pdfrwt>
<totfact> 0.17980507E+04</totfact>
</mgrwt>
</event>
<event>
 6    2  0.1674964E-002  0.1274106E+03  0.7546771E-02  0.1231349E+00
          4   -1    0    0  503    0 -0.00000000000E+00  0.00000000000E+00  0.87242366810E+03  0.87242366810E+03  0.00000000000E+00 0.  1.
         21   -1    0    0  502  503  0.00000000000E+00 -0.00000000000E+00 -0.22504794146E+03  0.22504794146E+03  0.00000000000E+00 0. -1.
         25    2    1    2    0    0 -0.18940266831E+02 -0.15769552896E+02 -0.20682260891E+03  0.24291780261E+03  0.12500421898E+03 0.  0.
          5    1    3    3  501    0 -0.25766256066E+02  0.32790349086E+01 -0.21817510980E+03  0.21971581772E+03  0.10000000000E+00 0.  1.
         -5    1    3    3    0  501  0.68259892357E+01 -0.19048587805E+02  0.11352500886E+02  0.23201984889E+02  0.10000000000E+00 0.  1.
          4    1    1    2  502    0  0.18940266831E+02  0.15769552896E+02  0.85419833556E+03  0.85455380695E+03  0.00000000000E+00 0.  1.
<mgrwt>
<rscale>  1 0.12741062E+03</rscale>
<asrwt>0</asrwt>
<pdfrwt beam="1">  1       21 0.34622761E-01 0.12741062E+03</pdfrwt>
<pdfrwt beam="2">  1        4 0.13421902E+00 0.12741062E+03</pdfrwt>
<totfact> 0.14378705E+02</totfact>
</mgrwt>
</event>
<event>
 6    2  0.1674964E-002  0.1424614E+03  0.7546771E-02  0.1210055E+00
          2   -1    0    0  503    0 -0.00000000000E+00  0.00000000000E+00  0.30037648228E+03  0.30037648228E+03  0.00000000000E+00 0. -1.
         21   -1    0    0  502  503  0.00000000000E+00 -0.00000000000E+00 -0.89138611854E+02  0.89138611854E+02  0.00000000000E+00 0. -1.
         25    2    1    2    0    0  0.51170371251E+02  0.45286220359E+02  0.26613281289E+03  0.30186406244E+03  0.12500395773E+03 0.  0.
          5    1    3    3  501    0  0.36778169602E+02  0.74478653824E+02  0.88899211982E+02  0.12166669029E+03  0.10000000000E+00 0. -1.
         -5    1    3    3    0  501  0.14392201649E+02 -0.29192433465E+02  0.17723360090E+03  0.18019737215E+03  0.10000000000E+00 0. -1.
          2    1    1    2  502    0 -0.51170371251E+02 -0.45286220359E+02 -0.54894942465E+02  0.87651031692E+02  0.00000000000E+00 0. -1.
<mgrwt>
<rscale>  1 0.14246136E+03</rscale>
<asrwt>0</asrwt>
<pdfrwt beam="1">  1       21 0.13713633E-01 0.14246136E+03</pdfrwt>
<pdfrwt beam="2">  1        2 0.46211766E-01 0.14246136E+03</pdfrwt>
<totfact> 0.62318005E+04</totfact>
</mgrwt>
</event>
<event>
 6    2  0.1674964E-002  0.1273780E+03  0.7546771E-02  0.1231399E+00
          2   -1    0    0  503    0 -0.00000000000E+00  0.00000000000E+00  0.75358396126E+03  0.75358396126E+03  0.00000000000E+00 0. -1.
         21   -1    0    0  502  503  0.00000000000E+00 -0.00000000000E+00 -0.88837126114E+01  0.88837126114E+01  0.00000000000E+00 0. -1.
         25    2    1    2    0    0 -0.23823048459E+02  0.57930206010E+01  0.69990845113E+03  0.71140494920E+03  0.12499626019E+03 0.  0.
          5    1    3    3  501    0  0.71824797918E+01 -0.28502909232E+02  0.38776154578E+02  0.48658031347E+02  0.10000000000E+00 0. -1.
         -5    1    3    3    0  501 -0.31005528251E+02  0.34295929833E+02  0.66113229655E+03  0.66274691785E+03  0.10000000000E+00 0. -1.
          2    1    1    2  502    0  0.23823048459E+02 -0.57930206010E+01  0.44791797519E+02  0.51062724668E+02  0.00000000000E+00 0. -1.
<mgrwt>
<rscale>  1 0.12737803E+03</rscale>
<asrwt>0</asrwt>
<pdfrwt beam="1">  1       21 0.13667256E-02 0.12737803E+03</pdfrwt>
<pdfrwt beam="2">  1        2 0.11593594E+00 0.12737803E+03</pdfrwt>
<totfact> 0.10720230E+06</totfact>
</mgrwt>
</event>
<event>
 6    2  0.1674964E-002  0.1364838E+03  0.7546771E-02  0.1218140E+00
         21   -1    0    0  502  503  0.00000000000E+00  0.00000000000E+00  0.54779246505E+01  0.54779246505E+01  0.00000000000E+00 0. -1.
          1   -1    0    0  503    0 -0.00000000000E+00 -0.00000000000E+00 -0.27817244642E+04  0.27817244642E+04  0.00000000000E+00 0. -1.
         25    2    1    2    0    0  0.54347520908E+02 -0.69960797573E+01 -0.91250712997E+03  0.92265762270E+03  0.12500091327E+03 0.  0.
          5    1    3    3  501    0  0.33647810628E+02 -0.11532462198E+02 -0.59035497574E+02  0.68922948415E+02  0.10000000000E+00 0. -1.
         -5    1    3    3    0  501  0.20699710279E+02  0.45363824408E+01 -0.85347163240E+03  0.85373467429E+03  0.10000000000E+00 0. -1.
          1    1    1    2  502    0 -0.54347520908E+02  0.69960797573E+01 -0.18637394095E+04  0.18645447661E+04  0.00000000000E+00 0. -1.
<mgrwt>
<rscale>  1 0.13648380E+03</rscale>
<asrwt>0</asrwt>
<pdfrwt beam="1">  1       21 0.84275657E-03 0.13648380E+03</pdfrwt>
<pdfrwt beam="2">  1        1 0.42795815E+00 0.13648380E+03</pdfrwt>
<totfact> 0.59152957E+04</totfact>
</mgrwt>
</event>
<event>
 6    2  0.1674964E-002  0.1280692E+03  0.7546771E-02  0.1230349E+00
         21   -1    0    0  502  503  0.00000000000E+00  0.00000000000E+00  0.12618023888E+02  0.12618023888E+02  0.00000000000E+00 0. -1.
          2   -1    0    0  503    0 -0.00000000000E+00 -0.00000000000E+00 -0.19722598156E+04  0.19722598156E+04  0.00000000000E+00 0. -1.
         25    2    1    2    0    0  0.20098393273E+01  0.28112883485E+02 -0.31560946263E+03  0.34060393507E+03  0.12492931607E+03 0.  0.
          5    1    3    3  501    0  0.47949973778E+02 -0.22640309557E+01 -0.25170408244E+03  0.25624066995E+03  0.10000000000E+00 0.  1.
         -5    1    3    3    0  501 -0.45940134451E+02  0.30376914441E+02 -0.63905380190E+02  0.84363265119E+02  0.10000000000E+00 0.  1.
          2    1    1    2  502    0 -0.20098393273E+01 -0.28112883485E+02 -0.16440323290E+04  0.16442739044E+04  0.00000000000E+00 0. -1.
<mgrwt>
<rscale>  1 0.12806915E+03</rscale>
<asrwt>0</asrwt>
<pdfrwt beam="1">  1       21 0.19412344E-02 0.12806915E+03</pdfrwt>
<pdfrwt beam="2">  1        2 0.30342459E+00 0.12806915E+03</pdfrwt>
<totfact> 0.12952222E+05</totfact>
</mgrwt>
</event>
<event>
 6    2  0.1674964E-002  0.1269922E+03  0.7546771E-02  0.1231988E+00
          2   -1    0    0  503    0 -0.00000000000E+00  0.00000000000E+00  0.13155936308E+04  0.13155936308E+04  0.00000000000E+00 0.  1.
         21   -1    0    0  502  503  0.00000000000E+00 -0.00000000000E+00 -0.45390755147E+01  0.45390755147E+01  0.00000000000E+00 0.  1.
         25    2    1    2    0    0 -0.20669147186E+02  0.76561431858E+01  0.95645749726E+03  0.96485126333E+03  0.12506472763E+03 0.  0.
          5    1    3    3  501    0  0.39597640047E+02 -0.16245958311E+02  0.66003885434E+03  0.66142513068E+03  0.10000000000E+00 0. -1.
         -5    1    3    3    0  501 -0.60266787233E+02  0.23902101497E+02  0.29641864292E+03  0.30342613264E+03  0.10000000000E+00 0. -1.
          2    1    1    2  502    0  0.20669147186E+02 -0.76561431858E+01  0.35459705802E+03  0.35528144298E+03  0.00000000000E+00 0.  1.
<mgrwt>
<rscale>  1 0.12699219E+03</rscale>
<asrwt>0</asrwt>
<pdfrwt beam="1">  1       21 0.69832036E-03 0.12699219E+03</pdfrwt>
<pdfrwt beam="2">  1        2 0.20239872E+00 0.12699219E+03</pdfrwt>
<totfact> 0.14261431E+06</totfact>
</mgrwt>
</event>
<event>
 6    2  0.1674964E-002  0.1264143E+03  0.7546771E-02  0.1232875E+00
          4   -1    0    0  503    0 -0.00000000000E+00  0.00000000000E+00  0.16593499375E+03  0.16593499375E+03  0.00000000000E+00 0. -1.
         21   -1    0    0  502  503  0.00000000000E+00 -0.00000000000E+00 -0.32571122441E+02  0.32571122441E+02  0.00000000000E+00 0. -1.
         25    2    1    2    0    0 -0.13287161782E+02 -0.12801522445E+02  0.10339475807E+03  0.16331271634E+03  0.12506054404E+03 0.  0.
          5    1    3    3  501    0 -0.15934824316E+02 -0.57862382055E+02  0.11751746507E+02  0.61156254210E+02  0.10000000000E+00 0. -1.
         -5    1    3    3    0  501  0.26476625338E+01  0.45060859610E+02  0.91643011568E+02  0.10215646213E+03  0.10000000000E+00 0. -1.
          4    1    1    2  502    0  0.13287161782E+02  0.12801522445E+02  0.29969113238E+02  0.35193399856E+02  0.00000000000E+00 0. -1.
<mgrwt>
<rscale>  1 0.12641427E+03</rscale>
<asrwt>0</asrwt>
<pdfrwt beam="1">  1       21 0.50109420E-02 0.12641427E+03</pdfrwt>
<pdfrwt beam="2">  1        4 0.25528460E-01 0.12641427E+03</pdfrwt>
<totfact> 0.15309658E+05</totfact>
</mgrwt>
</event>
<event>
 6    2  0.1674964E-002  0.2085200E+03  0.7546771E-02  0.1142743E+00
         21   -1    0    0  502  503  0.00000000000E+00  0.00000000000E+00  0.88111852736E+02  0.88111852736E+02  0.00000000000E+00 0. -1.
          2   -1    0    0  503    0 -0.00000000000E+00 -0.00000000000E+00 -0.71257263107E+03  0.71257263107E+03  0.00000000000E+00 0.  1.
         25    2    1    2    0    0  0.15387427137E+03  0.64646906988E+02 -0.67376153753E+02  0.21913500791E+03  0.12499636645E+03 0.  0.
          5    1    3    3  501    0  0.91544086845E+02  0.31862624927E+02 -0.10195440040E+03  0.14067784639E+03  0.10000000000E+00 0. -1.
         -5    1    3    3    0  501  0.62330184520E+02  0.32784282061E+02  0.34578246647E+02  0.78457161520E+02  0.10000000000E+00 0. -1.
          2    1    1    2  502    0 -0.15387427137E+03 -0.64646906988E+02 -0.55708462458E+03  0.58154947590E+03  0.00000000000E+00 0.  1.
<mgrwt>
<rscale>  1 0.20852004E+03</rscale>
<asrwt>0</asrwt>
<pdfrwt beam="1">  1       21 0.13555670E-01 0.20852004E+03</pdfrwt>
<pdfrwt beam="2">  1        2 0.10962656E+00 0.20852004E+03</pdfrwt>
<totfact> 0.24336844E+04</totfact>
</mgrwt>
</event>
<event>
 6    2  0.1674964E-002  0.1323657E+03  0.7546771E-02  0.1223987E+00
          4   -1    0    0  503    0 -0.00000000000E+00  0.00000000000E+00  0.30749303791E+03  0.30749303791E+03  0.00000000000E+00 0. -1.
         21   -1    0    0  502  503  0.00000000000E+00 -0.00000000000E+00 -0.61325267636E+02  0.61325267636E+02  0.00000000000E+00 0.  1.
         25    2    1    2    0    0  0.37139495594E+02  0.22737427046E+02  0.14573601365E+02  0.13316561238E+03  0.12499743095E+03 0.  0.
          5    1    3    3  501    0  0.26536467483E+02  0.27190256241E+02 -0.52671302166E+02  0.64944362440E+02  0.10000000000E+00 0.  1.
         -5    1    3    3    0  501  0.10603028111E+02 -0.44528291959E+01  0.67244903531E+02  0.68221249944E+02  0.10000000000E+00 0.  1.
          4    1    1    2  502    0 -0.37139495594E+02 -0.22737427046E+02  0.23159416891E+03  0.23565269316E+03  0.00000000000E+00 0. -1.
<mgrwt>
<rscale>  1 0.13236575E+03</rscale>
<asrwt>0</asrwt>
<pdfrwt beam="1">  1       21 0.94346567E-02 0.13236575E+03</pdfrwt>
<pdfrwt beam="2">  1        4 0.47306620E-01 0.13236575E+03</pdfrwt>
<totfact> 0.15890094E+04</totfact>
</mgrwt>
</event>
<event>
 6    2  0.1674964E-002  0.1455026E+03  0.7546771E-02  0.1206111E+00
          2   -1    0    0  503    0 -0.00000000000E+00  0.00000000000E+00  0.23999371405E+02  0.23999371405E+02  0.00000000000E+00 0. -1.
         21   -1    0    0  502  503  0.00000000000E+00 -0.00000000000E+00 -0.59677538923E+03  0.59677538923E+03  0.00000000000E+00 0. -1.
         25    2    1    2    0    0  0.73930989999E+02  0.87224966028E+01 -0.48142346818E+03  0.50293095912E+03  0.12501648170E+03 0.  0.
          5    1    3    3  501    0  0.78399436746E+02 -0.36902253141E+02 -0.40194642406E+03  0.41118023516E+03  0.10000000000E+00 0.  1.
         -5    1    3    3    0  501 -0.44684467478E+01  0.45624749744E+02 -0.79477044118E+02  0.91750723960E+02  0.10000000000E+00 0.  1.
          2    1    1    2  502    0 -0.73930989999E+02 -0.87224966028E+01 -0.91352549644E+02  0.11784380152E+03  0.00000000000E+00 0. -1.
<mgrwt>
<rscale>  1 0.14550256E+03</rscale>
<asrwt>0</asrwt>
<pdfrwt beam="1">  1       21 0.91811592E-01 0.14550256E+03</pdfrwt>
<pdfrwt beam="2">  1        2 0.36922112E-02 0.14550256E+03</pdfrwt>
<totfact> 0.28329985E+04</totfact>
</mgrwt>
</event>
<event>
 6    2  0.1674964E-002  0.1277867E+03  0.7546771E-02  0.1230777E+00
         21   -1    0    0  502  503  0.00000000000E+00  0.00000000000E+00  0.54210472500E+02  0.54210472500E+02  0.00000000000E+00 0.  1.
          2   -1    0    0  503    0 -0.00000000000E+00 -0.00000000000E+00 -0.76631295083E+03  0.76631295083E+03  0.00000000000E+00 0.  1.
         25    2    1    2    0    0 -0.24591557759E+02 -0.99710914580E+01 -0.21705892422E+02  0.12961705253E+03  0.12500106865E+03 0.  0.
          5    1    3    3  501    0 -0.17469984592E+02 -0.54047911994E+02  0.27555748499E+02  0.63132451464E+02  0.10000000000E+00 0. -1.
         -5    1    3    3    0  501 -0.71215731666E+01  0.44076820536E+02 -0.49261640921E+02  0.66484601068E+02  0.10000000000E+00 0. -1.
          2    1    1    2  502    0  0.24591557759E+02  0.99710914580E+01 -0.69039658591E+03  0.69090637080E+03  0.00000000000E+00 0.  1.
<mgrwt>
<rscale>  1 0.12778668E+03</rscale>
<asrwt>0</asrwt>
<pdfrwt beam="1">  1       21 0.83400731E-02 0.12778668E+03</pdfrwt>
<pdfrwt beam="2">  1        2 0.11789429E+00 0.12778668E+03</pdfrwt>
<totfact> 0.52951343E+04</totfact>
</mgrwt>
</event>
<event>
 6    2  0.1674964E-002  0.1291839E+03  0.7546771E-02  0.1228672E+00
         21   -1    0    0  502  503  0.00000000000E+00  0.00000000000E+00  0.36285558205E+03  0.36285558205E+03  0.00000000000E+00 0.  1.
          2   -1    0    0  503    0 -0.00000000000E+00 -0.00000000000E+00 -0.18032709881E+02  0.18032709881E+02  0.00000000000E+00 0.  1.
         25    2    1    2    0    0  0.52787932326E+01 -0.32150149334E+02  0.27317491521E+03  0.30218043021E+03  0.12500792112E+03 0.  0.
          5    1    3    3  501    0 -0.50347623512E+02 -0.26577490936E+02  0.63973135700E+02  0.85637715459E+02  0.10000000000E+00 0. -1.
         -5    1    3    3    0  501  0.55626416745E+02 -0.55726583981E+01  0.20920177951E+03  0.21654271475E+03  0.10000000000E+00 0. -1.
          2    1    1    2  502    0 -0.52787932326E+01  0.32150149334E+02  0.71647956960E+02  0.78707861721E+02  0.00000000000E+00 0.  1.
<mgrwt>
<rscale>  1 0.12918389E+03</rscale>
<asrwt>0</asrwt>
<pdfrwt beam="1">  1       21 0.55823930E-01 0.12918389E+03</pdfrwt>
<pdfrwt beam="2">  1        2 0.27742633E-02 0.12918389E+03</pdfrwt>
<totfact> 0.12353017E+05</totfact>
</mgrwt>
</event>
<event>
 6    2  0.1674964E-002  0.1281510E+03  0.7546771E-02  0.1230225E+00
          2   -1    0    0  503    0 -0.00000000000E+00  0.00000000000E+00  0.21197132204E+04  0.21197132204E+04  0.00000000000E+00 0. -1.
         21   -1    0    0  502  503  0.00000000000E+00 -0.00000000000E+00 -0.88817150943E+01  0.88817150943E+01  0.00000000000E+00 0. -1.
         25    2    1    2    0    0  0.19384149396E+02  0.20349666843E+02  0.45980797673E+03  0.47733222287E+03  0.12503128144E+03 0.  0.
          5    1    3    3  501    0 -0.45144097473E+02  0.33005245041E+02  0.13849156122E+03  0.14935614573E+03  0.10000000000E+00 0. -1.
         -5    1    3    3    0  501  0.64528246869E+02 -0.12655578198E+02  0.32131641551E+03  0.32797607714E+03  0.10000000000E+00 0. -1.
          2    1    1    2  502    0 -0.19384149396E+02 -0.20349666843E+02  0.16510235285E+04  0.16512627126E+04  0.00000000000E+00 0. -1.
<mgrwt>
<rscale>  1 0.12815099E+03</rscale>
<asrwt>0</asrwt>
<pdfrwt beam="1">  1       21 0.13664194E-02 0.12815099E+03</pdfrwt>
<pdfrwt beam="2">  1        2 0.32610932E+00 0.12815099E+03</pdfrwt>
<totfact> 0.19102652E+05</totfact>
</mgrwt>
</event>
<event>
 6    2  0.1674964E-002  0.1529830E+03  0.7546771E-02  0.1196855E+00
         21   -1    0    0  502  503  0.00000000000E+00  0.00000000000E+00  0.56313336156E+03  0.56313336156E+03  0.00000000000E+00 0. -1.
          1   -1    0    0  503    0 -0.00000000000E+00 -0.00000000000E+00 -0.76044041314E+02  0.76044041314E+02  0.00000000000E+00 0. -1.
         25    2    1    2    0    0  0.15849740552E+02 -0.86756943010E+02  0.52227885280E+03  0.54422328429E+03  0.12500320652E+03 0.  0.
          5    1    3    3  501    0  0.25569435295E+02 -0.52003773563E+02  0.49650987765E+03  0.49988024275E+03  0.10000000000E+00 0.  1.
         -5    1    3    3    0  501 -0.97196947429E+01 -0.34753169446E+02  0.25768975149E+02  0.44343041536E+02  0.10000000000E+00 0.  1.
          1    1    1    2  502    0 -0.15849740552E+02  0.86756943010E+02 -0.35189532552E+02  0.94954118590E+02  0.00000000000E+00 0. -1.
<mgrwt>
<rscale>  1 0.15298295E+03</rscale>
<asrwt>0</asrwt>
<pdfrwt beam="1">  1       21 0.86635899E-01 0.15298295E+03</pdfrwt>
<pdfrwt beam="2">  1        1 0.11699084E-01 0.15298295E+03</pdfrwt>
<totfact> 0.64098064E+03</totfact>
</mgrwt>
</event>
<event>
 6    2  0.1674964E-002  0.1282772E+03  0.7546771E-02  0.1230035E+00
         21   -1    0    0  502  503  0.00000000000E+00  0.00000000000E+00  0.21936871321E+02  0.21936871321E+02  0.00000000000E+00 0. -1.
          2   -1    0    0  503    0 -0.00000000000E+00 -0.00000000000E+00 -0.28312143329E+03  0.28312143329E+03  0.00000000000E+00 0. -1.
         25    2    1    2    0    0 -0.10122061746E+02 -0.26945558601E+02 -0.22266331594E+03  0.25697082539E+03  0.12500613414E+03 0.  0.
          5    1    3    3  501    0 -0.29857654622E+02 -0.71980926964E+02 -0.15300191844E+03  0.17170419456E+03  0.10000000000E+00 0. -1.
         -5    1    3    3    0  501  0.19735592876E+02  0.45035368363E+02 -0.69661397505E+02  0.85266630824E+02  0.10000000000E+00 0. -1.
          2    1    1    2  502    0  0.10122061746E+02  0.26945558601E+02 -0.38521246031E+02  0.48087479223E+02  0.00000000000E+00 0. -1.
<mgrwt>
<rscale>  1 0.12827725E+03</rscale>
<asrwt>0</asrwt>
<pdfrwt beam="1">  1       21 0.33749035E-02 0.12827725E+03</pdfrwt>
<pdfrwt beam="2">  1        2 0.43557141E-01 0.12827725E+03</pdfrwt>
<totfact> 0.72932072E+05</totfact>
</mgrwt>
</event>
<event>
 6    2  0.1674964E-002  0.1426366E+03  0.7546771E-02  0.1209825E+00
         21   -1    0    0  502  503  0.00000000000E+00  0.00000000000E+00  0.42048632809E+02  0.42048632809E+02  0.00000000000E+00 0.  1.
          1   -1    0    0  503    0 -0.00000000000E+00 -0.00000000000E+00 -0.59313548753E+03  0.59313548753E+03  0.00000000000E+00 0.  1.
         25    2    1    2    0    0 -0.14133940871E+01 -0.68691797815E+02 -0.89235614806E+02  0.16825036853E+03  0.12499852315E+03 0.  0.
          5    1    3    3  501    0  0.42398581491E+02 -0.17882571312E+02  0.11301901340E+02  0.47383214781E+02  0.10000000000E+00 0. -1.
         -5    1    3    3    0  501 -0.43811975578E+02 -0.50809226503E+02 -0.10053751615E+03  0.12086715375E+03  0.10000000000E+00 0. -1.
          1    1    1    2  502    0  0.14133940871E+01  0.68691797815E+02 -0.46185123992E+03  0.46693375181E+03  0.00000000000E+00 0.  1.
<mgrwt>
<rscale>  1 0.14263657E+03</rscale>
<asrwt>0</asrwt>
<pdfrwt beam="1">  1       21 0.64690208E-02 0.14263657E+03</pdfrwt>
<pdfrwt beam="2">  1        1 0.91251609E-01 0.14263657E+03</pdfrwt>
<totfact> 0.68590924E+04</totfact>
</mgrwt>
</event>
<event>
 6    2  0.1674964E-002  0.1676788E+03  0.7546771E-02  0.1180290E+00
          2   -1    0    0  503    0 -0.00000000000E+00  0.00000000000E+00  0.80903867432E+03  0.80903867432E+03  0.00000000000E+00 0.  1.
         21   -1    0    0  502  503  0.00000000000E+00 -0.00000000000E+00 -0.70986513911E+02  0.70986513911E+02  0.00000000000E+00 0. -1.
         25    2    1    2    0    0 -0.39315810865E+02 -0.10462018135E+03  0.39078188873E+02  0.17217228811E+03  0.12500030647E+03 0.  0.
          5    1    3    3  501    0 -0.18806995352E+02 -0.69368332181E+02  0.84629768442E+02  0.11103096996E+03  0.10000000000E+00 0. -1.
         -5    1    3    3    0  501 -0.20508815513E+02 -0.35251849169E+02 -0.45551579568E+02  0.61141318147E+02  0.10000000000E+00 0. -1.
          2    1    1    2  502    0  0.39315810865E+02  0.10462018135E+03  0.69897397154E+03  0.70785290013E+03  0.00000000000E+00 0.  1.
<mgrwt>
<rscale>  1 0.16767884E+03</rscale>
<asrwt>0</asrwt>
<pdfrwt beam="1">  1       21 0.10921003E-01 0.16767884E+03</pdfrwt>
<pdfrwt beam="2">  1        2 0.12446748E+00 0.16767884E+03</pdfrwt>
<totfact> 0.30814753E+04</totfact>
</mgrwt>
</event>
<event>
 6    2  0.1674964E-002  0.1917930E+03  0.7546771E-02  0.1156854E+00
          2   -1    0    0  503    0 -0.00000000000E+00  0.00000000000E+00  0.16949052205E+04  0.16949052205E+04  0.00000000000E+00 0.  1.
         21   -1    0    0  502  503  0.00000000000E+00 -0.00000000000E+00 -0.27883275780E+02  0.27883275780E+02  0.00000000000E+00 0.  1.
         25    2    1    2    0    0 -0.70444697618E+02 -0.12727018577E+03  0.36185902695E+03  0.40954427013E+03  0.12499759277E+03 0.  0.
          5    1    3    3  501    0 -0.54768435258E+01 -0.89837787382E+02  0.89025758113E+02  0.12659549543E+03  0.10000000000E+00 0.  1.
         -5    1    3    3    0  501 -0.64967854092E+02 -0.37432398386E+02  0.27283326884E+03  0.28294877469E+03  0.10000000000E+00 0.  1.
          2    1    1    2  502    0  0.70444697618E+02  0.12727018577E+03  0.13051629177E+04  0.13132442261E+04  0.00000000000E+00 0.  1.
<mgrwt>
<rscale>  1 0.19179300E+03</rscale>
<asrwt>0</asrwt>
<pdfrwt beam="1">  1       21 0.42897361E-02 0.19179300E+03</pdfrwt>
<pdfrwt beam="2">  1        2 0.26075457E+00 0.19179300E+03</pdfrwt>
<totfact> 0.48347055E+04</totfact>
</mgrwt>
</event>
<event>
 6    2  0.1674964E-002  0.1369869E+03  0.7546771E-02  0.1217442E+00
         21   -1    0    0  502  503  0.00000000000E+00  0.00000000000E+00  0.13284977774E+03  0.13284977774E+03  0.00000000000E+00 0.  1.
          2   -1    0    0  503    0 -0.00000000000E+00 -0.00000000000E+00 -0.70115519443E+02  0.70115519443E+02  0.00000000000E+00 0.  1.
         25    2    1    2    0    0  0.39535666337E+02  0.39712449558E+02  0.45021545491E+02  0.14419551109E+03  0.12500103318E+03 0.  0.
          5    1    3    3  501    0 -0.42782719758E+02  0.33223880340E+02  0.22066631487E+02  0.58490456999E+02  0.10000000000E+00 0.  1.
         -5    1    3    3    0  501  0.82318386094E+02  0.64885692175E+01  0.22954914004E+02  0.85705054090E+02  0.10000000000E+00 0.  1.
          2    1    1    2  502    0 -0.39535666337E+02 -0.39712449558E+02  0.17712712806E+02  0.58769786094E+02  0.00000000000E+00 0.  1.
<mgrwt>
<rscale>  1 0.13698688E+03</rscale>
<asrwt>0</asrwt>
<pdfrwt beam="1">  1       21 0.20438427E-01 0.13698688E+03</pdfrwt>
<pdfrwt beam="2">  1        2 0.10787003E-01 0.13698688E+03</pdfrwt>
<totfact> 0.15435357E+05</totfact>
</mgrwt>
</event>
<event>
 6    2  0.1674964E-002  0.1419652E+03  0.7546771E-02  0.1210709E+00
         21   -1    0    0  502  503  0.00000000000E+00  0.00000000000E+00  0.49504603243E+01  0.49504603243E+01  0.00000000000E+00 0. -1.
          2   -1    0    0  503    0 -0.00000000000E+00 -0.00000000000E+00 -0.35729142111E+04  0.35729142111E+04  0.00000000000E+00 0.  1.
         25    2    1    2    0    0  0.66597641357E+02  0.98062479445E+01 -0.11181485985E+04  0.11271248466E+04  0.12499089292E+03 0.  0.
          5    1    3    3  501    0 -0.33287676166E+02  0.23638267527E+02 -0.35640875043E+03  0.35873952174E+03  0.10000000000E+00 0. -1.
         -5    1    3    3    0  501  0.99885317522E+02 -0.13832019583E+02 -0.76173984802E+03  0.76838532488E+03  0.10000000000E+00 0. -1.
          2    1    1    2  502    0 -0.66597641357E+02 -0.98062479445E+01 -0.24498151523E+04  0.24507398248E+04  0.00000000000E+00 0.  1.
<mgrwt>
<rscale>  1 0.14196525E+03</rscale>
<asrwt>0</asrwt>
<pdfrwt beam="1">  1       21 0.76160548E-03 0.14196525E+03</pdfrwt>
<pdfrwt beam="2">  1        2 0.54968186E+00 0.14196525E+03</pdfrwt>
<totfact> 0.71047622E+04</totfact>
</mgrwt>
</event>
<event>
 6    2  0.1674964E-002  0.2024818E+03  0.7546771E-02  0.1147662E+00
         21   -1    0    0  502  503  0.00000000000E+00  0.00000000000E+00  0.28459294828E+03  0.28459294828E+03  0.00000000000E+00 0. -1.
          2   -1    0    0  503    0 -0.00000000000E+00 -0.00000000000E+00 -0.75393238655E+03  0.75393238655E+03  0.00000000000E+00 0. -1.
         25    2    1    2    0    0 -0.15603689261E+03 -0.32036535906E+02  0.23857147931E+03  0.31291406238E+03  0.12500003284E+03 0.  0.
          5    1    3    3  501    0 -0.41449045521E+02 -0.69179671692E+02  0.78126799348E+02  0.11228382397E+03  0.10000000000E+00 0.  1.
         -5    1    3    3    0  501 -0.11458784709E+03  0.37143135785E+02  0.16044467996E+03  0.20063023841E+03  0.10000000000E+00 0.  1.
          2    1    1    2  502    0  0.15603689261E+03  0.32036535906E+02 -0.70791091758E+03  0.72561127245E+03  0.00000000000E+00 0. -1.
<mgrwt>
<rscale>  1 0.20248175E+03</rscale>
<asrwt>0</asrwt>
<pdfrwt beam="1">  1       21 0.43783531E-01 0.20248175E+03</pdfrwt>
<pdfrwt beam="2">  1        2 0.11598960E+00 0.20248175E+03</pdfrwt>
<totfact> 0.24112590E+03</totfact>
</mgrwt>
</event>
<event>
 6    2  0.1674964E-002  0.1328254E+03  0.7546771E-02  0.1223323E+00
         21   -1    0    0  502  503  0.00000000000E+00  0.00000000000E+00  0.34124263155E+03  0.34124263155E+03  0.00000000000E+00 0.  1.
          3   -1    0    0  503    0 -0.00000000000E+00 -0.00000000000E+00 -0.19537953625E+03  0.19537953625E+03  0.00000000000E+00 0.  1.
         25    2    1    2    0    0 -0.44832861518E+02  0.30951232577E+01  0.32544282572E+03  0.35150478657E+03  0.12499206739E+03 0.  0.
          5    1    3    3  501    0 -0.70204097165E+02  0.65404042821E+01  0.31669256369E+03  0.32444657811E+03  0.10000000000E+00 0. -1.
         -5    1    3    3    0  501  0.25371235647E+02 -0.34452810245E+01  0.87502620235E+01  0.27058208460E+02  0.10000000000E+00 0. -1.
          3    1    1    2  502    0  0.44832861518E+02 -0.30951232577E+01 -0.17957973041E+03  0.18511738124E+03  0.00000000000E+00 0.  1.
<mgrwt>
<rscale>  1 0.13282538E+03</rscale>
<asrwt>0</asrwt>
<pdfrwt beam="1">  1       21 0.52498867E-01 0.13282538E+03</pdfrwt>
<pdfrwt beam="2">  1        3 0.30058390E-01 0.13282538E+03</pdfrwt>
<totfact> 0.18139480E+03</totfact>
</mgrwt>
</event>
<event>
 6    2  0.1674964E-002  0.1306511E+03  0.7546771E-02  0.1226493E+00
          2   -1    0    0  503    0 -0.00000000000E+00  0.00000000000E+00  0.19737991660E+04  0.19737991660E+04  0.00000000000E+00 0.  1.
         21   -1    0    0  502  503  0.00000000000E+00 -0.00000000000E+00 -0.11395400855E+02  0.11395400855E+02  0.00000000000E+00 0. -1.
         25    2    1    2    0    0 -0.37484018092E+02  0.63438971913E+01  0.37093004535E+03  0.39326683688E+03  0.12499763921E+03 0.  0.
          5    1    3    3  501    0  0.14211387718E+02 -0.74939521019E+01 -0.22905839579E+01  0.16228975132E+02  0.10000000000E+00 0. -1.
         -5    1    3    3    0  501 -0.51695405810E+02  0.13837849293E+02  0.37322062931E+03  0.37703786175E+03  0.10000000000E+00 0. -1.
          2    1    1    2  502    0  0.37484018092E+02 -0.63438971913E+01  0.15914737198E+04  0.15919277300E+04  0.00000000000E+00 0.  1.
<mgrwt>
<rscale>  1 0.13065109E+03</rscale>
<asrwt>0</asrwt>
<pdfrwt beam="1">  1       21 0.17531402E-02 0.13065109E+03</pdfrwt>
<pdfrwt beam="2">  1        2 0.30366114E+00 0.13065109E+03</pdfrwt>
<totfact> 0.15230069E+05</totfact>
</mgrwt>
</event>
<event>
 6    2  0.1674964E-002  0.1518418E+03  0.7546771E-02  0.1198228E+00
         21   -1    0    0  502  503  0.00000000000E+00  0.00000000000E+00  0.80793891384E+02  0.80793891384E+02  0.00000000000E+00 0. -1.
          1   -1    0    0  503    0 -0.00000000000E+00 -0.00000000000E+00 -0.45338439521E+03  0.45338439521E+03  0.00000000000E+00 0. -1.
         25    2    1    2    0    0 -0.81016967625E+02  0.29501961557E+02 -0.10281868201E+00  0.15184179819E+03  0.12498722466E+03 0.  0.
          5    1    3    3  501    0 -0.72531588027E+02  0.45125811154E+02  0.49790615198E+02  0.98875100282E+02  0.10000000000E+00 0.  1.
         -5    1    3    3    0  501 -0.84853795974E+01 -0.15623849597E+02 -0.49893433880E+02  0.52966697910E+02  0.10000000000E+00 0.  1.
          1    1    1    2  502    0  0.81016967625E+02 -0.29501961557E+02 -0.37248768514E+03  0.38233648840E+03  0.00000000000E+00 0. -1.
<mgrwt>
<rscale>  1 0.15184176E+03</rscale>
<asrwt>0</asrwt>
<pdfrwt beam="1">  1       21 0.12429830E-01 0.15184176E+03</pdfrwt>
<pdfrwt beam="2">  1        1 0.69751445E-01 0.15184176E+03</pdfrwt>
<totfact> 0.31326640E+04</totfact>
</mgrwt>
</event>
<event>
 6    2  0.1674964E-002  0.1678995E+03  0.7546771E-02  0.1180056E+00
         21   -1    0    0  502  503  0.00000000000E+00  0.00000000000E+00  0.11783589251E+02  0.11783589251E+02  0.00000000000E+00 0. -1.
          2   -1    0    0  503    0 -0.00000000000E+00 -0.00000000000E+00 -0.34669152078E+04  0.34669152078E+04  0.00000000000E+00 0.  1.
         25    2    1    2    0    0  0.38168484372E+02  0.10538051952E+03 -0.65018351280E+03  0.67151234742E+03  0.12501338055E+03 0.  0.
          5    1    3    3  501    0  0.83149563146E+02  0.52044174029E+02 -0.37328188972E+03  0.38595572944E+03  0.10000000000E+00 0. -1.
         -5    1    3    3    0  501 -0.44981078774E+02  0.53336345490E+02 -0.27690162309E+03  0.28555661797E+03  0.10000000000E+00 0. -1.
          2    1    1    2  502    0 -0.38168484372E+02 -0.10538051952E+03 -0.28049481057E+04  0.28071864496E+04  0.00000000000E+00 0.  1.
<mgrwt>
<rscale>  1 0.16789947E+03</rscale>
<asrwt>0</asrwt>
<pdfrwt beam="1">  1       21 0.18128578E-02 0.16789947E+03</pdfrwt>
<pdfrwt beam="2">  1        2 0.53337219E+00 0.16789947E+03</pdfrwt>
<totfact> 0.20719753E+04</totfact>
</mgrwt>
</event>
<event>
 6    2  0.1674964E-002  0.1261320E+03  0.7546771E-02  0.1233311E+00
         21   -1    0    0  502  503  0.00000000000E+00  0.00000000000E+00  0.15249363649E+02  0.15249363649E+02  0.00000000000E+00 0.  1.
          2   -1    0    0  503    0 -0.00000000000E+00 -0.00000000000E+00 -0.85397147665E+03  0.85397147665E+03  0.00000000000E+00 0.  1.
         25    2    1    2    0    0  0.30352534081E+01 -0.16618364042E+02 -0.24777124940E+03  0.27802856533E+03  0.12499563323E+03 0.  0.
          5    1    3    3  501    0  0.62506111704E+02 -0.22259478669E+02 -0.12676507302E+03  0.14308002002E+03  0.10000000000E+00 0. -1.
         -5    1    3    3    0  501 -0.59470858296E+02  0.56411146270E+01 -0.12100617638E+03  0.13494854531E+03  0.10000000000E+00 0. -1.
          2    1    1    2  502    0 -0.30352534081E+01  0.16618364042E+02 -0.59095086361E+03  0.59119227497E+03  0.00000000000E+00 0.  1.
<mgrwt>
<rscale>  1 0.12613204E+03</rscale>
<asrwt>0</asrwt>
<pdfrwt beam="1">  1       21 0.23460558E-02 0.12613204E+03</pdfrwt>
<pdfrwt beam="2">  1        2 0.13138024E+00 0.12613204E+03</pdfrwt>
<totfact> 0.38502631E+05</totfact>
</mgrwt>
</event>
<event>
 6    2  0.1674964E-002  0.1467137E+03  0.7546771E-02  0.1204570E+00
          1   -1    0    0  503    0 -0.00000000000E+00  0.00000000000E+00  0.85206200787E+03  0.85206200787E+03  0.00000000000E+00 0.  1.
         21   -1    0    0  502  503  0.00000000000E+00 -0.00000000000E+00 -0.33827362620E+03  0.33827362620E+03  0.00000000000E+00 0.  1.
         25    2    1    2    0    0  0.12003523262E+02  0.75868533187E+02 -0.32051808056E+03  0.35250069101E+03  0.12499911319E+03 0.  0.
          5    1    3    3  501    0 -0.79375137770E+01  0.27484448164E+02 -0.29102909061E+03  0.29243177084E+03  0.10000000000E+00 0. -1.
         -5    1    3    3    0  501  0.19941037039E+02  0.48384085023E+02 -0.29488989946E+02  0.60068920164E+02  0.10000000000E+00 0. -1.
          1    1    1    2  502    0 -0.12003523262E+02 -0.75868533187E+02  0.83430646223E+03  0.83783494307E+03  0.00000000000E+00 0.  1.
<mgrwt>
<rscale>  1 0.14671366E+03</rscale>
<asrwt>0</asrwt>
<pdfrwt beam="1">  1       21 0.52042097E-01 0.14671366E+03</pdfrwt>
<pdfrwt beam="2">  1        1 0.13108646E+00 0.14671366E+03</pdfrwt>
<totfact> 0.84350770E+02</totfact>
</mgrwt>
</event>
<event>
 6    2  0.1674964E-002  0.1365692E+03  0.7546771E-02  0.1218021E+00
          2   -1    0    0  503    0 -0.00000000000E+00  0.00000000000E+00  0.18506898475E+03  0.18506898475E+03  0.00000000000E+00 0.  1.
         21   -1    0    0  502  503  0.00000000000E+00 -0.00000000000E+00 -0.10069051793E+03  0.10069051793E+03  0.00000000000E+00 0.  1.
         25    2    1    2    0    0  0.52192716636E+02 -0.17399974798E+02 -0.46113092346E+02  0.14414422876E+03  0.12499721039E+03 0.  0.
          5    1    3    3  501    0  0.50066058666E+02 -0.38371129046E+02 -0.81436770109E+02  0.10300927774E+03  0.10000000000E+00 0.  1.
         -5    1    3    3    0  501  0.21266579693E+01  0.20971154248E+02  0.35323677763E+02  0.41134951019E+02  0.10000000000E+00 0.  1.
          2    1    1    2  502    0 -0.52192716636E+02  0.17399974798E+02  0.13049155917E+03  0.14161527392E+03  0.00000000000E+00 0.  1.
<mgrwt>
<rscale>  1 0.13656918E+03</rscale>
<asrwt>0</asrwt>
<pdfrwt beam="1">  1       21 0.15490849E-01 0.13656918E+03</pdfrwt>
<pdfrwt beam="2">  1        2 0.28472151E-01 0.13656918E+03</pdfrwt>
<totfact> 0.83966844E+04</totfact>
</mgrwt>
</event>
<event>
 6    2  0.1674964E-002  0.1259258E+03  0.7546771E-02  0.1233629E+00
         21   -1    0    0  502  503  0.00000000000E+00  0.00000000000E+00  0.82160487277E+03  0.82160487277E+03  0.00000000000E+00 0. -1.
          1   -1    0    0  503    0 -0.00000000000E+00 -0.00000000000E+00 -0.30549822341E+02  0.30549822341E+02  0.00000000000E+00 0.  1.
         25    2    1    2    0    0  0.15223111604E+02 -0.62543980213E+00  0.81450936871E+03  0.82418615299E+03  0.12500067504E+03 0.  0.
          5    1    3    3  501    0  0.40112473404E+02 -0.48188594917E+02  0.59118238096E+03  0.59449791316E+03  0.10000000000E+00 0. -1.
         -5    1    3    3    0  501 -0.24889361800E+02  0.47563155115E+02  0.22332698776E+03  0.22968823983E+03  0.10000000000E+00 0. -1.
          1    1    1    2  502    0 -0.15223111604E+02  0.62543980213E+00 -0.23454318286E+02  0.27968542116E+02  0.00000000000E+00 0.  1.
<mgrwt>
<rscale>  1 0.12592578E+03</rscale>
<asrwt>0</asrwt>
<pdfrwt beam="1">  1       21 0.12640073E+00 0.12592578E+03</pdfrwt>
<pdfrwt beam="2">  1        1 0.46999733E-02 0.12592578E+03</pdfrwt>
<totfact> 0.89831184E+03</totfact>
</mgrwt>
</event>
<event>
 6    2  0.1674964E-002  0.1282497E+03  0.7546771E-02  0.1230076E+00
         21   -1    0    0  502  503  0.00000000000E+00  0.00000000000E+00  0.97677152412E+01  0.97677152412E+01  0.00000000000E+00 0.  1.
          1   -1    0    0  503    0 -0.00000000000E+00 -0.00000000000E+00 -0.13033567783E+04  0.13033567783E+04  0.00000000000E+00 0.  1.
         25    2    1    2    0    0 -0.15086595211E+02 -0.24387089460E+02 -0.42185896948E+03  0.44092285886E+03  0.12500256737E+03 0.  0.
          5    1    3    3  501    0  0.89017857087E+01 -0.71516234353E+02 -0.29079088268E+03  0.29958831923E+03  0.10000000000E+00 0.  1.
         -5    1    3    3    0  501 -0.23988380920E+02  0.47129144893E+02 -0.13106808680E+03  0.14133453964E+03  0.10000000000E+00 0.  1.
          1    1    1    2  502    0  0.15086595211E+02  0.24387089460E+02 -0.87173009359E+03  0.87220163469E+03  0.00000000000E+00 0.  1.
<mgrwt>
<rscale>  1 0.12824967E+03</rscale>
<asrwt>0</asrwt>
<pdfrwt beam="1">  1       21 0.15027254E-02 0.12824967E+03</pdfrwt>
<pdfrwt beam="2">  1        1 0.20051643E+00 0.12824967E+03</pdfrwt>
<totfact> 0.21350590E+05</totfact>
</mgrwt>
</event>
<event>
 6    2  0.1674964E-002  0.1676296E+03  0.7546771E-02  0.1180343E+00
          2   -1    0    0  503    0 -0.00000000000E+00  0.00000000000E+00  0.70747157094E+03  0.70747157094E+03  0.00000000000E+00 0. -1.
         21   -1    0    0  502  503  0.00000000000E+00 -0.00000000000E+00 -0.37886153250E+02  0.37886153250E+02  0.00000000000E+00 0. -1.
         25    2    1    2    0    0  0.26636329331E+02 -0.10847610240E+03  0.19198035103E+03  0.25486495306E+03  0.12499252092E+03 0.  0.
          5    1    3    3  501    0 -0.26718623736E+02 -0.10381302507E+03  0.91223727842E+02  0.14075797508E+03  0.10000000000E+00 0. -1.
         -5    1    3    3    0  501  0.53354953067E+02 -0.46630773280E+01  0.10075662318E+03  0.11410697797E+03  0.10000000000E+00 0. -1.
          2    1    1    2  502    0 -0.26636329331E+02  0.10847610240E+03  0.47760506666E+03  0.49049277113E+03  0.00000000000E+00 0. -1.
<mgrwt>
<rscale>  1 0.16762962E+03</rscale>
<asrwt>0</asrwt>
<pdfrwt beam="1">  1       21 0.58286395E-02 0.16762962E+03</pdfrwt>
<pdfrwt beam="2">  1        2 0.10884177E+00 0.16762962E+03</pdfrwt>
<totfact> 0.10808545E+05</totfact>
</mgrwt>
</event>
<event>
 6    2  0.1674964E-002  0.1324158E+03  0.7546771E-02  0.1223915E+00
          3   -1    0    0  503    0 -0.00000000000E+00  0.00000000000E+00  0.65405791775E+03  0.65405791775E+03  0.00000000000E+00 0. -1.
         21   -1    0    0  502  503  0.00000000000E+00 -0.00000000000E+00 -0.10744676606E+03  0.10744676606E+03  0.00000000000E+00 0.  1.
         25    2    1    2    0    0 -0.36444663828E+01  0.43297862465E+02 -0.65585449576E+02  0.14776804189E+03  0.12508379583E+03 0.  0.
          5    1    3    3  501    0 -0.32216587416E+01  0.52350986090E+02 -0.99600186155E+02  0.11256647774E+03  0.10000000000E+00 0. -1.
         -5    1    3    3    0  501 -0.42280764127E+00 -0.90531236247E+01  0.34014736579E+02  0.35201564145E+02  0.10000000000E+00 0. -1.
          3    1    1    2  502    0  0.36444663828E+01 -0.43297862465E+02  0.61219660127E+03  0.61373664192E+03  0.00000000000E+00 0. -1.
<mgrwt>
<rscale>  1 0.13241580E+03</rscale>
<asrwt>0</asrwt>
<pdfrwt beam="1">  1       21 0.16530272E-01 0.13241580E+03</pdfrwt>
<pdfrwt beam="2">  1        3 0.10062429E+00 0.13241580E+03</pdfrwt>
<totfact> 0.14476110E+03</totfact>
</mgrwt>
</event>
<event>
 6    2  0.1674964E-002  0.1296634E+03  0.7546771E-02  0.1227956E+00
          2   -1    0    0  503    0 -0.00000000000E+00  0.00000000000E+00  0.30811969564E+04  0.30811969564E+04  0.00000000000E+00 0. -1.
         21   -1    0    0  502  503  0.00000000000E+00 -0.00000000000E+00 -0.23090271246E+01  0.23090271246E+01  0.00000000000E+00 0. -1.
         25    2    1    2    0    0 -0.15059951112E+02 -0.30993332597E+02  0.20903180922E+04  0.20943357699E+04  0.12500080645E+03 0.  0.
          5    1    3    3  501    0 -0.45248155678E+02 -0.45218860909E+02  0.55808240016E+03  0.56173669664E+03  0.10000000000E+00 0. -1.
         -5    1    3    3    0  501  0.30188204566E+02  0.14225528312E+02  0.15322356921E+04  0.15325990733E+04  0.10000000000E+00 0. -1.
          2    1    1    2  502    0  0.15059951112E+02  0.30993332597E+02  0.98856983701E+03  0.98917021358E+03  0.00000000000E+00 0. -1.
<mgrwt>
<rscale>  1 0.12966337E+03</rscale>
<asrwt>0</asrwt>
<pdfrwt beam="1">  1       21 0.35523741E-03 0.12966337E+03</pdfrwt>
<pdfrwt beam="2">  1        2 0.47402701E+00 0.12966337E+03</pdfrwt>
<totfact> 0.46896401E+05</totfact>
</mgrwt>
</event>
<event>
 6    2  0.1674964E-002  0.1274844E+03  0.7546771E-02  0.1231237E+00
          2   -1    0    0  503    0 -0.00000000000E+00  0.00000000000E+00  0.55735561268E+03  0.55735561268E+03  0.00000000000E+00 0.  1.
         21   -1    0    0  502  503  0.00000000000E+00 -0.00000000000E+00 -0.10442812486E+02  0.10442812486E+02  0.00000000000E+00 0.  1.
         25    2    1    2    0    0 -0.69693021832E+01 -0.24087606588E+02  0.45334011124E+03  0.47092411442E+03  0.12499392433E+03 0.  0.
          5    1    3    3  501    0  0.40732692213E+02  0.23448356940E+02  0.29701175111E+03  0.30070744579E+03  0.10000000000E+00 0.  1.
         -5    1    3    3    0  501 -0.47701994396E+02 -0.47535963529E+02  0.15632836013E+03  0.17021666863E+03  0.10000000000E+00 0.  1.
          2    1    1    2  502    0  0.69693021832E+01  0.24087606588E+02  0.93572688951E+02  0.96874310741E+02  0.00000000000E+00 0.  1.
<mgrwt>
<rscale>  1 0.12748437E+03</rscale>
<asrwt>0</asrwt>
<pdfrwt beam="1">  1       21 0.16065870E-02 0.12748437E+03</pdfrwt>
<pdfrwt beam="2">  1        2 0.85746994E-01 0.12748437E+03</pdfrwt>
<totfact> 0.11752414E+06</totfact>
</mgrwt>
</event>
<event>
 6    2  0.1674964E-002  0.1276266E+03  0.7546771E-02  0.1231020E+00
          4   -1    0    0  503    0 -0.00000000000E+00  0.00000000000E+00  0.18922051076E+02  0.18922051076E+02  0.00000000000E+00 0.  1.
         21   -1    0    0  502  503  0.00000000000E+00 -0.00000000000E+00 -0.57882774003E+03  0.57882774003E+03  0.00000000000E+00 0.  1.
         25    2    1    2    0    0  0.19346023633E+02 -0.16986938562E+02 -0.55746621148E+03  0.57188909192E+03  0.12500292717E+03 0.  0.
          5    1    3    3  501    0  0.32274888215E+01 -0.58723898940E+02 -0.13754768738E+03  0.14959374752E+03  0.10000000000E+00 0.  1.
         -5    1    3    3    0  501  0.16118534812E+02  0.41736960378E+02 -0.41991852409E+03  0.42229534440E+03  0.10000000000E+00 0.  1.
          4    1    1    2  502    0 -0.19346023633E+02  0.16986938562E+02 -0.24394774746E+01  0.25860699188E+02  0.00000000000E+00 0.  1.
<mgrwt>
<rscale>  1 0.12762663E+03</rscale>
<asrwt>0</asrwt>
<pdfrwt beam="1">  1       21 0.89050432E-01 0.12762663E+03</pdfrwt>
<pdfrwt beam="2">  1        4 0.29110844E-02 0.12762663E+03</pdfrwt>
<totfact> 0.24918650E+04</totfact>
</mgrwt>
</event>
<event>
 6    2  0.1674964E-002  0.1440637E+03  0.7546771E-02  0.1207963E+00
         21   -1    0    0  502  503  0.00000000000E+00  0.00000000000E+00  0.30763580740E+03  0.30763580740E+03  0.00000000000E+00 0.  1.
          1   -1    0    0  503    0 -0.00000000000E+00 -0.00000000000E+00 -0.10026285805E+03  0.10026285805E+03  0.00000000000E+00 0. -1.
         25    2    1    2    0    0 -0.36554766468E+02 -0.61642380790E+02  0.27430692716E+03  0.30983648392E+03  0.12497328682E+03 0.  0.
          5    1    3    3  501    0  0.37784494100E+02 -0.52091294035E+02  0.16678894022E+03  0.17877284885E+03  0.10000000000E+00 0.  1.
         -5    1    3    3    0  501 -0.74339260568E+02 -0.95510867552E+01  0.10751798695E+03  0.13106363507E+03  0.10000000000E+00 0.  1.
          1    1    1    2  502    0  0.36554766468E+02  0.61642380790E+02 -0.66933977810E+02  0.98062181530E+02  0.00000000000E+00 0. -1.
<mgrwt>
<rscale>  1 0.14406372E+03</rscale>
<asrwt>0</asrwt>
<pdfrwt beam="1">  1       21 0.47328585E-01 0.14406372E+03</pdfrwt>
<pdfrwt beam="2">  1        1 0.15425055E-01 0.14406372E+03</pdfrwt>
<totfact> 0.16498249E+04</totfact>
</mgrwt>
</event>
<event>
 6    2  0.1674964E-002  0.1463268E+03  0.7546771E-02  0.1205061E+00
         21   -1    0    0  502  503  0.00000000000E+00  0.00000000000E+00  0.99314265231E+02  0.99314265231E+02  0.00000000000E+00 0.  1.
          4   -1    0    0  503    0 -0.00000000000E+00 -0.00000000000E+00 -0.26832370924E+03  0.26832370924E+03  0.00000000000E+00 0.  1.
         25    2    1    2    0    0  0.71868983040E+02 -0.24920549456E+02  0.34532803570E+02  0.15034639374E+03  0.12500135631E+03 0.  0.
          5    1    3    3  501    0 -0.89537208412E+01  0.17134438447E+02  0.53846751433E+02  0.57212242900E+02  0.10000000000E+00 0. -1.
         -5    1    3    3    0  501  0.80822703881E+02 -0.42054987904E+02 -0.19313947862E+02  0.93134150838E+02  0.10000000000E+00 0. -1.
          4    1    1    2  502    0 -0.71868983040E+02  0.24920549456E+02 -0.20354224758E+03  0.21729158073E+03  0.00000000000E+00 0.  1.
<mgrwt>
<rscale>  1 0.14632677E+03</rscale>
<asrwt>0</asrwt>
<pdfrwt beam="1">  1       21 0.15279118E-01 0.14632677E+03</pdfrwt>
<pdfrwt beam="2">  1        4 0.41280571E-01 0.14632677E+03</pdfrwt>
<totfact> 0.89408150E+03</totfact>
</mgrwt>
</event>
<event>
 6    2  0.1674964E-002  0.1285150E+03  0.7546771E-02  0.1229676E+00
          2   -1    0    0  503    0 -0.00000000000E+00  0.00000000000E+00  0.19623966230E+04  0.19623966230E+04  0.00000000000E+00 0. -1.
         21   -1    0    0  502  503  0.00000000000E+00 -0.00000000000E+00 -0.91746691850E+01  0.91746691850E+01  0.00000000000E+00 0. -1.
         25    2    1    2    0    0 -0.28921648890E+02  0.75495523261E+01  0.44841992379E+03  0.46647242265E+03  0.12499054174E+03 0.  0.
          5    1    3    3  501    0  0.23521186807E+02 -0.33006629427E+02  0.59815588434E+02  0.72253708795E+02  0.10000000000E+00 0.  1.
         -5    1    3    3    0  501 -0.52442835697E+02  0.40556181753E+02  0.38860433536E+03  0.39421871386E+03  0.10000000000E+00 0.  1.
          2    1    1    2  502    0  0.28921648890E+02 -0.75495523261E+01  0.15048020300E+04  0.15050988695E+04  0.00000000000E+00 0. -1.
<mgrwt>
<rscale>  1 0.12851495E+03</rscale>
<asrwt>0</asrwt>
<pdfrwt beam="1">  1       21 0.14114891E-02 0.12851495E+03</pdfrwt>
<pdfrwt beam="2">  1        2 0.30190684E+00 0.12851495E+03</pdfrwt>
<totfact> 0.21834051E+05</totfact>
</mgrwt>
</event>
<event>
 6    2  0.1674964E-002  0.1380590E+03  0.7546771E-02  0.1215965E+00
          2   -1    0    0  503    0 -0.00000000000E+00  0.00000000000E+00  0.19677472802E+03  0.19677472802E+03  0.00000000000E+00 0.  1.
         21   -1    0    0  502  503  0.00000000000E+00 -0.00000000000E+00 -0.41216275881E+03  0.41216275881E+03  0.00000000000E+00 0. -1.
         25    2    1    2    0    0  0.15350483919E+02 -0.56563676563E+02 -0.39583002727E+03  0.41921558258E+03  0.12500082930E+03 0.  0.
          5    1    3    3  501    0 -0.18509476204E+02 -0.33773473784E+02 -0.36754508832E+03  0.36955737063E+03  0.10000000000E+00 0. -1.
         -5    1    3    3    0  501  0.33859960123E+02 -0.22790202779E+02 -0.28284938951E+02  0.49658211946E+02  0.10000000000E+00 0. -1.
          2    1    1    2  502    0 -0.15350483919E+02  0.56563676563E+02  0.18044199648E+03  0.18972190426E+03  0.00000000000E+00 0.  1.
<mgrwt>
<rscale>  1 0.13805902E+03</rscale>
<asrwt>0</asrwt>
<pdfrwt beam="1">  1       21 0.63409655E-01 0.13805902E+03</pdfrwt>
<pdfrwt beam="2">  1        2 0.30273035E-01 0.13805902E+03</pdfrwt>
<totfact> 0.50032228E+03</totfact>
</mgrwt>
</event>
<event>
 6    2  0.1674964E-002  0.1261103E+03  0.7546771E-02  0.1233344E+00
         21   -1    0    0  502  503  0.00000000000E+00  0.00000000000E+00  0.36709871528E+01  0.36709871528E+01  0.00000000000E+00 0.  1.
          4   -1    0    0  503    0 -0.00000000000E+00 -0.00000000000E+00 -0.14681662146E+04  0.14681662146E+04  0.00000000000E+00 0.  1.
         25    2    1    2    0    0  0.50885155185E+01 -0.15924324646E+02 -0.11491384786E+04  0.11560376511E+04  0.12499732323E+03 0.  0.
          5    1    3    3  501    0 -0.47213798386E+02 -0.11903271983E+02 -0.21574522210E+03  0.22117152055E+03  0.10000000000E+00 0. -1.
         -5    1    3    3    0  501  0.52302313905E+02 -0.40210526633E+01 -0.93339325646E+03  0.93486613058E+03  0.10000000000E+00 0. -1.
          4    1    1    2  502    0 -0.50885155185E+01  0.15924324646E+02 -0.31535674885E+03  0.31579955058E+03  0.00000000000E+00 0.  1.
<mgrwt>
<rscale>  1 0.12611030E+03</rscale>
<asrwt>0</asrwt>
<pdfrwt beam="1">  1       21 0.56476581E-03 0.12611030E+03</pdfrwt>
<pdfrwt beam="2">  1        4 0.22587230E+00 0.12611030E+03</pdfrwt>
<totfact> 0.37652980E+04</totfact>
</mgrwt>
</event>
<event>
 6    2  0.1674964E-002  0.1291702E+03  0.7546771E-02  0.1228692E+00
         21   -1    0    0  502  503  0.00000000000E+00  0.00000000000E+00  0.97376363024E+01  0.97376363024E+01  0.00000000000E+00 0. -1.
          2   -1    0    0  503    0 -0.00000000000E+00 -0.00000000000E+00 -0.74966277429E+03  0.74966277429E+03  0.00000000000E+00 0. -1.
         25    2    1    2    0    0  0.19283171744E+02 -0.26252650714E+02 -0.66895792259E+03  0.68131463696E+03  0.12499555977E+03 0.  0.
          5    1    3    3  501    0 -0.50955802123E+02 -0.23417466853E+02 -0.22841113306E+03  0.23519465817E+03  0.10000000000E+00 0.  1.
         -5    1    3    3    0  501  0.70238973868E+02 -0.28351838613E+01 -0.44054678952E+03  0.44611997879E+03  0.10000000000E+00 0.  1.
          2    1    1    2  502    0 -0.19283171744E+02  0.26252650714E+02 -0.70967215406E+02  0.78085773637E+02  0.00000000000E+00 0. -1.
<mgrwt>
<rscale>  1 0.12917017E+03</rscale>
<asrwt>0</asrwt>
<pdfrwt beam="1">  1       21 0.14980976E-02 0.12917017E+03</pdfrwt>
<pdfrwt beam="2">  1        2 0.11533275E+00 0.12917017E+03</pdfrwt>
<totfact> 0.93294609E+05</totfact>
</mgrwt>
</event>
<event>
 6    2  0.1674964E-002  0.1262403E+03  0.7546771E-02  0.1233144E+00
          2   -1    0    0  503    0 -0.00000000000E+00  0.00000000000E+00  0.53878886479E+03  0.53878886479E+03  0.00000000000E+00 0.  1.
         21   -1    0    0  502  503  0.00000000000E+00 -0.00000000000E+00 -0.15415223253E+02  0.15415223253E+02  0.00000000000E+00 0.  1.
         25    2    1    2    0    0  0.11648082754E+02  0.12458311172E+02  0.24780135454E+03  0.27810451776E+03  0.12508286908E+03 0.  0.
          5    1    3    3  501    0  0.43252561268E+02  0.43715640736E+02  0.63025451099E+02  0.88057133655E+02  0.10000000000E+00 0.  1.
         -5    1    3    3    0  501 -0.31604478514E+02 -0.31257329564E+02  0.18477590344E+03  0.19004738411E+03  0.10000000000E+00 0.  1.
          2    1    1    2  502    0 -0.11648082754E+02 -0.12458311172E+02  0.27557228700E+03  0.27609957028E+03  0.00000000000E+00 0.  1.
<mgrwt>
<rscale>  1 0.12624029E+03</rscale>
<asrwt>0</asrwt>
<pdfrwt beam="1">  1       21 0.23715732E-02 0.12624029E+03</pdfrwt>
<pdfrwt beam="2">  1        2 0.82890580E-01 0.12624029E+03</pdfrwt>
<totfact> 0.65101306E+05</totfact>
</mgrwt>
</event>
<event>
 6    2  0.1674964E-002  0.1275724E+03  0.7546771E-02  0.1231103E+00
          1   -1    0    0  503    0 -0.00000000000E+00  0.00000000000E+00  0.37627682124E+03  0.37627682124E+03  0.00000000000E+00 0.  1.
         21   -1    0    0  502  503  0.00000000000E+00 -0.00000000000E+00 -0.66944441344E+02  0.66944441344E+02  0.00000000000E+00 0.  1.
         25    2    1    2    0    0  0.25089662568E+02 -0.45266736201E+01 -0.51797642730E+01  0.12767749261E+03  0.12499892087E+03 0.  0.
          5    1    3    3  501    0  0.10336042445E+01 -0.56192166193E+02 -0.32018739430E+02  0.64682590810E+02  0.10000000000E+00 0.  1.
         -5    1    3    3    0  501  0.24056058323E+02  0.51665492573E+02  0.26838975157E+02  0.62994901796E+02  0.10000000000E+00 0.  1.
          1    1    1    2  502    0 -0.25089662568E+02  0.45266736201E+01  0.31451214417E+03  0.31554376998E+03  0.00000000000E+00 0.  1.
<mgrwt>
<rscale>  1 0.12757238E+03</rscale>
<asrwt>0</asrwt>
<pdfrwt beam="1">  1       21 0.10299145E-01 0.12757238E+03</pdfrwt>
<pdfrwt beam="2">  1        1 0.57888740E-01 0.12757238E+03</pdfrwt>
<totfact> 0.55253105E+04</totfact>
</mgrwt>
</event>
<event>
 6    2  0.1674964E-002  0.1290259E+03  0.7546771E-02  0.1228908E+00
          2   -1    0    0  503    0 -0.00000000000E+00  0.00000000000E+00  0.11756590881E+04  0.11756590881E+04  0.00000000000E+00 0.  1.
         21   -1    0    0  502  503  0.00000000000E+00 -0.00000000000E+00 -0.18163617087E+03  0.18163617087E+03  0.00000000000E+00 0. -1.
         25    2    1    2    0    0  0.21955622150E+02  0.23240481142E+02 -0.15847299665E+03  0.20435597141E+03  0.12500201229E+03 0.  0.
          5    1    3    3  501    0 -0.12628961788E+02  0.49911890463E+02 -0.15165053358E+03  0.16015174623E+03  0.10000000000E+00 0.  1.
         -5    1    3    3    0  501  0.34584583938E+02 -0.26671409321E+02 -0.68224630650E+01  0.44204225178E+02  0.10000000000E+00 0.  1.
          2    1    1    2  502    0 -0.21955622150E+02 -0.23240481142E+02  0.11524959139E+04  0.11529392876E+04  0.00000000000E+00 0.  1.
<mgrwt>
<rscale>  1 0.12902586E+03</rscale>
<asrwt>0</asrwt>
<pdfrwt beam="1">  1       21 0.27944027E-01 0.12902586E+03</pdfrwt>
<pdfrwt beam="2">  1        2 0.18087062E+00 0.12902586E+03</pdfrwt>
<totfact> 0.33350528E+03</totfact>
</mgrwt>
</event>
<event>
 6    2  0.1674964E-002  0.1281616E+03  0.7546771E-02  0.1230209E+00
          2   -1    0    0  503    0 -0.00000000000E+00  0.00000000000E+00  0.14441467025E+03  0.14441467025E+03  0.00000000000E+00 0. -1.
         21   -1    0    0  502  503  0.00000000000E+00 -0.00000000000E+00 -0.44511451333E+02  0.44511451333E+02  0.00000000000E+00 0. -1.
         25    2    1    2    0    0  0.20886031200E+02 -0.19152604530E+02  0.64196462992E+02  0.14334080620E+03  0.12498940876E+03 0.  0.
          5    1    3    3  501    0  0.28286760314E+02  0.19287161463E+02  0.90110140963E+02  0.96394931976E+02  0.10000000000E+00 0. -1.
         -5    1    3    3    0  501 -0.74007291136E+01 -0.38439765994E+02 -0.25913677971E+02  0.46945874228E+02  0.10000000000E+00 0. -1.
          2    1    1    2  502    0 -0.20886031200E+02  0.19152604530E+02  0.35706755927E+02  0.45585315381E+02  0.00000000000E+00 0. -1.
<mgrwt>
<rscale>  1 0.12816162E+03</rscale>
<asrwt>0</asrwt>
<pdfrwt beam="1">  1       21 0.68479156E-02 0.12816162E+03</pdfrwt>
<pdfrwt beam="2">  1        2 0.22217641E-01 0.12816162E+03</pdfrwt>
<totfact> 0.46102076E+05</totfact>
</mgrwt>
</event>
<event>
 6    2  0.1674964E-002  0.1274015E+03  0.7546771E-02  0.1231363E+00
          4   -1    0    0  503    0 -0.00000000000E+00  0.00000000000E+00  0.74150154106E+02  0.74150154106E+02  0.00000000000E+00 0.  1.
         21   -1    0    0  502  503  0.00000000000E+00 -0.00000000000E+00 -0.53648680572E+03  0.53648680572E+03  0.00000000000E+00 0. -1.
         25    2    1    2    0    0 -0.12878559464E+02  0.21000334882E+02 -0.52661128657E+03  0.54180310145E+03  0.12499712892E+03 0.  0.
          5    1    3    3  501    0  0.24270119455E+02  0.23104700293E+02 -0.48430269236E+03  0.48546057893E+03  0.10000000000E+00 0. -1.
         -5    1    3    3    0  501 -0.37148678919E+02 -0.21043654116E+01 -0.42308594216E+02  0.56342522519E+02  0.10000000000E+00 0. -1.
          4    1    1    2  502    0  0.12878559464E+02 -0.21000334882E+02  0.64274634961E+02  0.68833858372E+02  0.00000000000E+00 0.  1.
<mgrwt>
<rscale>  1 0.12740154E+03</rscale>
<asrwt>0</asrwt>
<pdfrwt beam="1">  1       21 0.82536430E-01 0.12740154E+03</pdfrwt>
<pdfrwt beam="2">  1        4 0.11407716E-01 0.12740154E+03</pdfrwt>
<totfact> 0.32236073E+03</totfact>
</mgrwt>
</event>
<event>
 6    2  0.1674964E-002  0.1419629E+03  0.7546771E-02  0.1210712E+00
          3   -1    0    0  503    0 -0.00000000000E+00  0.00000000000E+00  0.50844455609E+02  0.50844455609E+02  0.00000000000E+00 0.  1.
         21   -1    0    0  502  503  0.00000000000E+00 -0.00000000000E+00 -0.24513223311E+03  0.24513223311E+03  0.00000000000E+00 0. -1.
         25    2    1    2    0    0 -0.66696416429E+02 -0.88173485943E+01 -0.17627108059E+03  0.22632929847E+03  0.12500919924E+03 0.  0.
          5    1    3    3  501    0 -0.99843045994E+02 -0.27664409639E+02 -0.13440421187E+03  0.16970107708E+03  0.10000000000E+00 0.  1.
         -5    1    3    3    0  501  0.33146629564E+02  0.18847061045E+02 -0.41866868715E+02  0.56628221387E+02  0.10000000000E+00 0.  1.
          3    1    1    2  502    0  0.66696416429E+02  0.88173485943E+01 -0.18016696912E+02  0.69647390248E+02  0.00000000000E+00 0.  1.
<mgrwt>
<rscale>  1 0.14196287E+03</rscale>
<asrwt>0</asrwt>
<pdfrwt beam="1">  1       21 0.37712652E-01 0.14196287E+03</pdfrwt>
<pdfrwt beam="2">  1        3 0.78222239E-02 0.14196287E+03</pdfrwt>
<totfact> 0.36180869E+04</totfact>
</mgrwt>
</event>
<event>
 6    2  0.1674964E-002  0.1292738E+03  0.7546771E-02  0.1228537E+00
          4   -1    0    0  503    0 -0.00000000000E+00  0.00000000000E+00  0.52122018633E+03  0.52122018633E+03  0.00000000000E+00 0. -1.
         21   -1    0    0  502  503  0.00000000000E+00 -0.00000000000E+00 -0.70209067806E+02  0.70209067806E+02  0.00000000000E+00 0.  1.
         25    2    1    2    0    0  0.19383381334E+02  0.26497229456E+02 -0.96185327778E+01  0.12963114424E+03  0.12503558991E+03 0.  0.
          5    1    3    3  501    0  0.52918854885E+02  0.50512602924E+02 -0.35106038949E+02  0.81144144750E+02  0.10000000000E+00 0.  1.
         -5    1    3    3    0  501 -0.33535473551E+02 -0.24015373468E+02  0.25487506171E+02  0.48486999494E+02  0.10000000000E+00 0.  1.
          4    1    1    2  502    0 -0.19383381334E+02 -0.26497229456E+02  0.46062965130E+03  0.46179810989E+03  0.00000000000E+00 0. -1.
<mgrwt>
<rscale>  1 0.12927381E+03</rscale>
<asrwt>0</asrwt>
<pdfrwt beam="1">  1       21 0.10801395E-01 0.12927381E+03</pdfrwt>
<pdfrwt beam="2">  1        4 0.80187718E-01 0.12927381E+03</pdfrwt>
<totfact> 0.41096600E+03</totfact>
</mgrwt>
</event>
<event>
 6    2  0.1674964E-002  0.1278871E+03  0.7546771E-02  0.1230625E+00
         21   -1    0    0  502  503  0.00000000000E+00  0.00000000000E+00  0.18291270813E+03  0.18291270813E+03  0.00000000000E+00 0. -1.
          1   -1    0    0  503    0 -0.00000000000E+00 -0.00000000000E+00 -0.55240535888E+03  0.55240535888E+03  0.00000000000E+00 0.  1.
         25    2    1    2    0    0 -0.17345486360E+02 -0.20677775677E+02  0.16017332974E+03  0.20496489487E+03  0.12500670488E+03 0.  0.
          5    1    3    3  501    0 -0.51306108184E+02 -0.25000361559E+02  0.16089997608E+03  0.17072242711E+03  0.10000000000E+00 0.  1.
         -5    1    3    3    0  501  0.33960621824E+02  0.43225858824E+01 -0.72664634164E+00  0.34242467760E+02  0.10000000000E+00 0.  1.
          1    1    1    2  502    0  0.17345486360E+02  0.20677775677E+02 -0.52966598050E+03  0.53035317214E+03  0.00000000000E+00 0.  1.
<mgrwt>
<rscale>  1 0.12788711E+03</rscale>
<asrwt>0</asrwt>
<pdfrwt beam="1">  1       21 0.28140417E-01 0.12788711E+03</pdfrwt>
<pdfrwt beam="2">  1        1 0.84985440E-01 0.12788711E+03</pdfrwt>
<totfact> 0.53893580E+03</totfact>
</mgrwt>
</event>
<event>
 6    2  0.1674964E-002  0.1401214E+03  0.7546771E-02  0.1213166E+00
          2   -1    0    0  503    0 -0.00000000000E+00  0.00000000000E+00  0.29717256555E+03  0.29717256555E+03  0.00000000000E+00 0.  1.
         21   -1    0    0  502  503  0.00000000000E+00 -0.00000000000E+00 -0.37011920477E+02  0.37011920477E+02  0.00000000000E+00 0.  1.
         25    2    1    2    0    0 -0.50095780394E+02 -0.38712479922E+02  0.21415908650E+03  0.25592602511E+03  0.12500309068E+03 0.  0.
          5    1    3    3  501    0 -0.69868594091E+02 -0.50301314971E+02  0.72873557100E+02  0.11279365254E+03  0.10000000000E+00 0. -1.
         -5    1    3    3    0  501  0.19772813697E+02  0.11588835048E+02  0.14128552940E+03  0.14313237257E+03  0.10000000000E+00 0. -1.
          2    1    1    2  502    0  0.50095780394E+02  0.38712479922E+02  0.46001558575E+02  0.78258460925E+02  0.00000000000E+00 0.  1.
<mgrwt>
<rscale>  1 0.14012143E+03</rscale>
<asrwt>0</asrwt>
<pdfrwt beam="1">  1       21 0.56941418E-02 0.14012143E+03</pdfrwt>
<pdfrwt beam="2">  1        2 0.45718855E-01 0.14012143E+03</pdfrwt>
<totfact> 0.29092387E+05</totfact>
</mgrwt>
</event>
<event>
 6    2  0.1674964E-002  0.1736245E+03  0.7546771E-02  0.1174120E+00
          1   -1    0    0  503    0 -0.00000000000E+00  0.00000000000E+00  0.12850432378E+03  0.12850432378E+03  0.00000000000E+00 0. -1.
         21   -1    0    0  502  503  0.00000000000E+00 -0.00000000000E+00 -0.18163891233E+03  0.18163891233E+03  0.00000000000E+00 0.  1.
         25    2    1    2    0    0 -0.58668641417E+02 -0.10525770901E+03 -0.72389115530E+02  0.18811073387E+03  0.12499707740E+03 0.  0.
          5    1    3    3  501    0 -0.80259525469E+00  0.31828030804E+01  0.28748726909E+02  0.28935682012E+02  0.10000000000E+00 0.  1.
         -5    1    3    3    0  501 -0.57866046162E+02 -0.10844051210E+03 -0.10113784244E+03  0.15917505186E+03  0.10000000000E+00 0.  1.
          1    1    1    2  502    0  0.58668641417E+02  0.10525770901E+03  0.19254526975E+02  0.12203250224E+03  0.00000000000E+00 0. -1.
<mgrwt>
<rscale>  1 0.17362449E+03</rscale>
<asrwt>0</asrwt>
<pdfrwt beam="1">  1       21 0.27944448E-01 0.17362449E+03</pdfrwt>
<pdfrwt beam="2">  1        1 0.19769896E-01 0.17362449E+03</pdfrwt>
<totfact> 0.34110777E+04</totfact>
</mgrwt>
</event>
<event>
 6    2  0.1674964E-002  0.1289625E+03  0.7546771E-02  0.1229003E+00
          1   -1    0    0  503    0 -0.00000000000E+00  0.00000000000E+00  0.11208970535E+04  0.11208970535E+04  0.00000000000E+00 0. -1.
         21   -1    0    0  502  503  0.00000000000E+00 -0.00000000000E+00 -0.61606314325E+01  0.61606314325E+01  0.00000000000E+00 0. -1.
         25    2    1    2    0    0 -0.31138339502E+02 -0.61269760830E+01  0.98924585071E+03  0.99761650323E+03  0.12499679328E+03 0.  0.
          5    1    3    3  501    0 -0.48363178718E+02 -0.93330530514E+01  0.97125679796E+03  0.97250495141E+03  0.10000000000E+00 0. -1.
         -5    1    3    3    0  501  0.17224839216E+02  0.32060769684E+01  0.17989052754E+02  0.25111551814E+02  0.10000000000E+00 0. -1.
          1    1    1    2  502    0  0.31138339502E+02  0.61269760830E+01  0.12549057131E+03  0.12944118167E+03  0.00000000000E+00 0. -1.
<mgrwt>
<rscale>  1 0.12896253E+03</rscale>
<asrwt>0</asrwt>
<pdfrwt beam="1">  1       21 0.94779034E-03 0.12896253E+03</pdfrwt>
<pdfrwt beam="2">  1        1 0.17244554E+00 0.12896253E+03</pdfrwt>
<totfact> 0.59017175E+05</totfact>
</mgrwt>
</event>
<event>
 6    2  0.1674964E-002  0.1497179E+03  0.7546771E-02  0.1200820E+00
         21   -1    0    0  502  503  0.00000000000E+00  0.00000000000E+00  0.29625784683E+02  0.29625784683E+02  0.00000000000E+00 0.  1.
          2   -1    0    0  503    0 -0.00000000000E+00 -0.00000000000E+00 -0.61184726397E+03  0.61184726397E+03  0.00000000000E+00 0.  1.
         25    2    1    2    0    0  0.81178954683E+02  0.14190180450E+02 -0.19645346034E+03  0.24700080838E+03  0.12499621337E+03 0.  0.
          5    1    3    3  501    0  0.69468574504E+02  0.14896993293E+01 -0.23743997271E+02  0.73429486271E+02  0.10000000000E+00 0.  1.
         -5    1    3    3    0  501  0.11710380180E+02  0.12700481120E+02 -0.17270946307E+03  0.17357132211E+03  0.10000000000E+00 0.  1.
          2    1    1    2  502    0 -0.81178954683E+02 -0.14190180450E+02 -0.38576801895E+03  0.39447224027E+03  0.00000000000E+00 0.  1.
<mgrwt>
<rscale>  1 0.14971786E+03</rscale>
<asrwt>0</asrwt>
<pdfrwt beam="1">  1       21 0.45578128E-02 0.14971786E+03</pdfrwt>
<pdfrwt beam="2">  1        2 0.94130353E-01 0.14971786E+03</pdfrwt>
<totfact> 0.19374445E+05</totfact>
</mgrwt>
</event>
<event>
 6    2  0.1674964E-002  0.1284845E+03  0.7546771E-02  0.1229722E+00
         21   -1    0    0  502  503  0.00000000000E+00  0.00000000000E+00  0.15026621813E+02  0.15026621813E+02  0.00000000000E+00 0.  1.
          2   -1    0    0  503    0 -0.00000000000E+00 -0.00000000000E+00 -0.12200602122E+04  0.12200602122E+04  0.00000000000E+00 0.  1.
         25    2    1    2    0    0  0.20681627429E+02 -0.21325320922E+02 -0.26421100827E+03  0.29379536478E+03  0.12500304177E+03 0.  0.
          5    1    3    3  501    0  0.43197357047E+02 -0.62483447906E+02 -0.20248313893E+03  0.21626285966E+03  0.10000000000E+00 0. -1.
         -5    1    3    3    0  501 -0.22515729618E+02  0.41158126984E+02 -0.61727869339E+02  0.77532505120E+02  0.10000000000E+00 0. -1.
          2    1    1    2  502    0 -0.20681627429E+02  0.21325320922E+02 -0.94082258212E+03  0.94129146924E+03  0.00000000000E+00 0.  1.
<mgrwt>
<rscale>  1 0.12848447E+03</rscale>
<asrwt>0</asrwt>
<pdfrwt beam="1">  1       21 0.23117867E-02 0.12848447E+03</pdfrwt>
<pdfrwt beam="2">  1        2 0.18770167E+00 0.12848447E+03</pdfrwt>
<totfact> 0.24004407E+05</totfact>
</mgrwt>
</event>
<event>
 6    2  0.1674964E-002  0.1339077E+03  0.7546771E-02  0.1221770E+00
         21   -1    0    0  502  503  0.00000000000E+00  0.00000000000E+00  0.36252345816E+02  0.36252345816E+02  0.00000000000E+00 0. -1.
          2   -1    0    0  503    0 -0.00000000000E+00 -0.00000000000E+00 -0.52823641042E+03  0.52823641042E+03  0.00000000000E+00 0.  1.
         25    2    1    2    0    0 -0.38202197428E+02 -0.29102038210E+02 -0.93974671536E+02  0.16359249349E+03  0.12499971407E+03 0.  0.
          5    1    3    3  501    0 -0.61371502235E+02 -0.28728358638E+02 -0.99633929955E+00  0.67770071334E+02  0.10000000000E+00 0.  1.
         -5    1    3    3    0  501  0.23169304806E+02 -0.37367957127E+00 -0.92978332236E+02  0.95822422152E+02  0.10000000000E+00 0.  1.
          2    1    1    2  502    0  0.38202197428E+02  0.29102038210E+02 -0.39800939307E+03  0.40089626275E+03  0.00000000000E+00 0.  1.
<mgrwt>
<rscale>  1 0.13390767E+03</rscale>
<asrwt>0</asrwt>
<pdfrwt beam="1">  1       21 0.55772842E-02 0.13390767E+03</pdfrwt>
<pdfrwt beam="2">  1        2 0.81267136E-01 0.13390767E+03</pdfrwt>
<totfact> 0.16210639E+05</totfact>
</mgrwt>
</event>
<event>
 6    2  0.1674964E-002  0.1259649E+03  0.7546771E-02  0.1233569E+00
         21   -1    0    0  502  503  0.00000000000E+00  0.00000000000E+00  0.35901567036E+02  0.35901567036E+02  0.00000000000E+00 0. -1.
          2   -1    0    0  503    0 -0.00000000000E+00 -0.00000000000E+00 -0.27461064500E+03  0.27461064500E+03  0.00000000000E+00 0. -1.
         25    2    1    2    0    0 -0.15360148522E+02  0.18890825251E+01 -0.76098853984E+02  0.14716721598E+03  0.12501060389E+03 0.  0.
          5    1    3    3  501    0  0.46731500760E+02 -0.36753037979E+01 -0.70384197580E+02  0.84565278278E+02  0.10000000000E+00 0. -1.
         -5    1    3    3    0  501 -0.62091649281E+02  0.55643863230E+01 -0.57146564037E+01  0.62601937697E+02  0.10000000000E+00 0. -1.
          2    1    1    2  502    0  0.15360148522E+02 -0.18890825251E+01 -0.16261022398E+03  0.16334499606E+03  0.00000000000E+00 0. -1.
<mgrwt>
<rscale>  1 0.12596489E+03</rscale>
<asrwt>0</asrwt>
<pdfrwt beam="1">  1       21 0.55233179E-02 0.12596489E+03</pdfrwt>
<pdfrwt beam="2">  1        2 0.42247792E-01 0.12596489E+03</pdfrwt>
<totfact> 0.33091555E+05</totfact>
</mgrwt>
</event>
<event>
 6    2  0.1674964E-002  0.1287056E+03  0.7546771E-02  0.1229389E+00
          1   -1    0    0  503    0 -0.00000000000E+00  0.00000000000E+00  0.89703733621E+02  0.89703733621E+02  0.00000000000E+00 0. -1.
         21   -1    0    0  502  503  0.00000000000E+00 -0.00000000000E+00 -0.11823081438E+03  0.11823081438E+03  0.00000000000E+00 0. -1.
         25    2    1    2    0    0 -0.26682404214E+02 -0.15117950882E+02 -0.77436897303E+02  0.15020523753E+03  0.12499854873E+03 0.  0.
          5    1    3    3  501    0 -0.51146146798E+02 -0.16612887511E+01 -0.10128995709E+03  0.11348283404E+03  0.10000000000E+00 0. -1.
         -5    1    3    3    0  501  0.24463742584E+02 -0.13456662131E+02  0.23853059792E+02  0.36722403494E+02  0.10000000000E+00 0. -1.
          1    1    1    2  502    0  0.26682404214E+02  0.15117950882E+02  0.48909816543E+02  0.57729310473E+02  0.00000000000E+00 0. -1.
<mgrwt>
<rscale>  1 0.12870563E+03</rscale>
<asrwt>0</asrwt>
<pdfrwt beam="1">  1       21 0.18189356E-01 0.12870563E+03</pdfrwt>
<pdfrwt beam="2">  1        1 0.13800574E-01 0.12870563E+03</pdfrwt>
<totfact> 0.12064429E+05</totfact>
</mgrwt>
</event>
<event>
 6    2  0.1674964E-002  0.1294156E+03  0.7546771E-02  0.1228325E+00
         21   -1    0    0  502  503  0.00000000000E+00  0.00000000000E+00  0.31050493147E+03  0.31050493147E+03  0.00000000000E+00 0.  1.
          3   -1    0    0  503    0 -0.00000000000E+00 -0.00000000000E+00 -0.72216236039E+02  0.72216236039E+02  0.00000000000E+00 0.  1.
         25    2    1    2    0    0 -0.33407529333E+02 -0.27184598864E+01  0.29200894364E+03  0.31940199104E+03  0.12499982268E+03 0.  0.
          5    1    3    3  501    0 -0.37076958381E+02  0.57693930313E+02  0.14402479161E+03  0.15951940645E+03  0.10000000000E+00 0. -1.
         -5    1    3    3    0  501  0.36694290479E+01 -0.60412390200E+02  0.14798415203E+03  0.15988258458E+03  0.10000000000E+00 0. -1.
          3    1    1    2  502    0  0.33407529333E+02  0.27184598864E+01 -0.53720248216E+02  0.63319176468E+02  0.00000000000E+00 0.  1.
<mgrwt>
<rscale>  1 0.12941564E+03</rscale>
<asrwt>0</asrwt>
<pdfrwt beam="1">  1       21 0.47769989E-01 0.12941564E+03</pdfrwt>
<pdfrwt beam="2">  1        3 0.11110190E-01 0.12941564E+03</pdfrwt>
<totfact> 0.12532050E+04</totfact>
</mgrwt>
</event>
<event>
 6    2  0.1674964E-002  0.1339643E+03  0.7546771E-02  0.1221689E+00
         21   -1    0    0  502  503  0.00000000000E+00  0.00000000000E+00  0.42770682759E+02  0.42770682759E+02  0.00000000000E+00 0. -1.
          2   -1    0    0  503    0 -0.00000000000E+00 -0.00000000000E+00 -0.54354830986E+03  0.54354830986E+03  0.00000000000E+00 0.  1.
         25    2    1    2    0    0 -0.40485262235E+02  0.26119647924E+02 -0.66836862549E+02  0.14971175538E+03  0.12500060415E+03 0.  0.
          5    1    3    3  501    0 -0.14726231604E+02  0.30836298678E+02 -0.10102414808E+03  0.10664721144E+03  0.10000000000E+00 0.  1.
         -5    1    3    3    0  501 -0.25759030631E+02 -0.47166507540E+01  0.34187285527E+02  0.43064543944E+02  0.10000000000E+00 0.  1.
          2    1    1    2  502    0  0.40485262235E+02 -0.26119647924E+02 -0.43394076455E+03  0.43660723723E+03  0.00000000000E+00 0.  1.
<mgrwt>
<rscale>  1 0.13396434E+03</rscale>
<asrwt>0</asrwt>
<pdfrwt beam="1">  1       21 0.65801059E-02 0.13396434E+03</pdfrwt>
<pdfrwt beam="2">  1        2 0.83622806E-01 0.13396434E+03</pdfrwt>
<totfact> 0.11859683E+05</totfact>
</mgrwt>
</event>
<event>
 6    2  0.1674964E-002  0.1261714E+03  0.7546771E-02  0.1233250E+00
         21   -1    0    0  502  503  0.00000000000E+00  0.00000000000E+00  0.20092908541E+02  0.20092908541E+02  0.00000000000E+00 0. -1.
          2   -1    0    0  503    0 -0.00000000000E+00 -0.00000000000E+00 -0.69817405339E+03  0.69817405339E+03  0.00000000000E+00 0.  1.
         25    2    1    2    0    0  0.14898621587E+02  0.84798668702E+01 -0.17958781114E+03  0.21947895003E+03  0.12500140210E+03 0.  0.
          5    1    3    3  501    0 -0.37819771459E+02  0.76312361275E+01 -0.15776782898E+03  0.16241695952E+03  0.10000000000E+00 0. -1.
         -5    1    3    3    0  501  0.52718393046E+02  0.84863074279E+00 -0.21819982161E+02  0.57061990510E+02  0.10000000000E+00 0. -1.
          2    1    1    2  502    0 -0.14898621587E+02 -0.84798668702E+01 -0.49849333371E+03  0.49878801190E+03  0.00000000000E+00 0.  1.
<mgrwt>
<rscale>  1 0.12617142E+03</rscale>
<asrwt>0</asrwt>
<pdfrwt beam="1">  1       21 0.30912168E-02 0.12617142E+03</pdfrwt>
<pdfrwt beam="2">  1        2 0.10741139E+00 0.12617142E+03</pdfrwt>
<totfact> 0.31417835E+05</totfact>
</mgrwt>
</event>
<event>
 6    2  0.1674964E-002  0.1473514E+03  0.7546771E-02  0.1203766E+00
          3   -1    0    0  503    0 -0.00000000000E+00  0.00000000000E+00  0.43558344702E+02  0.43558344702E+02  0.00000000000E+00 0. -1.
         21   -1    0    0  502  503  0.00000000000E+00 -0.00000000000E+00 -0.10975684096E+04  0.10975684096E+04  0.00000000000E+00 0.  1.
         25    2    1    2    0    0  0.17961282404E+02 -0.75922207923E+02 -0.10528387138E+04  0.10631000834E+04  0.12500256210E+03 0.  0.
          5    1    3    3  501    0  0.59493149291E+02 -0.11423772460E+02 -0.66457223962E+03  0.66732766244E+03  0.10000000000E+00 0.  1.
         -5    1    3    3    0  501 -0.41531866888E+02 -0.64498435463E+02 -0.38826647423E+03  0.39577242091E+03  0.10000000000E+00 0.  1.
          3    1    1    2  502    0 -0.17961282404E+02  0.75922207923E+02 -0.11713510881E+01  0.78026670984E+02  0.00000000000E+00 0. -1.
<mgrwt>
<rscale>  1 0.14735138E+03</rscale>
<asrwt>0</asrwt>
<pdfrwt beam="1">  1       21 0.16885666E+00 0.14735138E+03</pdfrwt>
<pdfrwt beam="2">  1        3 0.67012847E-02 0.14735138E+03</pdfrwt>
<totfact> 0.15376080E+03</totfact>
</mgrwt>
</event>
<event>
 6    2  0.1674964E-002  0.1313945E+03  0.7546771E-02  0.1225401E+00
          1   -1    0    0  503    0 -0.00000000000E+00  0.00000000000E+00  0.63893585991E+03  0.63893585991E+03  0.00000000000E+00 0. -1.
         21   -1    0    0  502  503  0.00000000000E+00 -0.00000000000E+00 -0.87208958340E+02  0.87208958340E+02  0.00000000000E+00 0.  1.
         25    2    1    2    0    0 -0.40167595648E+02 -0.52798120732E+01 -0.36622065120E+02  0.13640265530E+03  0.12499278605E+03 0.  0.
          5    1    3    3  501    0 -0.72640700510E+02  0.16656256417E+02  0.10337790937E+02  0.75239498735E+02  0.10000000000E+00 0.  1.
         -5    1    3    3    0  501  0.32473104862E+02 -0.21936068490E+02 -0.46959856057E+02  0.61163156565E+02  0.10000000000E+00 0.  1.
          1    1    1    2  502    0  0.40167595648E+02  0.52798120732E+01  0.58834896669E+03  0.58974216295E+03  0.00000000000E+00 0. -1.
<mgrwt>
<rscale>  1 0.13139448E+03</rscale>
<asrwt>0</asrwt>
<pdfrwt beam="1">  1       21 0.13416763E-01 0.13139448E+03</pdfrwt>
<pdfrwt beam="2">  1        1 0.98297822E-01 0.13139448E+03</pdfrwt>
<totfact> 0.17351274E+04</totfact>
</mgrwt>
</event>
<event>
 6    2  0.1674964E-002  0.1276886E+03  0.7546771E-02  0.1230926E+00
          2   -1    0    0  503    0 -0.00000000000E+00  0.00000000000E+00  0.16768486156E+03  0.16768486156E+03  0.00000000000E+00 0.  1.
         21   -1    0    0  502  503  0.00000000000E+00 -0.00000000000E+00 -0.87073879281E+02  0.87073879281E+02  0.00000000000E+00 0. -1.
         25    2    1    2    0    0 -0.15197357981E+02  0.21261690589E+02 -0.38063039527E+02  0.13324107699E+03  0.12498548093E+03 0.  0.
          5    1    3    3  501    0  0.25900290727E+02  0.32223454675E+02  0.31314249648E+02  0.51862976408E+02  0.10000000000E+00 0. -1.
         -5    1    3    3    0  501 -0.41097648707E+02 -0.10961764086E+02 -0.69377289175E+02  0.81378100582E+02  0.10000000000E+00 0. -1.
          2    1    1    2  502    0  0.15197357981E+02 -0.21261690589E+02  0.11867402181E+03  0.12151766385E+03  0.00000000000E+00 0.  1.
<mgrwt>
<rscale>  1 0.12768864E+03</rscale>
<asrwt>0</asrwt>
<pdfrwt beam="1">  1       21 0.13395981E-01 0.12768864E+03</pdfrwt>
<pdfrwt beam="2">  1        2 0.25797671E-01 0.12768864E+03</pdfrwt>
<totfact> 0.12116475E+05</totfact>
</mgrwt>
</event>
<event>
 6    2  0.1674964E-002  0.1261871E+03  0.7546771E-02  0.1233226E+00
          2   -1    0    0  503    0 -0.00000000000E+00  0.00000000000E+00  0.95792277686E+03  0.95792277686E+03  0.00000000000E+00 0.  1.
         21   -1    0    0  502  503  0.00000000000E+00 -0.00000000000E+00 -0.15148015655E+02  0.15148015655E+02  0.00000000000E+00 0. -1.
         25    2    1    2    0    0 -0.17267114862E+02  0.53754144234E+00  0.24963329335E+03  0.27971407577E+03  0.12499896329E+03 0.  0.
          5    1    3    3  501    0 -0.44066892606E+02 -0.19153124311E+02  0.24046338135E+03  0.24521700790E+03  0.10000000000E+00 0.  1.
         -5    1    3    3    0  501  0.26799777744E+02  0.19690665753E+02  0.91699120045E+01  0.34497067863E+02  0.10000000000E+00 0.  1.
          2    1    1    2  502    0  0.17267114862E+02 -0.53754144234E+00  0.69314146786E+03  0.69335671675E+03  0.00000000000E+00 0.  1.
<mgrwt>
<rscale>  1 0.12618710E+03</rscale>
<asrwt>0</asrwt>
<pdfrwt beam="1">  1       21 0.23304647E-02 0.12618710E+03</pdfrwt>
<pdfrwt beam="2">  1        2 0.14737269E+00 0.12618710E+03</pdfrwt>
<totfact> 0.33500424E+05</totfact>
</mgrwt>
</event>
<event>
 6    2  0.1674964E-002  0.1270413E+03  0.7546771E-02  0.1231913E+00
          1   -1    0    0  503    0 -0.00000000000E+00  0.00000000000E+00  0.11222448480E+04  0.11222448480E+04  0.00000000000E+00 0. -1.
         21   -1    0    0  502  503  0.00000000000E+00 -0.00000000000E+00 -0.15657205974E+02  0.15657205974E+02  0.00000000000E+00 0. -1.
         25    2    1    2    0    0 -0.21482065533E+02  0.72945004952E+01  0.24467302628E+03  0.27568891692E+03  0.12499920098E+03 0.  0.
          5    1    3    3  501    0 -0.60989503438E+01  0.44532130266E+02  0.22748956675E+03  0.23188751757E+03  0.10000000000E+00 0. -1.
         -5    1    3    3    0  501 -0.15383115189E+02 -0.37237629770E+02  0.17183459527E+02  0.43801399351E+02  0.10000000000E+00 0. -1.
          1    1    1    2  502    0  0.21482065533E+02 -0.72945004952E+01  0.86191461576E+03  0.86221313707E+03  0.00000000000E+00 0. -1.
<mgrwt>
<rscale>  1 0.12704129E+03</rscale>
<asrwt>0</asrwt>
<pdfrwt beam="1">  1       21 0.24088018E-02 0.12704129E+03</pdfrwt>
<pdfrwt beam="2">  1        1 0.17265299E+00 0.12704129E+03</pdfrwt>
<totfact> 0.13262158E+05</totfact>
</mgrwt>
</event>
<event>
 6    2  0.1674964E-002  0.1411761E+03  0.7546771E-02  0.1211755E+00
         21   -1    0    0  502  503  0.00000000000E+00  0.00000000000E+00  0.25099070523E+02  0.25099070523E+02  0.00000000000E+00 0. -1.
          1   -1    0    0  503    0 -0.00000000000E+00 -0.00000000000E+00 -0.13776400245E+04  0.13776400245E+04  0.00000000000E+00 0.  1.
         25    2    1    2    0    0  0.64794821948E+02 -0.10366321887E+02 -0.18188332331E+03  0.23024384223E+03  0.12499941602E+03 0.  0.
          5    1    3    3  501    0  0.77319072133E+02 -0.33965103661E+02 -0.55470921581E+02  0.10103910294E+03  0.10000000000E+00 0.  1.
         -5    1    3    3    0  501 -0.12524250185E+02  0.23598781774E+02 -0.12641240173E+03  0.12920473929E+03  0.10000000000E+00 0.  1.
          1    1    1    2  502    0 -0.64794821948E+02  0.10366321887E+02 -0.11706576307E+04  0.11724952528E+04  0.00000000000E+00 0.  1.
<mgrwt>
<rscale>  1 0.14117607E+03</rscale>
<asrwt>0</asrwt>
<pdfrwt beam="1">  1       21 0.38613952E-02 0.14117607E+03</pdfrwt>
<pdfrwt beam="2">  1        1 0.21194464E+00 0.14117607E+03</pdfrwt>
<totfact> 0.41032293E+04</totfact>
</mgrwt>
</event>
<event>
 6    2  0.1674964E-002  0.1364222E+03  0.7546771E-02  0.1218226E+00
          1   -1    0    0  503    0 -0.00000000000E+00  0.00000000000E+00  0.72218484262E+02  0.72218484262E+02  0.00000000000E+00 0. -1.
         21   -1    0    0  502  503  0.00000000000E+00 -0.00000000000E+00 -0.18513138086E+03  0.18513138086E+03  0.00000000000E+00 0. -1.
         25    2    1    2    0    0 -0.51235395486E+02 -0.19038204075E+02 -0.14074748117E+03  0.19601241275E+03  0.12499397398E+03 0.  0.
          5    1    3    3  501    0 -0.64487731572E+02  0.39250576963E+02 -0.91039072574E+02  0.11826833072E+03  0.10000000000E+00 0.  1.
         -5    1    3    3    0  501  0.13252336086E+02 -0.58288781038E+02 -0.49708408596E+02  0.77744082037E+02  0.10000000000E+00 0.  1.
          1    1    1    2  502    0  0.51235395486E+02  0.19038204075E+02  0.27834584571E+02  0.61337452370E+02  0.00000000000E+00 0. -1.
<mgrwt>
<rscale>  1 0.13642218E+03</rscale>
<asrwt>0</asrwt>
<pdfrwt beam="1">  1       21 0.28481751E-01 0.13642218E+03</pdfrwt>
<pdfrwt beam="2">  1        1 0.11110536E-01 0.13642218E+03</pdfrwt>
<totfact> 0.69292876E+04</totfact>
</mgrwt>
</event>
<event>
 6    2  0.1674964E-002  0.1261686E+03  0.7546771E-02  0.1233254E+00
          1   -1    0    0  503    0 -0.00000000000E+00  0.00000000000E+00  0.53838813726E+03  0.53838813726E+03  0.00000000000E+00 0.  1.
         21   -1    0    0  502  503  0.00000000000E+00 -0.00000000000E+00 -0.66667636481E+02  0.66667636481E+02  0.00000000000E+00 0.  1.
         25    2    1    2    0    0 -0.16257856361E+02  0.51340539533E+01 -0.66859328525E+01  0.12634564000E+03  0.12501137007E+03 0.  0.
          5    1    3    3  501    0  0.10628090971E+02  0.36610551626E+02 -0.52318484549E+02  0.64734246220E+02  0.10000000000E+00 0. -1.
         -5    1    3    3    0  501 -0.26885947332E+02 -0.31476497673E+02  0.45632551697E+02  0.61611393784E+02  0.10000000000E+00 0. -1.
          1    1    1    2  502    0  0.16257856361E+02 -0.51340539533E+01  0.47840643363E+03  0.47871013374E+03  0.00000000000E+00 0.  1.
<mgrwt>
<rscale>  1 0.12616861E+03</rscale>
<asrwt>0</asrwt>
<pdfrwt beam="1">  1       21 0.10256560E-01 0.12616861E+03</pdfrwt>
<pdfrwt beam="2">  1        1 0.82828941E-01 0.12616861E+03</pdfrwt>
<totfact> 0.35179761E+04</totfact>
</mgrwt>
</event>
<event>
 6    2  0.1674964E-002  0.1581902E+03  0.7546771E-02  0.1190755E+00
          2   -1    0    0  503    0 -0.00000000000E+00  0.00000000000E+00  0.20978925416E+04  0.20978925416E+04  0.00000000000E+00 0. -1.
         21   -1    0    0  502  503  0.00000000000E+00 -0.00000000000E+00 -0.80413645191E+03  0.80413645191E+03  0.00000000000E+00 0.  1.
         25    2    1    2    0    0  0.22668317271E+02  0.94349423523E+02 -0.79521949861E+03  0.81080096318E+03  0.12493392086E+03 0.  0.
          5    1    3    3  501    0  0.10423583094E+02  0.88398846772E+02 -0.24933939496E+03  0.26475111156E+03  0.10000000000E+00 0. -1.
         -5    1    3    3    0  501  0.12244734177E+02  0.59505767505E+01 -0.54588010366E+03  0.54604985161E+03  0.10000000000E+00 0. -1.
          2    1    1    2  502    0 -0.22668317271E+02 -0.94349423523E+02  0.20889755883E+04  0.20912280303E+04  0.00000000000E+00 0. -1.
<mgrwt>
<rscale>  1 0.15819024E+03</rscale>
<asrwt>0</asrwt>
<pdfrwt beam="1">  1       21 0.12371330E+00 0.15819024E+03</pdfrwt>
<pdfrwt beam="2">  1        2 0.32275270E+00 0.15819024E+03</pdfrwt>
<totfact> 0.43849331E+01</totfact>
</mgrwt>
</event>
<event>
 6    2  0.1674964E-002  0.1294938E+03  0.7546771E-02  0.1228209E+00
          1   -1    0    0  503    0 -0.00000000000E+00  0.00000000000E+00  0.49583086297E+03  0.49583086297E+03  0.00000000000E+00 0. -1.
         21   -1    0    0  502  503  0.00000000000E+00 -0.00000000000E+00 -0.13485326673E+02  0.13485326673E+02  0.00000000000E+00 0. -1.
         25    2    1    2    0    0  0.33179570973E+02  0.65107670792E+01  0.37099862224E+03  0.39294862849E+03  0.12500149164E+03 0.  0.
          5    1    3    3  501    0 -0.43416848360E+02 -0.15714261008E+02  0.94500120373E+02  0.10517720034E+03  0.10000000000E+00 0.  1.
         -5    1    3    3    0  501  0.76596419333E+02  0.22225028088E+02  0.27649850186E+03  0.28777142815E+03  0.10000000000E+00 0.  1.
          1    1    1    2  502    0 -0.33179570973E+02 -0.65107670792E+01  0.11134691406E+03  0.11636756115E+03  0.00000000000E+00 0. -1.
<mgrwt>
<rscale>  1 0.12949381E+03</rscale>
<asrwt>0</asrwt>
<pdfrwt beam="1">  1       21 0.20746660E-02 0.12949381E+03</pdfrwt>
<pdfrwt beam="2">  1        1 0.76281657E-01 0.12949381E+03</pdfrwt>
<totfact> 0.57125238E+05</totfact>
</mgrwt>
</event>
<event>
 6    2  0.1674964E-002  0.1401848E+03  0.7546771E-02  0.1213080E+00
         21   -1    0    0  502  503  0.00000000000E+00  0.00000000000E+00  0.26278672805E+02  0.26278672805E+02  0.00000000000E+00 0.  1.
          4   -1    0    0  503    0 -0.00000000000E+00 -0.00000000000E+00 -0.47746829751E+03  0.47746829751E+03  0.00000000000E+00 0.  1.
         25    2    1    2    0    0  0.61479147830E+02  0.15716004937E+02 -0.19719461496E+03  0.24194524495E+03  0.12500042782E+03 0.  0.
          5    1    3    3  501    0 -0.19198729764E+02  0.21537642967E+02 -0.13984356180E+03  0.14278898090E+03  0.10000000000E+00 0. -1.
         -5    1    3    3    0  501  0.80677877594E+02 -0.58216380295E+01 -0.57351053164E+02  0.99156264055E+02  0.10000000000E+00 0. -1.
          4    1    1    2  502    0 -0.61479147830E+02 -0.15716004937E+02 -0.25399500974E+03  0.26180172536E+03  0.00000000000E+00 0.  1.
<mgrwt>
<rscale>  1 0.14018483E+03</rscale>
<asrwt>0</asrwt>
<pdfrwt beam="1">  1       21 0.40428729E-02 0.14018483E+03</pdfrwt>
<pdfrwt beam="2">  1        4 0.73456658E-01 0.14018483E+03</pdfrwt>
<totfact> 0.26896570E+04</totfact>
</mgrwt>
</event>
<event>
 6    2  0.1674964E-002  0.1267013E+03  0.7546771E-02  0.1232434E+00
          2   -1    0    0  503    0 -0.00000000000E+00  0.00000000000E+00  0.33924774278E+03  0.33924774278E+03  0.00000000000E+00 0. -1.
         21   -1    0    0  502  503  0.00000000000E+00 -0.00000000000E+00 -0.39250737651E+02  0.39250737651E+02  0.00000000000E+00 0. -1.
         25    2    1    2    0    0  0.91494779523E+01  0.18471274092E+02  0.64634716667E+02  0.14223526335E+03  0.12501328981E+03 0.  0.
          5    1    3    3  501    0 -0.25696559452E+02  0.86215834197E+01 -0.30285017627E+02  0.40642799621E+02  0.10000000000E+00 0.  1.
         -5    1    3    3    0  501  0.34846037404E+02  0.98496906728E+01  0.94919734294E+02  0.10159246373E+03  0.10000000000E+00 0.  1.
          2    1    1    2  502    0 -0.91494779523E+01 -0.18471274092E+02  0.23536228846E+03  0.23626321707E+03  0.00000000000E+00 0. -1.
<mgrwt>
<rscale>  1 0.12670132E+03</rscale>
<asrwt>0</asrwt>
<pdfrwt beam="1">  1       21 0.60385752E-02 0.12670132E+03</pdfrwt>
<pdfrwt beam="2">  1        2 0.52191959E-01 0.12670132E+03</pdfrwt>
<totfact> 0.22766706E+05</totfact>
</mgrwt>
</event>
<event>
 6    2  0.1674964E-002  0.1511469E+03  0.7546771E-02  0.1199071E+00
          2   -1    0    0  503    0 -0.00000000000E+00  0.00000000000E+00  0.73431565264E+03  0.73431565264E+03  0.00000000000E+00 0.  1.
         21   -1    0    0  502  503  0.00000000000E+00 -0.00000000000E+00 -0.23786562991E+02  0.23786562991E+02  0.00000000000E+00 0. -1.
         25    2    1    2    0    0  0.61305630173E+02 -0.58843259540E+02  0.26977373050E+03  0.30923007782E+03  0.12499786349E+03 0.  0.
          5    1    3    3  501    0  0.75867602844E+01 -0.89105992067E+02  0.16400053484E+03  0.18679834630E+03  0.10000000000E+00 0.  1.
         -5    1    3    3    0  501  0.53718869889E+02  0.30262732527E+02  0.10577319566E+03  0.12243173152E+03  0.10000000000E+00 0.  1.
          2    1    1    2  502    0 -0.61305630173E+02  0.58843259540E+02  0.44075535915E+03  0.44887213781E+03  0.00000000000E+00 0.  1.
<mgrwt>
<rscale>  1 0.15114687E+03</rscale>
<asrwt>0</asrwt>
<pdfrwt beam="1">  1       21 0.36594718E-02 0.15114687E+03</pdfrwt>
<pdfrwt beam="2">  1        2 0.11297162E+00 0.15114687E+03</pdfrwt>
<totfact> 0.22551475E+05</totfact>
</mgrwt>
</event>
<event>
 6    2  0.1674964E-002  0.1323551E+03  0.7546771E-02  0.1224003E+00
          2   -1    0    0  503    0 -0.00000000000E+00  0.00000000000E+00  0.55543239182E+03  0.55543239182E+03  0.00000000000E+00 0.  1.
         21   -1    0    0  502  503  0.00000000000E+00 -0.00000000000E+00 -0.32967840132E+02  0.32967840132E+02  0.00000000000E+00 0. -1.
         25    2    1    2    0    0 -0.32777777416E+02  0.28641736727E+02  0.10573659648E+03  0.16940510021E+03  0.12499251324E+03 0.  0.
          5    1    3    3  501    0  0.84687608969E+01 -0.21150051393E+02  0.10213808053E+03  0.10464818240E+03  0.10000000000E+00 0.  1.
         -5    1    3    3    0  501 -0.41246538313E+02  0.49791788121E+02  0.35985159521E+01  0.64756917809E+02  0.10000000000E+00 0.  1.
          2    1    1    2  502    0  0.32777777416E+02 -0.28641736727E+02  0.41672795520E+03  0.41899513174E+03  0.00000000000E+00 0.  1.
<mgrwt>
<rscale>  1 0.13235505E+03</rscale>
<asrwt>0</asrwt>
<pdfrwt beam="1">  1       21 0.50719758E-02 0.13235505E+03</pdfrwt>
<pdfrwt beam="2">  1        2 0.85451130E-01 0.13235505E+03</pdfrwt>
<totfact> 0.17985037E+05</totfact>
</mgrwt>
</event>
<event>
 6    2  0.1674964E-002  0.1432987E+03  0.7546771E-02  0.1208958E+00
         21   -1    0    0  502  503  0.00000000000E+00  0.00000000000E+00  0.33841393260E+02  0.33841393260E+02  0.00000000000E+00 0. -1.
          4   -1    0    0  503    0 -0.00000000000E+00 -0.00000000000E+00 -0.73465066731E+03  0.73465066731E+03  0.00000000000E+00 0.  1.
         25    2    1    2    0    0 -0.69575926812E+02  0.83201918777E+01 -0.13025636632E+03  0.19365238231E+03  0.12499795607E+03 0.  0.
          5    1    3    3  501    0  0.18979564270E+02  0.26135423868E+02  0.32451484449E+01  0.32462674398E+02  0.10000000000E+00 0. -1.
         -5    1    3    3    0  501 -0.88555491082E+02 -0.17815231990E+02 -0.13350151477E+03  0.16118970791E+03  0.10000000000E+00 0. -1.
          4    1    1    2  502    0  0.69575926812E+02 -0.83201918777E+01 -0.57055290773E+03  0.57483967826E+03  0.00000000000E+00 0.  1.
<mgrwt>
<rscale>  1 0.14329872E+03</rscale>
<asrwt>0</asrwt>
<pdfrwt beam="1">  1       21 0.52063685E-02 0.14329872E+03</pdfrwt>
<pdfrwt beam="2">  1        4 0.11302317E+00 0.14329872E+03</pdfrwt>
<totfact> 0.66271473E+03</totfact>
</mgrwt>
</event>
<event>
 6    2  0.1674964E-002  0.1361520E+03  0.7546771E-02  0.1218603E+00
         21   -1    0    0  502  503  0.00000000000E+00  0.00000000000E+00  0.11573319522E+02  0.11573319522E+02  0.00000000000E+00 0.  1.
          2   -1    0    0  503    0 -0.00000000000E+00 -0.00000000000E+00 -0.84970815603E+03  0.84970815603E+03  0.00000000000E+00 0.  1.
         25    2    1    2    0    0 -0.49981125504E+02  0.20382590785E+02 -0.47396295724E+03  0.49313107074E+03  0.12499522062E+03 0.  0.
          5    1    3    3  501    0 -0.49276332630E+02 -0.17374153480E+01 -0.56125110790E+02  0.74707520577E+02  0.10000000000E+00 0.  1.
         -5    1    3    3    0  501 -0.70479287394E+00  0.22120006133E+02 -0.41783784645E+03  0.41842355016E+03  0.10000000000E+00 0.  1.
          2    1    1    2  502    0  0.49981125504E+02 -0.20382590785E+02 -0.36417187927E+03  0.36815040481E+03  0.00000000000E+00 0.  1.
<mgrwt>
<rscale>  1 0.13615200E+03</rscale>
<asrwt>0</asrwt>
<pdfrwt beam="1">  1       21 0.17805104E-02 0.13615200E+03</pdfrwt>
<pdfrwt beam="2">  1        2 0.13072436E+00 0.13615200E+03</pdfrwt>
<totfact> 0.60748683E+05</totfact>
</mgrwt>
</event>
<event>
 6    2  0.1674964E-002  0.1263738E+03  0.7546771E-02  0.1232938E+00
         21   -1    0    0  502  503  0.00000000000E+00  0.00000000000E+00  0.28720241785E+02  0.28720241785E+02  0.00000000000E+00 0. -1.
          1   -1    0    0  503    0 -0.00000000000E+00 -0.00000000000E+00 -0.52290956748E+03  0.52290956748E+03  0.00000000000E+00 0. -1.
         25    2    1    2    0    0  0.11751594875E+02 -0.14329407310E+02 -0.11161461977E+03  0.16860652341E+03  0.12500761774E+03 0.  0.
          5    1    3    3  501    0  0.50915471007E+02  0.30164828381E+02 -0.85139936935E+02  0.10368761218E+03  0.10000000000E+00 0.  1.
         -5    1    3    3    0  501 -0.39163876132E+02 -0.44494235691E+02 -0.26474682838E+02  0.64918911226E+02  0.10000000000E+00 0.  1.
          1    1    1    2  502    0 -0.11751594875E+02  0.14329407310E+02 -0.38257470592E+03  0.38302328585E+03  0.00000000000E+00 0. -1.
<mgrwt>
<rscale>  1 0.12637380E+03</rscale>
<asrwt>0</asrwt>
<pdfrwt beam="1">  1       21 0.44184989E-02 0.12637380E+03</pdfrwt>
<pdfrwt beam="2">  1        1 0.80447622E-01 0.12637380E+03</pdfrwt>
<totfact> 0.15393287E+05</totfact>
</mgrwt>
</event>
<event>
 6    2  0.1674964E-002  0.1373814E+03  0.7546771E-02  0.1216897E+00
          3   -1    0    0  503    0 -0.00000000000E+00  0.00000000000E+00  0.14039810855E+02  0.14039810855E+02  0.00000000000E+00 0. -1.
         21   -1    0    0  502  503  0.00000000000E+00 -0.00000000000E+00 -0.71726927764E+03  0.71726927764E+03  0.00000000000E+00 0. -1.
         25    2    1    2    0    0  0.53230670964E+02 -0.20365955357E+02 -0.40454631192E+03  0.42723688742E+03  0.12500145204E+03 0.  0.
          5    1    3    3  501    0  0.24666434236E+02 -0.63961838443E+02 -0.12215885281E+03  0.14007978110E+03  0.10000000000E+00 0.  1.
         -5    1    3    3    0  501  0.28564236728E+02  0.43595883086E+02 -0.28238745911E+03  0.28715710631E+03  0.10000000000E+00 0.  1.
          3    1    1    2  502    0 -0.53230670964E+02  0.20365955357E+02 -0.29868315486E+03  0.30407220108E+03  0.00000000000E+00 0. -1.
<mgrwt>
<rscale>  1 0.13738137E+03</rscale>
<asrwt>0</asrwt>
<pdfrwt beam="1">  1       21 0.11034911E+00 0.13738137E+03</pdfrwt>
<pdfrwt beam="2">  1        3 0.21599710E-02 0.13738137E+03</pdfrwt>
<totfact> 0.26598197E+04</totfact>
</mgrwt>
</event>
<event>
 6    2  0.1674964E-002  0.1306304E+03  0.7546771E-02  0.1226523E+00
          2   -1    0    0  503    0 -0.00000000000E+00  0.00000000000E+00  0.12945123465E+04  0.12945123465E+04  0.00000000000E+00 0.  1.
         21   -1    0    0  502  503  0.00000000000E+00 -0.00000000000E+00 -0.68140560980E+01  0.68140560980E+01  0.00000000000E+00 0. -1.
         25    2    1    2    0    0 -0.24937237842E+02 -0.28604112597E+02  0.67932539628E+03  0.69177112259E+03  0.12499692366E+03 0.  0.
          5    1    3    3  501    0 -0.85879807181E+01 -0.76567634016E+02  0.33562005230E+03  0.34435038188E+03  0.10000000000E+00 0. -1.
         -5    1    3    3    0  501 -0.16349257123E+02  0.47963521419E+02  0.34370534398E+03  0.34742074071E+03  0.10000000000E+00 0. -1.
          2    1    1    2  502    0  0.24937237842E+02  0.28604112597E+02  0.60837289416E+03  0.60955528005E+03  0.00000000000E+00 0.  1.
<mgrwt>
<rscale>  1 0.13063036E+03</rscale>
<asrwt>0</asrwt>
<pdfrwt beam="1">  1       21 0.10483173E-02 0.13063036E+03</pdfrwt>
<pdfrwt beam="2">  1        2 0.19915555E+00 0.13063036E+03</pdfrwt>
<totfact> 0.77531674E+05</totfact>
</mgrwt>
</event>
<event>
 6    2  0.1674964E-002  0.1446886E+03  0.7546771E-02  0.1207156E+00
          4   -1    0    0  503    0 -0.00000000000E+00  0.00000000000E+00  0.73706090603E+03  0.73706090603E+03  0.00000000000E+00 0.  1.
         21   -1    0    0  502  503  0.00000000000E+00 -0.00000000000E+00 -0.90054944328E+03  0.90054944328E+03  0.00000000000E+00 0.  1.
         25    2    1    2    0    0  0.71944456546E+02  0.11620995367E+02 -0.89291025467E+03  0.90455708098E+03  0.12499494990E+03 0.  0.
          5    1    3    3  501    0 -0.80890224002E+00 -0.92828245846E+01 -0.92355278697E+00  0.93641926963E+01  0.10000000000E+00 0.  1.
         -5    1    3    3    0  501  0.72753358786E+02  0.20903819952E+02 -0.89198670188E+03  0.89519288829E+03  0.10000000000E+00 0.  1.
          4    1    1    2  502    0 -0.71944456546E+02 -0.11620995367E+02  0.72942171742E+03  0.73305326833E+03  0.00000000000E+00 0.  1.
<mgrwt>
<rscale>  1 0.14468860E+03</rscale>
<asrwt>0</asrwt>
<pdfrwt beam="1">  1       21 0.13854607E+00 0.14468860E+03</pdfrwt>
<pdfrwt beam="2">  1        4 0.11339399E+00 0.14468860E+03</pdfrwt>
<totfact> 0.10123954E+01</totfact>
</mgrwt>
</event>
<event>
 6    2  0.1674964E-002  0.1271548E+03  0.7546771E-02  0.1231740E+00
         21   -1    0    0  502  503  0.00000000000E+00  0.00000000000E+00  0.79580981374E+02  0.79580981374E+02  0.00000000000E+00 0.  1.
          1   -1    0    0  503    0 -0.00000000000E+00 -0.00000000000E+00 -0.36112136828E+03  0.36112136828E+03  0.00000000000E+00 0.  1.
         25    2    1    2    0    0  0.24130295549E+01  0.23172598568E+02  0.28070304436E+02  0.13021632383E+03  0.12500222784E+03 0.  0.
          5    1    3    3  501    0 -0.81016564696E+01  0.58737823668E+02 -0.25922664864E+02  0.64712930087E+02  0.10000000000E+00 0.  1.
         -5    1    3    3    0  501  0.10514686025E+02 -0.35565225100E+02  0.53992969300E+02  0.65503393748E+02  0.10000000000E+00 0.  1.
          1    1    1    2  502    0 -0.24130295549E+01 -0.23172598568E+02 -0.30961069134E+03  0.31048602582E+03  0.00000000000E+00 0.  1.
<mgrwt>
<rscale>  1 0.12715482E+03</rscale>
<asrwt>0</asrwt>
<pdfrwt beam="1">  1       21 0.12243228E-01 0.12715482E+03</pdfrwt>
<pdfrwt beam="2">  1        1 0.55557135E-01 0.12715482E+03</pdfrwt>
<totfact> 0.42881636E+04</totfact>
</mgrwt>
</event>
<event>
 6    2  0.1674964E-002  0.1822741E+03  0.7546771E-02  0.1165620E+00
         21   -1    0    0  502  503  0.00000000000E+00  0.00000000000E+00  0.20913841830E+02  0.20913841830E+02  0.00000000000E+00 0. -1.
          2   -1    0    0  503    0 -0.00000000000E+00 -0.00000000000E+00 -0.13687780778E+04  0.13687780778E+04  0.00000000000E+00 0. -1.
         25    2    1    2    0    0  0.58847390353E+02 -0.11889315932E+03 -0.10173267173E+04  0.10335267193E+04  0.12500092429E+03 0.  0.
          5    1    3    3  501    0  0.49389241243E+02 -0.76673270439E+02 -0.94393535531E+03  0.94833119350E+03  0.10000000000E+00 0. -1.
         -5    1    3    3    0  501  0.94581491102E+01 -0.42219888881E+02 -0.73391362014E+02  0.85195525822E+02  0.10000000000E+00 0. -1.
          2    1    1    2  502    0 -0.58847390353E+02  0.11889315932E+03 -0.33053751868E+03  0.35616520035E+03  0.00000000000E+00 0. -1.
<mgrwt>
<rscale>  1 0.18227405E+03</rscale>
<asrwt>0</asrwt>
<pdfrwt beam="1">  1       21 0.32175138E-02 0.18227405E+03</pdfrwt>
<pdfrwt beam="2">  1        2 0.21058126E+00 0.18227405E+03</pdfrwt>
<totfact> 0.11625386E+05</totfact>
</mgrwt>
</event>
<event>
 6    2  0.1674964E-002  0.1275400E+03  0.7546771E-02  0.1231152E+00
         21   -1    0    0  502  503  0.00000000000E+00  0.00000000000E+00  0.51340235394E+01  0.51340235394E+01  0.00000000000E+00 0.  1.
          1   -1    0    0  503    0 -0.00000000000E+00 -0.00000000000E+00 -0.14122024356E+04  0.14122024356E+04  0.00000000000E+00 0.  1.
         25    2    1    2    0    0 -0.17429898404E+02 -0.18375241386E+02 -0.83277161724E+03  0.84248146925E+03  0.12500003481E+03 0.  0.
          5    1    3    3  501    0 -0.48182460221E+02  0.28778407854E+01 -0.12927367441E+03  0.13799102992E+03  0.10000000000E+00 0.  1.
         -5    1    3    3    0  501  0.30752561818E+02 -0.21253082172E+02 -0.70349794282E+03  0.70449043934E+03  0.10000000000E+00 0.  1.
          1    1    1    2  502    0  0.17429898404E+02  0.18375241386E+02 -0.57429679484E+03  0.57485498990E+03  0.00000000000E+00 0.  1.
<mgrwt>
<rscale>  1 0.12754003E+03</rscale>
<asrwt>0</asrwt>
<pdfrwt beam="1">  1       21 0.78984873E-03 0.12754003E+03</pdfrwt>
<pdfrwt beam="2">  1        1 0.21726220E+00 0.12754003E+03</pdfrwt>
<totfact> 0.49986293E+05</totfact>
</mgrwt>
</event>
<event>
 6    2  0.1674964E-002  0.1759282E+03  0.7546771E-02  0.1171803E+00
         21   -1    0    0  502  503  0.00000000000E+00  0.00000000000E+00  0.12017218917E+04  0.12017218917E+04  0.00000000000E+00 0.  1.
          2   -1    0    0  503    0 -0.00000000000E+00 -0.00000000000E+00 -0.25685827679E+02  0.25685827679E+02  0.00000000000E+00 0. -1.
         25    2    1    2    0    0 -0.23154067189E+02  0.12161797993E+03  0.97917389532E+03  0.99485287137E+03  0.12499469802E+03 0.  0.
          5    1    3    3  501    0 -0.26848704610E+02 -0.20368513189E+02  0.20678312550E+03  0.20951133683E+03  0.10000000000E+00 0. -1.
         -5    1    3    3    0  501  0.36946374218E+01  0.14198649312E+03  0.77239076982E+03  0.78534153455E+03  0.10000000000E+00 0. -1.
          2    1    1    2  502    0  0.23154067189E+02 -0.12161797993E+03  0.19686216875E+03  0.23255484805E+03  0.00000000000E+00 0. -1.
<mgrwt>
<rscale>  1 0.17592816E+03</rscale>
<asrwt>0</asrwt>
<pdfrwt beam="1">  1       21 0.18488025E+00 0.17592816E+03</pdfrwt>
<pdfrwt beam="2">  1        2 0.39516667E-02 0.17592816E+03</pdfrwt>
<totfact> 0.43743560E+03</totfact>
</mgrwt>
</event>
<event>
 6    2  0.1674964E-002  0.1294749E+03  0.7546771E-02  0.1228237E+00
         21   -1    0    0  502  503  0.00000000000E+00  0.00000000000E+00  0.14064458475E+02  0.14064458475E+02  0.00000000000E+00 0. -1.
          2   -1    0    0  503    0 -0.00000000000E+00 -0.00000000000E+00 -0.76683276512E+03  0.76683276512E+03  0.00000000000E+00 0.  1.
         25    2    1    2    0    0  0.18817861062E+02  0.28013929660E+02 -0.29841807578E+03  0.32529539696E+03  0.12499942071E+03 0.  0.
          5    1    3    3  501    0 -0.12152009592E+02 -0.92102867256E+00  0.88856840461E+01  0.15082606270E+02  0.10000000000E+00 0. -1.
         -5    1    3    3    0  501  0.30969870653E+02  0.28934958333E+02 -0.30730375983E+03  0.31021279069E+03  0.10000000000E+00 0. -1.
          2    1    1    2  502    0 -0.18817861062E+02 -0.28013929660E+02 -0.45435023086E+03  0.45560182664E+03  0.00000000000E+00 0.  1.
<mgrwt>
<rscale>  1 0.12947489E+03</rscale>
<asrwt>0</asrwt>
<pdfrwt beam="1">  1       21 0.21637632E-02 0.12947489E+03</pdfrwt>
<pdfrwt beam="2">  1        2 0.11797425E+00 0.12947489E+03</pdfrwt>
<totfact> 0.50267908E+05</totfact>
</mgrwt>
</event>
<event>
 6    2  0.1674964E-002  0.1266543E+03  0.7546771E-02  0.1232506E+00
         21   -1    0    0  502  503  0.00000000000E+00  0.00000000000E+00  0.10397976932E+03  0.10397976932E+03  0.00000000000E+00 0. -1.
          1   -1    0    0  503    0 -0.00000000000E+00 -0.00000000000E+00 -0.19746532871E+03  0.19746532871E+03  0.00000000000E+00 0. -1.
         25    2    1    2    0    0  0.20313311414E+02 -0.17668493641E+01  0.64511746609E+02  0.14213753048E+03  0.12500223895E+03 0.  0.
          5    1    3    3  501    0  0.63811683125E+02  0.36778972200E+01  0.73481917469E+02  0.97391272844E+02  0.10000000000E+00 0.  1.
         -5    1    3    3    0  501 -0.43498371711E+02 -0.54447465841E+01 -0.89701708600E+01  0.44746257633E+02  0.10000000000E+00 0.  1.
          1    1    1    2  502    0 -0.20313311414E+02  0.17668493641E+01 -0.15799730600E+03  0.15930756755E+03  0.00000000000E+00 0. -1.
<mgrwt>
<rscale>  1 0.12665430E+03</rscale>
<asrwt>0</asrwt>
<pdfrwt beam="1">  1       21 0.15996888E-01 0.12665430E+03</pdfrwt>
<pdfrwt beam="2">  1        1 0.30379281E-01 0.12665430E+03</pdfrwt>
<totfact> 0.56020821E+04</totfact>
</mgrwt>
</event>
<event>
 6    2  0.1674964E-002  0.1273625E+03  0.7546771E-02  0.1231423E+00
         21   -1    0    0  502  503  0.00000000000E+00  0.00000000000E+00  0.13386661450E+02  0.13386661450E+02  0.00000000000E+00 0. -1.
          2   -1    0    0  503    0 -0.00000000000E+00 -0.00000000000E+00 -0.17131784687E+04  0.17131784687E+04  0.00000000000E+00 0. -1.
         25    2    1    2    0    0  0.12352167082E+02 -0.21049730672E+02 -0.29206807300E+03  0.31862984074E+03  0.12500219579E+03 0.  0.
          5    1    3    3  501    0  0.56059072147E+01 -0.35978782823E+01  0.12139540094E+02  0.13847359226E+02  0.10000000000E+00 0. -1.
         -5    1    3    3    0  501  0.67462598675E+01 -0.17451852390E+02 -0.30420761309E+03  0.30478248151E+03  0.10000000000E+00 0. -1.
          2    1    1    2  502    0 -0.12352167082E+02  0.21049730672E+02 -0.14077237343E+04  0.14079352894E+04  0.00000000000E+00 0. -1.
<mgrwt>
<rscale>  1 0.12736254E+03</rscale>
<asrwt>0</asrwt>
<pdfrwt beam="1">  1       21 0.20594855E-02 0.12736254E+03</pdfrwt>
<pdfrwt beam="2">  1        2 0.26356603E+00 0.12736254E+03</pdfrwt>
<totfact> 0.15956469E+05</totfact>
</mgrwt>
</event>
<event>
 6    2  0.1674964E-002  0.1420535E+03  0.7546771E-02  0.1210592E+00
         21   -1    0    0  502  503  0.00000000000E+00  0.00000000000E+00  0.20642492368E+04  0.20642492368E+04  0.00000000000E+00 0.  1.
          4   -1    0    0  503    0 -0.00000000000E+00 -0.00000000000E+00 -0.46562048030E+02  0.46562048030E+02  0.00000000000E+00 0.  1.
         25    2    1    2    0    0  0.24661306930E+02  0.62823540465E+02  0.20359450113E+04  0.20408947247E+04  0.12499684320E+03 0.  0.
          5    1    3    3  501    0  0.66369903635E+00  0.48558549411E+02  0.24683380261E+03  0.25156571572E+03  0.10000000000E+00 0. -1.
         -5    1    3    3    0  501  0.23997607893E+02  0.14264991054E+02  0.17891112087E+04  0.17893290090E+04  0.10000000000E+00 0. -1.
          4    1    1    2  502    0 -0.24661306930E+02 -0.62823540465E+02 -0.18257822568E+02  0.69916560133E+02  0.00000000000E+00 0.  1.
<mgrwt>
<rscale>  1 0.14205347E+03</rscale>
<asrwt>0</asrwt>
<pdfrwt beam="1">  1       21 0.31757673E+00 0.14205347E+03</pdfrwt>
<pdfrwt beam="2">  1        4 0.71633936E-02 0.14205347E+03</pdfrwt>
<totfact> 0.15716821E+02</totfact>
</mgrwt>
</event>
<event>
 6    2  0.1674964E-002  0.1264665E+03  0.7546771E-02  0.1232795E+00
          4   -1    0    0  503    0 -0.00000000000E+00  0.00000000000E+00  0.77838357295E+03  0.77838357295E+03  0.00000000000E+00 0.  1.
         21   -1    0    0  502  503  0.00000000000E+00 -0.00000000000E+00 -0.12295771697E+02  0.12295771697E+02  0.00000000000E+00 0.  1.
         25    2    1    2    0    0 -0.10669204184E+01  0.19192505839E+02  0.31864966665E+03  0.34282850464E+03  0.12499713172E+03 0.  0.
          5    1    3    3  501    0 -0.24352696255E+02  0.63933006562E+02  0.23859565169E+03  0.24821035061E+03  0.10000000000E+00 0.  1.
         -5    1    3    3    0  501  0.23285775836E+02 -0.44740500723E+02  0.80054014962E+02  0.94618154034E+02  0.10000000000E+00 0.  1.
          4    1    1    2  502    0  0.10669204184E+01 -0.19192505839E+02  0.44743813460E+03  0.44785084000E+03  0.00000000000E+00 0.  1.
<mgrwt>
<rscale>  1 0.12646649E+03</rscale>
<asrwt>0</asrwt>
<pdfrwt beam="1">  1       21 0.18916578E-02 0.12646649E+03</pdfrwt>
<pdfrwt beam="2">  1        4 0.11975128E+00 0.12646649E+03</pdfrwt>
<totfact> 0.30193429E+04</totfact>
</mgrwt>
</event>
<event>
 6    2  0.1674964E-002  0.1264508E+03  0.7546771E-02  0.1232819E+00
          2   -1    0    0  503    0 -0.00000000000E+00  0.00000000000E+00  0.15314549317E+04  0.15314549317E+04  0.00000000000E+00 0.  1.
         21   -1    0    0  502  503  0.00000000000E+00 -0.00000000000E+00 -0.54440878361E+01  0.54440878361E+01  0.00000000000E+00 0.  1.
         25    2    1    2    0    0  0.13803531444E+02 -0.13186264893E+02  0.74502226130E+03  0.75567716810E+03  0.12500158998E+03 0.  0.
          5    1    3    3  501    0  0.21277154122E+02 -0.42733130954E+02  0.69807042520E+03  0.69970076912E+03  0.10000000000E+00 0.  1.
         -5    1    3    3    0  501 -0.74736226777E+01  0.29546866061E+02  0.46951836105E+02  0.55976398987E+02  0.10000000000E+00 0.  1.
          2    1    1    2  502    0 -0.13803531444E+02  0.13186264893E+02  0.78098858253E+03  0.78122185140E+03  0.00000000000E+00 0.  1.
<mgrwt>
<rscale>  1 0.12645083E+03</rscale>
<asrwt>0</asrwt>
<pdfrwt beam="1">  1       21 0.83755319E-03 0.12645083E+03</pdfrwt>
<pdfrwt beam="2">  1        2 0.23560811E+00 0.12645083E+03</pdfrwt>
<totfact> 0.82659571E+05</totfact>
</mgrwt>
</event>
<event>
 6    2  0.1674964E-002  0.1288481E+03  0.7546771E-02  0.1229175E+00
          2   -1    0    0  503    0 -0.00000000000E+00  0.00000000000E+00  0.82621812181E+03  0.82621812181E+03  0.00000000000E+00 0.  1.
         21   -1    0    0  502  503  0.00000000000E+00 -0.00000000000E+00 -0.13605522106E+02  0.13605522106E+02  0.00000000000E+00 0.  1.
         25    2    1    2    0    0  0.22966110188E+02  0.21210610568E+02  0.30306352746E+03  0.32931645568E+03  0.12499797633E+03 0.  0.
          5    1    3    3  501    0  0.34535631490E+01 -0.45443750543E+02  0.53555248246E+02  0.70322373228E+02  0.10000000000E+00 0. -1.
         -5    1    3    3    0  501  0.19512547039E+02  0.66654361111E+02  0.24950827922E+03  0.25899408245E+03  0.10000000000E+00 0. -1.
          2    1    1    2  502    0 -0.22966110188E+02 -0.21210610568E+02  0.50954907224E+03  0.51050718824E+03  0.00000000000E+00 0.  1.
<mgrwt>
<rscale>  1 0.12884807E+03</rscale>
<asrwt>0</asrwt>
<pdfrwt beam="1">  1       21 0.20931579E-02 0.12884807E+03</pdfrwt>
<pdfrwt beam="2">  1        2 0.12711044E+00 0.12884807E+03</pdfrwt>
<totfact> 0.48344411E+05</totfact>
</mgrwt>
</event>
<event>
 6    2  0.1674964E-002  0.1387658E+03  0.7546771E-02  0.1214999E+00
          2   -1    0    0  503    0 -0.00000000000E+00  0.00000000000E+00  0.76209258597E+02  0.76209258597E+02  0.00000000000E+00 0. -1.
         21   -1    0    0  502  503  0.00000000000E+00 -0.00000000000E+00 -0.49230290881E+03  0.49230290881E+03  0.00000000000E+00 0.  1.
         25    2    1    2    0    0 -0.31953136641E+02 -0.50958104045E+02 -0.46857292704E+03  0.48868857563E+03  0.12505280761E+03 0.  0.
          5    1    3    3  501    0 -0.66279679800E+02 -0.25179573977E+02 -0.40990694323E+03  0.41599365260E+03  0.10000000000E+00 0.  1.
         -5    1    3    3    0  501  0.34326543159E+02 -0.25778530069E+02 -0.58665983810E+02  0.72694923029E+02  0.10000000000E+00 0.  1.
          2    1    1    2  502    0  0.31953136641E+02  0.50958104045E+02  0.52479276819E+02  0.79823591779E+02  0.00000000000E+00 0. -1.
<mgrwt>
<rscale>  1 0.13876576E+03</rscale>
<asrwt>0</asrwt>
<pdfrwt beam="1">  1       21 0.75738912E-01 0.13876576E+03</pdfrwt>
<pdfrwt beam="2">  1        2 0.11724501E-01 0.13876576E+03</pdfrwt>
<totfact> 0.10022415E+04</totfact>
</mgrwt>
</event>
<event>
 6    2  0.1674964E-002  0.1564165E+03  0.7546771E-02  0.1192803E+00
          2   -1    0    0  503    0 -0.00000000000E+00  0.00000000000E+00  0.60620481170E+03  0.60620481170E+03  0.00000000000E+00 0.  1.
         21   -1    0    0  502  503  0.00000000000E+00 -0.00000000000E+00 -0.12826387351E+03  0.12826387351E+03  0.00000000000E+00 0. -1.
         25    2    1    2    0    0  0.71637943821E+02  0.60889211080E+02 -0.75087145264E+02  0.17350562750E+03  0.12500652931E+03 0.  0.
          5    1    3    3  501    0  0.61210785967E+02  0.79415113986E+02 -0.99414937470E+02  0.14119794772E+03  0.10000000000E+00 0. -1.
         -5    1    3    3    0  501  0.10427157854E+02 -0.18525902906E+02  0.24327792206E+02  0.32307679784E+02  0.10000000000E+00 0. -1.
          2    1    1    2  502    0 -0.71637943821E+02 -0.60889211080E+02  0.55302808346E+03  0.56096305771E+03  0.00000000000E+00 0.  1.
<mgrwt>
<rscale>  1 0.15641651E+03</rscale>
<asrwt>0</asrwt>
<pdfrwt beam="1">  1       21 0.19732904E-01 0.15641651E+03</pdfrwt>
<pdfrwt beam="2">  1        2 0.93262277E-01 0.15641651E+03</pdfrwt>
<totfact> 0.14945670E+04</totfact>
</mgrwt>
</event>
<event>
 6    2  0.1674964E-002  0.1310005E+03  0.7546771E-02  0.1225979E+00
          1   -1    0    0  503    0 -0.00000000000E+00  0.00000000000E+00  0.39348742781E+03  0.39348742781E+03  0.00000000000E+00 0. -1.
         21   -1    0    0  502  503  0.00000000000E+00 -0.00000000000E+00 -0.42368951485E+02  0.42368951485E+02  0.00000000000E+00 0.  1.
         25    2    1    2    0    0 -0.22618763658E+02 -0.32031333962E+02  0.63504098165E+02  0.14558125920E+03  0.12499407074E+03 0.  0.
          5    1    3    3  501    0 -0.31342347668E+02 -0.67313523627E+02  0.21663996865E+01  0.74284295164E+02  0.10000000000E+00 0.  1.
         -5    1    3    3    0  501  0.87235840102E+01  0.35282189664E+02  0.61337698478E+02  0.71296964032E+02  0.10000000000E+00 0.  1.
          1    1    1    2  502    0  0.22618763658E+02  0.32031333962E+02  0.28761437816E+03  0.29027512010E+03  0.00000000000E+00 0. -1.
<mgrwt>
<rscale>  1 0.13100051E+03</rscale>
<asrwt>0</asrwt>
<pdfrwt beam="1">  1       21 0.65183005E-02 0.13100051E+03</pdfrwt>
<pdfrwt beam="2">  1        1 0.60536525E-01 0.13100051E+03</pdfrwt>
<totfact> 0.11520900E+05</totfact>
</mgrwt>
</event>
<event>
 6    2  0.1674964E-002  0.1438694E+03  0.7546771E-02  0.1208215E+00
         21   -1    0    0  502  503  0.00000000000E+00  0.00000000000E+00  0.49735542225E+02  0.49735542225E+02  0.00000000000E+00 0.  1.
          2   -1    0    0  503    0 -0.00000000000E+00 -0.00000000000E+00 -0.28186079930E+03  0.28186079930E+03  0.00000000000E+00 0.  1.
         25    2    1    2    0    0 -0.26946741295E+02  0.65925953305E+02 -0.82400889693E+02  0.16579602677E+03  0.12500423067E+03 0.  0.
          5    1    3    3  501    0 -0.35020675553E+02 -0.22788756367E+02  0.36481217847E+01  0.41941553685E+02  0.10000000000E+00 0. -1.
         -5    1    3    3    0  501  0.80739342587E+01  0.88714709672E+02 -0.86049011478E+02  0.12385447308E+03  0.10000000000E+00 0. -1.
          2    1    1    2  502    0  0.26946741295E+02 -0.65925953305E+02 -0.14972436739E+03  0.16580031476E+03  0.00000000000E+00 0.  1.
<mgrwt>
<rscale>  1 0.14386944E+03</rscale>
<asrwt>0</asrwt>
<pdfrwt beam="1">  1       21 0.76516219E-02 0.14386944E+03</pdfrwt>
<pdfrwt beam="2">  1        2 0.43363200E-01 0.14386944E+03</pdfrwt>
<totfact> 0.18595888E+05</totfact>
</mgrwt>
</event>
<event>
 6    2  0.1674964E-002  0.1269163E+03  0.7546771E-02  0.1232104E+00
         21   -1    0    0  502  503  0.00000000000E+00  0.00000000000E+00  0.42890430487E+02  0.42890430487E+02  0.00000000000E+00 0.  1.
          2   -1    0    0  503    0 -0.00000000000E+00 -0.00000000000E+00 -0.11141027730E+04  0.11141027730E+04  0.00000000000E+00 0.  1.
         25    2    1    2    0    0 -0.17462584289E+02  0.13335055513E+02 -0.51376606674E+02  0.13692080721E+03  0.12499994471E+03 0.  0.
          5    1    3    3  501    0 -0.61104786804E+02 -0.26280328262E+02 -0.37535586642E+02  0.76376572904E+02  0.10000000000E+00 0.  1.
         -5    1    3    3    0  501  0.43642202516E+02  0.39615383774E+02 -0.13841020032E+02  0.60544234305E+02  0.10000000000E+00 0.  1.
          2    1    1    2  502    0  0.17462584289E+02 -0.13335055513E+02 -0.10198357358E+04  0.10200723963E+04  0.00000000000E+00 0.  1.
<mgrwt>
<rscale>  1 0.12691632E+03</rscale>
<asrwt>0</asrwt>
<pdfrwt beam="1">  1       21 0.65985275E-02 0.12691632E+03</pdfrwt>
<pdfrwt beam="2">  1        2 0.17140043E+00 0.12691632E+03</pdfrwt>
<totfact> 0.48199110E+04</totfact>
</mgrwt>
</event>
<event>
 6    2  0.1674964E-002  0.1362308E+03  0.7546771E-02  0.1218493E+00
          1   -1    0    0  503    0 -0.00000000000E+00  0.00000000000E+00  0.17554342811E+04  0.17554342811E+04  0.00000000000E+00 0. -1.
         21   -1    0    0  502  503  0.00000000000E+00 -0.00000000000E+00 -0.63052011675E+02  0.63052011675E+02  0.00000000000E+00 0. -1.
         25    2    1    2    0    0  0.26967407837E+02 -0.46958138530E+02  0.11481790243E+02  0.13671379664E+03  0.12500609115E+03 0.  0.
          5    1    3    3  501    0 -0.16063504516E+02  0.24789519448E+01  0.55454787261E+02  0.57787756577E+02  0.10000000000E+00 0. -1.
         -5    1    3    3    0  501  0.43030912353E+02 -0.49437090474E+02 -0.43972997018E+02  0.78926040058E+02  0.10000000000E+00 0. -1.
          1    1    1    2  502    0 -0.26967407837E+02  0.46958138530E+02  0.16809004792E+04  0.16817724961E+04  0.00000000000E+00 0. -1.
<mgrwt>
<rscale>  1 0.13623080E+03</rscale>
<asrwt>0</asrwt>
<pdfrwt beam="1">  1       21 0.97003108E-02 0.13623080E+03</pdfrwt>
<pdfrwt beam="2">  1        1 0.27006678E+00 0.13623080E+03</pdfrwt>
<totfact> 0.48863565E+03</totfact>
</mgrwt>
</event>
<event>
 6    2  0.1674964E-002  0.1549958E+03  0.7546771E-02  0.1194465E+00
          2   -1    0    0  503    0 -0.00000000000E+00  0.00000000000E+00  0.80193682068E+03  0.80193682068E+03  0.00000000000E+00 0. -1.
         21   -1    0    0  502  503  0.00000000000E+00 -0.00000000000E+00 -0.19490300444E+02  0.19490300444E+02  0.00000000000E+00 0. -1.
         25    2    1    2    0    0 -0.74047899786E+02  0.53993113140E+02  0.42368687954E+03  0.45114772996E+03  0.12500141849E+03 0.  0.
          5    1    3    3  501    0 -0.84750461318E+02  0.18314511621E+02  0.13755978214E+03  0.16260616745E+03  0.10000000000E+00 0.  1.
         -5    1    3    3    0  501  0.10702561532E+02  0.35678601519E+02  0.28612709740E+03  0.28854156251E+03  0.10000000000E+00 0.  1.
          2    1    1    2  502    0  0.74047899786E+02 -0.53993113140E+02  0.35875964069E+03  0.37027939116E+03  0.00000000000E+00 0. -1.
<mgrwt>
<rscale>  1 0.15499581E+03</rscale>
<asrwt>0</asrwt>
<pdfrwt beam="1">  1       21 0.29985084E-02 0.15499581E+03</pdfrwt>
<pdfrwt beam="2">  1        2 0.12337487E+00 0.15499581E+03</pdfrwt>
<totfact> 0.28154900E+05</totfact>
</mgrwt>
</event>
<event>
 6    2  0.1674964E-002  0.1362870E+03  0.7546771E-02  0.1218414E+00
         21   -1    0    0  502  503  0.00000000000E+00  0.00000000000E+00  0.94754812763E+02  0.94754812763E+02  0.00000000000E+00 0. -1.
          1   -1    0    0  503    0 -0.00000000000E+00 -0.00000000000E+00 -0.10062453886E+04  0.10062453886E+04  0.00000000000E+00 0.  1.
         25    2    1    2    0    0  0.11302859856E+02  0.53122090608E+02  0.44576460575E+02  0.14339177969E+03  0.12499772195E+03 0.  0.
          5    1    3    3  501    0 -0.28342190365E+02  0.29397986211E+01  0.69219545690E+02  0.74855044427E+02  0.10000000000E+00 0.  1.
         -5    1    3    3    0  501  0.39645050221E+02  0.50182291987E+02 -0.24643085115E+02  0.68536735260E+02  0.10000000000E+00 0.  1.
          1    1    1    2  502    0 -0.11302859856E+02 -0.53122090608E+02 -0.95606703638E+03  0.95760842164E+03  0.00000000000E+00 0.  1.
<mgrwt>
<rscale>  1 0.13628698E+03</rscale>
<asrwt>0</asrwt>
<pdfrwt beam="1">  1       21 0.14577663E-01 0.13628698E+03</pdfrwt>
<pdfrwt beam="2">  1        1 0.15480699E+00 0.13628698E+03</pdfrwt>
<totfact> 0.74945069E+03</totfact>
</mgrwt>
</event>
<event>
 6    2  0.1674964E-002  0.1601025E+03  0.7546771E-02  0.1188581E+00
         21   -1    0    0  502  503  0.00000000000E+00  0.00000000000E+00  0.19497401444E+02  0.19497401444E+02  0.00000000000E+00 0.  1.
          1   -1    0    0  503    0 -0.00000000000E+00 -0.00000000000E+00 -0.15849944928E+04  0.15849944928E+04  0.00000000000E+00 0.  1.
         25    2    1    2    0    0  0.81169592803E+02  0.58480275334E+02 -0.14134230643E+04  0.14224618003E+04  0.12499747661E+03 0.  0.
          5    1    3    3  501    0  0.34080436910E+02  0.93806504132E+02 -0.79411662550E+03  0.80036389304E+03  0.10000000000E+00 0. -1.
         -5    1    3    3    0  501  0.47089155893E+02 -0.35326228798E+02 -0.61930643884E+03  0.62209790728E+03  0.10000000000E+00 0. -1.
          1    1    1    2  502    0 -0.81169592803E+02 -0.58480275334E+02 -0.15207402698E+03  0.18203009388E+03  0.00000000000E+00 0.  1.
<mgrwt>
<rscale>  1 0.16010251E+03</rscale>
<asrwt>0</asrwt>
<pdfrwt beam="1">  1       21 0.29995997E-02 0.16010251E+03</pdfrwt>
<pdfrwt beam="2">  1        1 0.24384535E+00 0.16010251E+03</pdfrwt>
<totfact> 0.45523440E+04</totfact>
</mgrwt>
</event>
<event>
 6    2  0.1674964E-002  0.1297941E+03  0.7546771E-02  0.1227762E+00
          4   -1    0    0  503    0 -0.00000000000E+00  0.00000000000E+00  0.81338236473E+02  0.81338236473E+02  0.00000000000E+00 0. -1.
         21   -1    0    0  502  503  0.00000000000E+00 -0.00000000000E+00 -0.17381503898E+03  0.17381503898E+03  0.00000000000E+00 0. -1.
         25    2    1    2    0    0 -0.75674089603E+01 -0.34136547959E+02 -0.14337749204E+03  0.19340013966E+03  0.12499575678E+03 0.  0.
          5    1    3    3  501    0  0.58268128106E+02 -0.18058812473E+02 -0.80070217866E+02  0.10066054465E+03  0.10000000000E+00 0. -1.
         -5    1    3    3    0  501 -0.65835537066E+02 -0.16077735486E+02 -0.63307274172E+02  0.92739595008E+02  0.10000000000E+00 0. -1.
          4    1    1    2  502    0  0.75674089603E+01  0.34136547959E+02  0.50900689533E+02  0.61753135790E+02  0.00000000000E+00 0. -1.
<mgrwt>
<rscale>  1 0.12979410E+03</rscale>
<asrwt>0</asrwt>
<pdfrwt beam="1">  1       21 0.26740775E-01 0.12979410E+03</pdfrwt>
<pdfrwt beam="2">  1        4 0.12513575E-01 0.12979410E+03</pdfrwt>
<totfact> 0.27925566E+04</totfact>
</mgrwt>
</event>
<event>
 6    2  0.1674964E-002  0.1402817E+03  0.7546771E-02  0.1212950E+00
         21   -1    0    0  502  503  0.00000000000E+00  0.00000000000E+00  0.53297427619E+03  0.53297427619E+03  0.00000000000E+00 0.  1.
          1   -1    0    0  503    0 -0.00000000000E+00 -0.00000000000E+00 -0.45810924630E+02  0.45810924630E+02  0.00000000000E+00 0. -1.
         25    2    1    2    0    0  0.11054847975E+02  0.62705044979E+02  0.49512788757E+03  0.51461693637E+03  0.12499933525E+03 0.  0.
          5    1    3    3  501    0  0.30749632816E+02 -0.27316435439E+02  0.87248405954E+02  0.96457357961E+02  0.10000000000E+00 0. -1.
         -5    1    3    3    0  501 -0.19694784841E+02  0.90021480419E+02  0.40787948162E+03  0.41815957841E+03  0.10000000000E+00 0. -1.
          1    1    1    2  502    0 -0.11054847975E+02 -0.62705044979E+02 -0.79645360092E+01  0.64168264457E+02  0.00000000000E+00 0. -1.
<mgrwt>
<rscale>  1 0.14028174E+03</rscale>
<asrwt>0</asrwt>
<pdfrwt beam="1">  1       21 0.81996038E-01 0.14028174E+03</pdfrwt>
<pdfrwt beam="2">  1        1 0.70478349E-02 0.14028174E+03</pdfrwt>
<totfact> 0.14314912E+04</totfact>
</mgrwt>
</event>
<event>
 6    2  0.1674964E-002  0.1605730E+03  0.7546771E-02  0.1188051E+00
         21   -1    0    0  502  503  0.00000000000E+00  0.00000000000E+00  0.39305091749E+03  0.39305091749E+03  0.00000000000E+00 0.  1.
          2   -1    0    0  503    0 -0.00000000000E+00 -0.00000000000E+00 -0.44722307404E+03  0.44722307404E+03  0.00000000000E+00 0. -1.
         25    2    1    2    0    0 -0.10238381098E+02 -0.10026519732E+03  0.37050346225E+03  0.40380255439E+03  0.12500301258E+03 0.  0.
          5    1    3    3  501    0  0.30059810016E+02 -0.93192219930E+02  0.33694817698E+03  0.35088811037E+03  0.10000000000E+00 0.  1.
         -5    1    3    3    0  501 -0.40298191113E+02 -0.70729773936E+01  0.33555285271E+02  0.52914444019E+02  0.10000000000E+00 0.  1.
          2    1    1    2  502    0  0.10238381098E+02  0.10026519732E+03 -0.42467561879E+03  0.43647143714E+03  0.00000000000E+00 0. -1.
<mgrwt>
<rscale>  1 0.16057300E+03</rscale>
<asrwt>0</asrwt>
<pdfrwt beam="1">  1       21 0.60469372E-01 0.16057300E+03</pdfrwt>
<pdfrwt beam="2">  1        2 0.68803550E-01 0.16057300E+03</pdfrwt>
<totfact> 0.22796945E+03</totfact>
</mgrwt>
</event>
<event>
 6    2  0.1674964E-002  0.1290539E+03  0.7546771E-02  0.1228866E+00
         21   -1    0    0  502  503  0.00000000000E+00  0.00000000000E+00  0.58397533100E+02  0.58397533100E+02  0.00000000000E+00 0.  1.
          2   -1    0    0  503    0 -0.00000000000E+00 -0.00000000000E+00 -0.47747992726E+03  0.47747992726E+03  0.00000000000E+00 0. -1.
         25    2    1    2    0    0 -0.29929357258E+02  0.11550049552E+02 -0.14320277454E+02  0.12984600691E+03  0.12500298034E+03 0.  0.
          5    1    3    3  501    0  0.95923917050E-02 -0.43148589128E+02 -0.43261173453E+02  0.61101063528E+02  0.10000000000E+00 0. -1.
         -5    1    3    3    0  501 -0.29938949649E+02  0.54698638680E+02  0.28940895998E+02  0.68744943383E+02  0.10000000000E+00 0. -1.
          2    1    1    2  502    0  0.29929357258E+02 -0.11550049552E+02 -0.40476211671E+03  0.40603145345E+03  0.00000000000E+00 0. -1.
<mgrwt>
<rscale>  1 0.12905392E+03</rscale>
<asrwt>0</asrwt>
<pdfrwt beam="1">  1       21 0.89842361E-02 0.12905392E+03</pdfrwt>
<pdfrwt beam="2">  1        2 0.73458449E-01 0.12905392E+03</pdfrwt>
<totfact> 0.79953646E+04</totfact>
</mgrwt>
</event>
<event>
 6    2  0.1674964E-002  0.1680864E+03  0.7546771E-02  0.1179858E+00
         21   -1    0    0  502  503  0.00000000000E+00  0.00000000000E+00  0.41135086595E+02  0.41135086595E+02  0.00000000000E+00 0. -1.
          1   -1    0    0  503    0 -0.00000000000E+00 -0.00000000000E+00 -0.11655262445E+04  0.11655262445E+04  0.00000000000E+00 0.  1.
         25    2    1    2    0    0  0.38383494155E+02  0.10562181683E+03 -0.14840211407E+03  0.22422361068E+03  0.12499511715E+03 0.  0.
          5    1    3    3  501    0  0.16574023546E+01  0.17926364206E+02  0.22403034312E+02  0.28740345554E+02  0.10000000000E+00 0.  1.
         -5    1    3    3    0  501  0.36726091800E+02  0.87695452623E+02 -0.17080514838E+03  0.19548326512E+03  0.10000000000E+00 0.  1.
          1    1    1    2  502    0 -0.38383494155E+02 -0.10562181683E+03 -0.97598904380E+03  0.98243772039E+03  0.00000000000E+00 0.  1.
<mgrwt>
<rscale>  1 0.16808641E+03</rscale>
<asrwt>0</asrwt>
<pdfrwt beam="1">  1       21 0.63284746E-02 0.16808641E+03</pdfrwt>
<pdfrwt beam="2">  1        1 0.17931174E+00 0.16808641E+03</pdfrwt>
<totfact> 0.24712737E+04</totfact>
</mgrwt>
</event>
<event>
 6    2  0.1674964E-002  0.1260887E+03  0.7546771E-02  0.1233378E+00
         21   -1    0    0  502  503  0.00000000000E+00  0.00000000000E+00  0.49933416388E+02  0.49933416388E+02  0.00000000000E+00 0. -1.
          3   -1    0    0  503    0 -0.00000000000E+00 -0.00000000000E+00 -0.36492819638E+03  0.36492819638E+03  0.00000000000E+00 0. -1.
         25    2    1    2    0    0  0.63808909157E+01 -0.15265426586E+02 -0.30289216350E+02  0.12967569624E+03  0.12499840219E+03 0.  0.
          5    1    3    3  501    0  0.50080780454E+01 -0.70419792975E+02 -0.12415335175E+02  0.71681089806E+02  0.10000000000E+00 0. -1.
         -5    1    3    3    0  501  0.13728128702E+01  0.55154366389E+02 -0.17873881175E+02  0.57994606432E+02  0.10000000000E+00 0. -1.
          3    1    1    2  502    0 -0.63808909157E+01  0.15265426586E+02 -0.28470556364E+03  0.28518591653E+03  0.00000000000E+00 0. -1.
<mgrwt>
<rscale>  1 0.12608866E+03</rscale>
<asrwt>0</asrwt>
<pdfrwt beam="1">  1       21 0.76820642E-02 0.12608866E+03</pdfrwt>
<pdfrwt beam="2">  1        3 0.56142798E-01 0.12608866E+03</pdfrwt>
<totfact> 0.19507271E+04</totfact>
</mgrwt>
</event>
<event>
 6    2  0.1674964E-002  0.1297397E+03  0.7546771E-02  0.1227843E+00
          1   -1    0    0  503    0 -0.00000000000E+00  0.00000000000E+00  0.63383576747E+03  0.63383576747E+03  0.00000000000E+00 0.  1.
         21   -1    0    0  502  503  0.00000000000E+00 -0.00000000000E+00 -0.64925289615E+02  0.64925289615E+02  0.00000000000E+00 0. -1.
         25    2    1    2    0    0  0.22192837269E+02  0.26752231618E+02  0.95524142808E+00  0.12974317116E+03  0.12499669617E+03 0.  0.
          5    1    3    3  501    0  0.51230502891E+02 -0.30436363119E+02  0.19967554268E+02  0.62846239743E+02  0.10000000000E+00 0. -1.
         -5    1    3    3    0  501 -0.29037665623E+02  0.57188594738E+02 -0.19012312840E+02  0.66896931412E+02  0.10000000000E+00 0. -1.
          1    1    1    2  502    0 -0.22192837269E+02 -0.26752231618E+02  0.56795523642E+03  0.56901788593E+03  0.00000000000E+00 0.  1.
<mgrwt>
<rscale>  1 0.12973965E+03</rscale>
<asrwt>0</asrwt>
<pdfrwt beam="1">  1       21 0.99885065E-02 0.12973965E+03</pdfrwt>
<pdfrwt beam="2">  1        1 0.97513191E-01 0.12973965E+03</pdfrwt>
<totfact> 0.29564035E+04</totfact>
</mgrwt>
</event>
<event>
 6    2  0.1674964E-002  0.1586408E+03  0.7546771E-02  0.1190240E+00
          2   -1    0    0  503    0 -0.00000000000E+00  0.00000000000E+00  0.11429960280E+04  0.11429960280E+04  0.00000000000E+00 0. -1.
         21   -1    0    0  502  503  0.00000000000E+00 -0.00000000000E+00 -0.10151337931E+04  0.10151337931E+04  0.00000000000E+00 0.  1.
         25    2    1    2    0    0  0.16532051914E+02 -0.96289118372E+02 -0.10068239206E+04  0.10192454659E+04  0.12498803783E+03 0.  0.
          5    1    3    3  501    0  0.15402458415E+01 -0.12102415259E+03 -0.91509438149E+03  0.92306389535E+03  0.10000000000E+00 0. -1.
         -5    1    3    3    0  501  0.14991806072E+02  0.24735034216E+02 -0.91729539096E+02  0.96181570530E+02  0.10000000000E+00 0. -1.
          2    1    1    2  502    0 -0.16532051914E+02  0.96289118372E+02  0.11346861555E+04  0.11388843552E+04  0.00000000000E+00 0. -1.
<mgrwt>
<rscale>  1 0.15864083E+03</rscale>
<asrwt>0</asrwt>
<pdfrwt beam="1">  1       21 0.15617443E+00 0.15864083E+03</pdfrwt>
<pdfrwt beam="2">  1        2 0.17584554E+00 0.15864083E+03</pdfrwt>
<totfact> 0.76792523E+01</totfact>
</mgrwt>
</event>
<event>
 6    2  0.1674964E-002  0.1553362E+03  0.7546771E-02  0.1194065E+00
         21   -1    0    0  502  503  0.00000000000E+00  0.00000000000E+00  0.17949511964E+02  0.17949511964E+02  0.00000000000E+00 0.  1.
          2   -1    0    0  503    0 -0.00000000000E+00 -0.00000000000E+00 -0.87292800819E+03  0.87292800819E+03  0.00000000000E+00 0.  1.
         25    2    1    2    0    0 -0.90901245735E+02  0.15558704474E+02 -0.59822638580E+03  0.61806484455E+03  0.12499693453E+03 0.  0.
          5    1    3    3  501    0 -0.72593368208E+02  0.29536809516E+02 -0.14993921948E+03  0.16918628716E+03  0.10000000000E+00 0.  1.
         -5    1    3    3    0  501 -0.18307877527E+02 -0.13978105042E+02 -0.44828716632E+03  0.44887855739E+03  0.10000000000E+00 0.  1.
          2    1    1    2  502    0  0.90901245735E+02 -0.15558704474E+02 -0.25675211042E+03  0.27281267560E+03  0.00000000000E+00 0.  1.
<mgrwt>
<rscale>  1 0.15533623E+03</rscale>
<asrwt>0</asrwt>
<pdfrwt beam="1">  1       21 0.27614627E-02 0.15533623E+03</pdfrwt>
<pdfrwt beam="2">  1        2 0.13429665E+00 0.15533623E+03</pdfrwt>
<totfact> 0.28938117E+05</totfact>
</mgrwt>
</event>
<event>
 6    2  0.1674964E-002  0.1266958E+03  0.7546771E-02  0.1232443E+00
          2   -1    0    0  503    0 -0.00000000000E+00  0.00000000000E+00  0.27256248247E+03  0.27256248247E+03  0.00000000000E+00 0. -1.
         21   -1    0    0  502  503  0.00000000000E+00 -0.00000000000E+00 -0.26411748991E+03  0.26411748991E+03  0.00000000000E+00 0.  1.
         25    2    1    2    0    0 -0.46234696861E+01  0.20095564504E+02 -0.24848678739E+03  0.27892204771E+03  0.12500646787E+03 0.  0.
          5    1    3    3  501    0 -0.23064453039E+02  0.67429340762E+02 -0.18045182394E+03  0.19401431843E+03  0.10000000000E+00 0. -1.
         -5    1    3    3    0  501  0.18440983353E+02 -0.47333776257E+02 -0.68034963440E+02  0.84907729284E+02  0.10000000000E+00 0. -1.
          2    1    1    2  502    0  0.46234696861E+01 -0.20095564504E+02  0.25693177994E+03  0.25775792467E+03  0.00000000000E+00 0. -1.
<mgrwt>
<rscale>  1 0.12669580E+03</rscale>
<asrwt>0</asrwt>
<pdfrwt beam="1">  1       21 0.40633460E-01 0.12669580E+03</pdfrwt>
<pdfrwt beam="2">  1        2 0.41932689E-01 0.12669580E+03</pdfrwt>
<totfact> 0.89058624E+03</totfact>
</mgrwt>
</event>
<event>
 6    2  0.1674964E-002  0.1275389E+03  0.7546771E-02  0.1231154E+00
         21   -1    0    0  502  503  0.00000000000E+00  0.00000000000E+00  0.38268100862E+02  0.38268100862E+02  0.00000000000E+00 0.  1.
          2   -1    0    0  503    0 -0.00000000000E+00 -0.00000000000E+00 -0.15495072264E+03  0.15495072264E+03  0.00000000000E+00 0.  1.
         25    2    1    2    0    0  0.25157262594E+02 -0.28213230562E+01 -0.87942826322E+02  0.15491969077E+03  0.12500128864E+03 0.  0.
          5    1    3    3  501    0  0.43599229807E+02  0.77108607594E+00  0.18108610061E+02  0.47216725552E+02  0.10000000000E+00 0.  1.
         -5    1    3    3    0  501 -0.18441967213E+02 -0.35924091321E+01 -0.10605143638E+03  0.10770296522E+03  0.10000000000E+00 0.  1.
          2    1    1    2  502    0 -0.25157262594E+02  0.28213230562E+01 -0.28739795455E+02  0.38299132729E+02  0.00000000000E+00 0.  1.
<mgrwt>
<rscale>  1 0.12753890E+03</rscale>
<asrwt>0</asrwt>
<pdfrwt beam="1">  1       21 0.58874003E-02 0.12753890E+03</pdfrwt>
<pdfrwt beam="2">  1        2 0.23838572E-01 0.12753890E+03</pdfrwt>
<totfact> 0.55107952E+05</totfact>
</mgrwt>
</event>
<event>
 6    2  0.1674964E-002  0.1274439E+03  0.7546771E-02  0.1231299E+00
         21   -1    0    0  502  503  0.00000000000E+00  0.00000000000E+00  0.18959295947E+02  0.18959295947E+02  0.00000000000E+00 0. -1.
          2   -1    0    0  503    0 -0.00000000000E+00 -0.00000000000E+00 -0.13344964044E+04  0.13344964044E+04  0.00000000000E+00 0. -1.
         25    2    1    2    0    0 -0.24393337987E+02 -0.50197604481E+01 -0.19692511580E+03  0.23456650877E+03  0.12498685078E+03 0.  0.
          5    1    3    3  501    0  0.36798650469E+02  0.36764093103E+02 -0.64936659694E+02  0.83201676607E+02  0.10000000000E+00 0. -1.
         -5    1    3    3    0  501 -0.61191988456E+02 -0.41783853552E+02 -0.13198845611E+03  0.15136483216E+03  0.10000000000E+00 0. -1.
          2    1    1    2  502    0  0.24393337987E+02  0.50197604481E+01 -0.11186119927E+04  0.11188891916E+04  0.00000000000E+00 0. -1.
<mgrwt>
<rscale>  1 0.12744389E+03</rscale>
<asrwt>0</asrwt>
<pdfrwt beam="1">  1       21 0.29168152E-02 0.12744389E+03</pdfrwt>
<pdfrwt beam="2">  1        2 0.20530711E+00 0.12744389E+03</pdfrwt>
<totfact> 0.14249522E+05</totfact>
</mgrwt>
</event>
<event>
 6    2  0.1674964E-002  0.1486908E+03  0.7546771E-02  0.1202091E+00
          2   -1    0    0  503    0 -0.00000000000E+00  0.00000000000E+00  0.49834649506E+04  0.49834649506E+04  0.00000000000E+00 0.  1.
         21   -1    0    0  502  503  0.00000000000E+00 -0.00000000000E+00 -0.35157190806E+01  0.35157190806E+01  0.00000000000E+00 0. -1.
         25    2    1    2    0    0 -0.71712286500E+02  0.36904893218E+02  0.18407763158E+04  0.18467718840E+04  0.12491726609E+03 0.  0.
          5    1    3    3  501    0 -0.27686724459E+02  0.32515684947E+02  0.16581460938E+03  0.17122593017E+03  0.10000000000E+00 0.  1.
         -5    1    3    3    0  501 -0.44025562042E+02  0.43892082711E+01  0.16749617064E+04  0.16755459538E+04  0.10000000000E+00 0.  1.
          2    1    1    2  502    0  0.71712286500E+02 -0.36904893218E+02  0.31391729157E+04  0.31402087857E+04  0.00000000000E+00 0.  1.
<mgrwt>
<rscale>  1 0.14869077E+03</rscale>
<asrwt>0</asrwt>
<pdfrwt beam="1">  1       21 0.54088385E-03 0.14869077E+03</pdfrwt>
<pdfrwt beam="2">  1        2 0.76668126E+00 0.14869077E+03</pdfrwt>
<totfact> 0.74403872E+03</totfact>
</mgrwt>
</event>
<event>
 6    2  0.1674964E-002  0.1458587E+03  0.7546771E-02  0.1205656E+00
         21   -1    0    0  502  503  0.00000000000E+00  0.00000000000E+00  0.22547797528E+02  0.22547797528E+02  0.00000000000E+00 0.  1.
          1   -1    0    0  503    0 -0.00000000000E+00 -0.00000000000E+00 -0.85463675959E+03  0.85463675959E+03  0.00000000000E+00 0.  1.
         25    2    1    2    0    0  0.20806253694E+02  0.72224187753E+02 -0.24370326179E+03  0.28401766174E+03  0.12500207552E+03 0.  0.
          5    1    3    3  501    0 -0.50915508762E+02  0.21233989419E+02 -0.12139137489E+03  0.13333846871E+03  0.10000000000E+00 0. -1.
         -5    1    3    3    0  501  0.71721762457E+02  0.50990198334E+02 -0.12231188690E+03  0.15067919304E+03  0.10000000000E+00 0. -1.
          1    1    1    2  502    0 -0.20806253694E+02 -0.72224187753E+02 -0.58838570027E+03  0.59316689538E+03  0.00000000000E+00 0.  1.
<mgrwt>
<rscale>  1 0.14585867E+03</rscale>
<asrwt>0</asrwt>
<pdfrwt beam="1">  1       21 0.34688925E-02 0.14585867E+03</pdfrwt>
<pdfrwt beam="2">  1        1 0.13148256E+00 0.14585867E+03</pdfrwt>
<totfact> 0.11523347E+05</totfact>
</mgrwt>
</event>
<event>
 6    2  0.1674964E-002  0.1276149E+03  0.7546771E-02  0.1231038E+00
         21   -1    0    0  502  503  0.00000000000E+00  0.00000000000E+00  0.73459510888E+01  0.73459510888E+01  0.00000000000E+00 0. -1.
          2   -1    0    0  503    0 -0.00000000000E+00 -0.00000000000E+00 -0.80687799624E+03  0.80687799624E+03  0.00000000000E+00 0. -1.
         25    2    1    2    0    0  0.79242246914E+01  0.24445536852E+02 -0.69155812739E+03  0.70323410759E+03  0.12500075563E+03 0.  0.
          5    1    3    3  501    0 -0.55125517253E+02 -0.47107690128E+01 -0.38142040165E+03  0.38541217779E+03  0.10000000000E+00 0.  1.
         -5    1    3    3    0  501  0.63049741944E+02  0.29156305865E+02 -0.31013772574E+03  0.31782192979E+03  0.10000000000E+00 0.  1.
          2    1    1    2  502    0 -0.79242246914E+01 -0.24445536852E+02 -0.10797391777E+03  0.11098983975E+03  0.00000000000E+00 0. -1.
<mgrwt>
<rscale>  1 0.12761491E+03</rscale>
<asrwt>0</asrwt>
<pdfrwt beam="1">  1       21 0.11301461E-02 0.12761491E+03</pdfrwt>
<pdfrwt beam="2">  1        2 0.12413510E+00 0.12761491E+03</pdfrwt>
<totfact> 0.13327597E+06</totfact>
</mgrwt>
</event>
<event>
 6    2  0.1674964E-002  0.1438936E+03  0.7546771E-02  0.1208184E+00
         21   -1    0    0  502  503  0.00000000000E+00  0.00000000000E+00  0.11801770544E+02  0.11801770544E+02  0.00000000000E+00 0. -1.
          4   -1    0    0  503    0 -0.00000000000E+00 -0.00000000000E+00 -0.16892819107E+04  0.16892819107E+04  0.00000000000E+00 0.  1.
         25    2    1    2    0    0  0.57637035246E+02 -0.41934795795E+02 -0.47076421560E+03  0.49226447329E+03  0.12499924019E+03 0.  0.
          5    1    3    3  501    0  0.87895683772E+02 -0.50120937225E+01 -0.37582608878E+03  0.38600004056E+03  0.10000000000E+00 0. -1.
         -5    1    3    3    0  501 -0.30258648526E+02 -0.36922702073E+02 -0.94938126824E+02  0.10626443273E+03  0.10000000000E+00 0. -1.
          4    1    1    2  502    0 -0.57637035246E+02  0.41934795795E+02 -0.12067159246E+04  0.12088192079E+04  0.00000000000E+00 0.  1.
<mgrwt>
<rscale>  1 0.14389359E+03</rscale>
<asrwt>0</asrwt>
<pdfrwt beam="1">  1       21 0.18156562E-02 0.14389359E+03</pdfrwt>
<pdfrwt beam="2">  1        4 0.25988964E+00 0.14389359E+03</pdfrwt>
<totfact> 0.38160711E+03</totfact>
</mgrwt>
</event>
<event>
 6    2  0.1674964E-002  0.1324485E+03  0.7546771E-02  0.1223867E+00
          1   -1    0    0  503    0 -0.00000000000E+00  0.00000000000E+00  0.39115433290E+03  0.39115433290E+03  0.00000000000E+00 0.  1.
         21   -1    0    0  502  503  0.00000000000E+00 -0.00000000000E+00 -0.23863697825E+02  0.23863697825E+02  0.00000000000E+00 0.  1.
         25    2    1    2    0    0 -0.26703180165E+02  0.34727232286E+02  0.33605946097E+03  0.36121815406E+03  0.12499421196E+03 0.  0.
          5    1    3    3  501    0 -0.63964401799E+01 -0.44166604141E+02  0.17663290951E+03  0.18218341881E+03  0.10000000000E+00 0.  1.
         -5    1    3    3    0  501 -0.20306739985E+02  0.78893836427E+02  0.15942655146E+03  0.17903473525E+03  0.10000000000E+00 0.  1.
          1    1    1    2  502    0  0.26703180165E+02 -0.34727232286E+02  0.31231174104E+02  0.53799876664E+02  0.00000000000E+00 0.  1.
<mgrwt>
<rscale>  1 0.13244846E+03</rscale>
<asrwt>0</asrwt>
<pdfrwt beam="1">  1       21 0.36713384E-02 0.13244846E+03</pdfrwt>
<pdfrwt beam="2">  1        1 0.60177585E-01 0.13244846E+03</pdfrwt>
<totfact> 0.30446941E+05</totfact>
</mgrwt>
</event>
<event>
 6    2  0.1674964E-002  0.1436247E+03  0.7546771E-02  0.1208533E+00
          2   -1    0    0  503    0 -0.00000000000E+00  0.00000000000E+00  0.13974573755E+04  0.13974573755E+04  0.00000000000E+00 0.  1.
         21   -1    0    0  502  503  0.00000000000E+00 -0.00000000000E+00 -0.12944218305E+02  0.12944218305E+02  0.00000000000E+00 0.  1.
         25    2    1    2    0    0  0.70479885992E+02 -0.40910909376E+01  0.43145756915E+03  0.45473475580E+03  0.12507562833E+03 0.  0.
          5    1    3    3  501    0  0.78912197523E+02 -0.47895371266E+02  0.21926429373E+03  0.23790321984E+03  0.10000000000E+00 0.  1.
         -5    1    3    3    0  501 -0.84323115308E+01  0.43804280329E+02  0.21219327542E+03  0.21683153596E+03  0.10000000000E+00 0.  1.
          2    1    1    2  502    0 -0.70479885992E+02  0.40910909376E+01  0.95305558802E+03  0.95566683798E+03  0.00000000000E+00 0.  1.
<mgrwt>
<rscale>  1 0.14362473E+03</rscale>
<asrwt>0</asrwt>
<pdfrwt beam="1">  1       21 0.19914193E-02 0.14362473E+03</pdfrwt>
<pdfrwt beam="2">  1        2 0.21499332E+00 0.14362473E+03</pdfrwt>
<totfact> 0.24590055E+05</totfact>
</mgrwt>
</event>
<event>
 6    2  0.1674964E-002  0.1958470E+03  0.7546771E-02  0.1153291E+00
         21   -1    0    0  502  503  0.00000000000E+00  0.00000000000E+00  0.16564386676E+03  0.16564386676E+03  0.00000000000E+00 0. -1.
          2   -1    0    0  503    0 -0.00000000000E+00 -0.00000000000E+00 -0.55550128500E+03  0.55550128500E+03  0.00000000000E+00 0.  1.
         25    2    1    2    0    0 -0.58920105267E+02 -0.13877779396E+03  0.91907368499E+02  0.21634007588E+03  0.12500083658E+03 0.  0.
          5    1    3    3  501    0 -0.40247320011E+02 -0.59812370826E+02 -0.22997942149E+02  0.75672199750E+02  0.10000000000E+00 0.  1.
         -5    1    3    3    0  501 -0.18672785256E+02 -0.78965423129E+02  0.11490531065E+03  0.14066787613E+03  0.10000000000E+00 0.  1.
          2    1    1    2  502    0  0.58920105267E+02  0.13877779396E+03 -0.48176478674E+03  0.50480507589E+03  0.00000000000E+00 0.  1.
<mgrwt>
<rscale>  1 0.19584704E+03</rscale>
<asrwt>0</asrwt>
<pdfrwt beam="1">  1       21 0.25483672E-01 0.19584704E+03</pdfrwt>
<pdfrwt beam="2">  1        2 0.85461737E-01 0.19584704E+03</pdfrwt>
<totfact> 0.10106277E+04</totfact>
</mgrwt>
</event>
<event>
 6    2  0.1674964E-002  0.1611182E+03  0.7546771E-02  0.1187440E+00
          2   -1    0    0  503    0 -0.00000000000E+00  0.00000000000E+00  0.96502509247E+03  0.96502509247E+03  0.00000000000E+00 0. -1.
         21   -1    0    0  502  503  0.00000000000E+00 -0.00000000000E+00 -0.24404482388E+02  0.24404482388E+02  0.00000000000E+00 0. -1.
         25    2    1    2    0    0  0.36533943977E+02 -0.94858218756E+02  0.79912924442E+03  0.81520954935E+03  0.12500499730E+03 0.  0.
          5    1    3    3  501    0  0.43003225383E+02 -0.85284513834E+02  0.79789209724E+03  0.80358853559E+03  0.10000000000E+00 0.  1.
         -5    1    3    3    0  501 -0.64692814053E+01 -0.95737049220E+01  0.12371471777E+01  0.11621013767E+02  0.10000000000E+00 0.  1.
          2    1    1    2  502    0 -0.36533943977E+02  0.94858218756E+02  0.14149136567E+03  0.17422002550E+03  0.00000000000E+00 0. -1.
<mgrwt>
<rscale>  1 0.16111816E+03</rscale>
<asrwt>0</asrwt>
<pdfrwt beam="1">  1       21 0.37545365E-02 0.16111816E+03</pdfrwt>
<pdfrwt beam="2">  1        2 0.14846537E+00 0.16111816E+03</pdfrwt>
<totfact> 0.15258278E+05</totfact>
</mgrwt>
</event>
<event>
 6    2  0.1674964E-002  0.1271660E+03  0.7546771E-02  0.1231723E+00
         21   -1    0    0  502  503  0.00000000000E+00  0.00000000000E+00  0.66536209024E+03  0.66536209024E+03  0.00000000000E+00 0. -1.
          2   -1    0    0  503    0 -0.00000000000E+00 -0.00000000000E+00 -0.22245021786E+03  0.22245021786E+03  0.00000000000E+00 0. -1.
         25    2    1    2    0    0  0.51091955872E+01 -0.22927224132E+02  0.65864265027E+03  0.67080647865E+03  0.12497771625E+03 0.  0.
          5    1    3    3  501    0  0.17774427369E+02 -0.49418118208E+01  0.64426041617E+03  0.64452451126E+03  0.10000000000E+00 0.  1.
         -5    1    3    3    0  501 -0.12665231782E+02 -0.17985412311E+02  0.14382234095E+02  0.26281967385E+02  0.10000000000E+00 0.  1.
          2    1    1    2  502    0 -0.51091955872E+01  0.22927224132E+02 -0.21573077789E+03  0.21700582945E+03  0.00000000000E+00 0. -1.
<mgrwt>
<rscale>  1 0.12716600E+03</rscale>
<asrwt>0</asrwt>
<pdfrwt beam="1">  1       21 0.10236340E+00 0.12716600E+03</pdfrwt>
<pdfrwt beam="2">  1        2 0.34223111E-01 0.12716600E+03</pdfrwt>
<totfact> 0.15058990E+03</totfact>
</mgrwt>
</event>
<event>
 6    2  0.1674964E-002  0.1405825E+03  0.7546771E-02  0.1212547E+00
         21   -1    0    0  502  503  0.00000000000E+00  0.00000000000E+00  0.13832801250E+03  0.13832801250E+03  0.00000000000E+00 0.  1.
          1   -1    0    0  503    0 -0.00000000000E+00 -0.00000000000E+00 -0.12767613885E+03  0.12767613885E+03  0.00000000000E+00 0.  1.
         25    2    1    2    0    0 -0.98151797644E+01  0.63589920272E+02  0.87644531453E+02  0.16566530011E+03  0.12499364805E+03 0.  0.
          5    1    3    3  501    0 -0.33104612091E+02  0.91034588409E+02  0.37351938937E+02  0.10381902027E+03  0.10000000000E+00 0.  1.
         -5    1    3    3    0  501  0.23289432327E+02 -0.27444668137E+02  0.50292592516E+02  0.61846279834E+02  0.10000000000E+00 0.  1.
          1    1    1    2  502    0  0.98151797644E+01 -0.63589920272E+02 -0.76992657796E+02  0.10033885124E+03  0.00000000000E+00 0.  1.
<mgrwt>
<rscale>  1 0.14058246E+03</rscale>
<asrwt>0</asrwt>
<pdfrwt beam="1">  1       21 0.21281233E-01 0.14058246E+03</pdfrwt>
<pdfrwt beam="2">  1        1 0.19642483E-01 0.14058246E+03</pdfrwt>
<totfact> 0.57488840E+04</totfact>
</mgrwt>
</event>
<event>
 6    2  0.1674964E-002  0.1271331E+03  0.7546771E-02  0.1231773E+00
          1   -1    0    0  503    0 -0.00000000000E+00  0.00000000000E+00  0.81834329427E+03  0.81834329427E+03  0.00000000000E+00 0. -1.
         21   -1    0    0  502  503  0.00000000000E+00 -0.00000000000E+00 -0.12886439851E+02  0.12886439851E+02  0.00000000000E+00 0.  1.
         25    2    1    2    0    0  0.23149994542E+02 -0.15687509523E+01  0.30766282368E+03  0.33289522772E+03  0.12499774534E+03 0.  0.
          5    1    3    3  501    0  0.52119967938E+02  0.47163940029E+02  0.16228750825E+03  0.17685636440E+03  0.10000000000E+00 0. -1.
         -5    1    3    3    0  501 -0.28969973396E+02 -0.48732690981E+02  0.14537531543E+03  0.15603886331E+03  0.10000000000E+00 0. -1.
          1    1    1    2  502    0 -0.23149994542E+02  0.15687509523E+01  0.49779403075E+03  0.49833450640E+03  0.00000000000E+00 0. -1.
<mgrwt>
<rscale>  1 0.12713308E+03</rscale>
<asrwt>0</asrwt>
<pdfrwt beam="1">  1       21 0.19825299E-02 0.12713308E+03</pdfrwt>
<pdfrwt beam="2">  1        1 0.12589893E+00 0.12713308E+03</pdfrwt>
<totfact> 0.30585214E+05</totfact>
</mgrwt>
</event>
<event>
 6    2  0.1674964E-002  0.1389601E+03  0.7546771E-02  0.1214735E+00
          2   -1    0    0  503    0 -0.00000000000E+00  0.00000000000E+00  0.87906356310E+03  0.87906356310E+03  0.00000000000E+00 0.  1.
         21   -1    0    0  502  503  0.00000000000E+00 -0.00000000000E+00 -0.86438892715E+02  0.86438892715E+02  0.00000000000E+00 0. -1.
         25    2    1    2    0    0 -0.57340292574E+02 -0.19956516453E+02 -0.28736589122E+02  0.14190031259E+03  0.12499494173E+03 0.  0.
          5    1    3    3  501    0 -0.74420831983E+02 -0.52950536790E+02  0.53325211782E+01  0.91491340364E+02  0.10000000000E+00 0.  1.
         -5    1    3    3    0  501  0.17080539409E+02  0.32994020337E+02 -0.34069110300E+02  0.50408972229E+02  0.10000000000E+00 0.  1.
          2    1    1    2  502    0  0.57340292574E+02  0.19956516453E+02  0.82136125950E+03  0.82360214322E+03  0.00000000000E+00 0.  1.
<mgrwt>
<rscale>  1 0.13896009E+03</rscale>
<asrwt>0</asrwt>
<pdfrwt beam="1">  1       21 0.13298292E-01 0.13896009E+03</pdfrwt>
<pdfrwt beam="2">  1        2 0.13524054E+00 0.13896009E+03</pdfrwt>
<totfact> 0.19608382E+04</totfact>
</mgrwt>
</event>
<event>
 6    2  0.1674964E-002  0.1289416E+03  0.7546771E-02  0.1229035E+00
         21   -1    0    0  502  503  0.00000000000E+00  0.00000000000E+00  0.57947884716E+01  0.57947884716E+01  0.00000000000E+00 0. -1.
          2   -1    0    0  503    0 -0.00000000000E+00 -0.00000000000E+00 -0.15600285011E+04  0.15600285011E+04  0.00000000000E+00 0. -1.
         25    2    1    2    0    0 -0.89489947631E+01  0.30338214312E+02 -0.75259947823E+03  0.76356526530E+03  0.12500179191E+03 0.  0.
          5    1    3    3  501    0  0.49560154131E+02  0.43884853812E+02 -0.47129554809E+03  0.47592183488E+03  0.10000000000E+00 0. -1.
         -5    1    3    3    0  501 -0.58509148894E+02 -0.13546639500E+02 -0.28130393014E+03  0.28764343041E+03  0.10000000000E+00 0. -1.
          2    1    1    2  502    0  0.89489947631E+01 -0.30338214312E+02 -0.80163423439E+03  0.80225802427E+03  0.00000000000E+00 0. -1.
<mgrwt>
<rscale>  1 0.12894161E+03</rscale>
<asrwt>0</asrwt>
<pdfrwt beam="1">  1       21 0.89150529E-03 0.12894161E+03</pdfrwt>
<pdfrwt beam="2">  1        2 0.24000455E+00 0.12894161E+03</pdfrwt>
<totfact> 0.72506520E+05</totfact>
</mgrwt>
</event>
<event>
 6    2  0.1674964E-002  0.1265003E+03  0.7546771E-02  0.1232743E+00
          1   -1    0    0  503    0 -0.00000000000E+00  0.00000000000E+00  0.17241162986E+04  0.17241162986E+04  0.00000000000E+00 0. -1.
         21   -1    0    0  502  503  0.00000000000E+00 -0.00000000000E+00 -0.42934599504E+01  0.42934599504E+01  0.00000000000E+00 0. -1.
         25    2    1    2    0    0  0.15045173886E+02 -0.12289624764E+02  0.95518165125E+03  0.96352183369E+03  0.12499977989E+03 0.  0.
          5    1    3    3  501    0  0.34586953456E+02  0.13714371048E+02  0.85655378959E+02  0.93387339973E+02  0.10000000000E+00 0.  1.
         -5    1    3    3    0  501 -0.19541779570E+02 -0.26003995811E+02  0.86952627229E+03  0.87013449371E+03  0.10000000000E+00 0.  1.
          1    1    1    2  502    0 -0.15045173886E+02  0.12289624764E+02  0.76464118738E+03  0.76488792484E+03  0.00000000000E+00 0. -1.
<mgrwt>
<rscale>  1 0.12650034E+03</rscale>
<asrwt>0</asrwt>
<pdfrwt beam="1">  1       21 0.66053368E-03 0.12650034E+03</pdfrwt>
<pdfrwt beam="2">  1        1 0.26524811E+00 0.12650034E+03</pdfrwt>
<totfact> 0.41615137E+05</totfact>
</mgrwt>
</event>
<event>
 6    2  0.1674964E-002  0.1264654E+03  0.7546771E-02  0.1232797E+00
         21   -1    0    0  502  503  0.00000000000E+00  0.00000000000E+00  0.35125850298E+02  0.35125850298E+02  0.00000000000E+00 0. -1.
          4   -1    0    0  503    0 -0.00000000000E+00 -0.00000000000E+00 -0.36819990223E+03  0.36819990223E+03  0.00000000000E+00 0. -1.
         25    2    1    2    0    0 -0.92163988747E+01  0.16867730521E+02 -0.80263546053E+02  0.14978558959E+03  0.12499609467E+03 0.  0.
          5    1    3    3  501    0 -0.58264248161E+02  0.41057895245E+02 -0.51964453166E+02  0.88208773762E+02  0.10000000000E+00 0. -1.
         -5    1    3    3    0  501  0.49047849287E+02 -0.24190164723E+02 -0.28299092887E+02  0.61576815826E+02  0.10000000000E+00 0. -1.
          4    1    1    2  502    0  0.92163988747E+01 -0.16867730521E+02 -0.25281050588E+03  0.25354016294E+03  0.00000000000E+00 0. -1.
<mgrwt>
<rscale>  1 0.12646536E+03</rscale>
<asrwt>0</asrwt>
<pdfrwt beam="1">  1       21 0.54039769E-02 0.12646536E+03</pdfrwt>
<pdfrwt beam="2">  1        4 0.56646139E-01 0.12646536E+03</pdfrwt>
<totfact> 0.28403759E+04</totfact>
</mgrwt>
</event>
<event>
 6    2  0.1674964E-002  0.1477238E+03  0.7546771E-02  0.1203298E+00
          2   -1    0    0  503    0 -0.00000000000E+00  0.00000000000E+00  0.27415453202E+04  0.27415453202E+04  0.00000000000E+00 0. -1.
         21   -1    0    0  502  503  0.00000000000E+00 -0.00000000000E+00 -0.98215048636E+01  0.98215048636E+01  0.00000000000E+00 0. -1.
         25    2    1    2    0    0  0.70915663379E+02 -0.34112941960E+02  0.59050077449E+03  0.60869820048E+03  0.12501844053E+03 0.  0.
          5    1    3    3  501    0 -0.28447616147E+02 -0.15311709044E+02  0.55452703978E+02  0.64177314347E+02  0.10000000000E+00 0. -1.
         -5    1    3    3    0  501  0.99363279526E+02 -0.18801232916E+02  0.53504807051E+03  0.54452088613E+03  0.10000000000E+00 0. -1.
          2    1    1    2  502    0 -0.70915663379E+02  0.34112941960E+02  0.21412230409E+04  0.21426686246E+04  0.00000000000E+00 0. -1.
<mgrwt>
<rscale>  1 0.14772385E+03</rscale>
<asrwt>0</asrwt>
<pdfrwt beam="1">  1       21 0.15110029E-02 0.14772385E+03</pdfrwt>
<pdfrwt beam="2">  1        2 0.42177559E+00 0.14772385E+03</pdfrwt>
<totfact> 0.75799393E+04</totfact>
</mgrwt>
</event>
<event>
 6    2  0.1674964E-002  0.1293813E+03  0.7546771E-02  0.1228377E+00
         21   -1    0    0  502  503  0.00000000000E+00  0.00000000000E+00  0.61896448501E+02  0.61896448501E+02  0.00000000000E+00 0. -1.
          1   -1    0    0  503    0 -0.00000000000E+00 -0.00000000000E+00 -0.15104977296E+04  0.15104977296E+04  0.00000000000E+00 0. -1.
         25    2    1    2    0    0 -0.62741244961E+01  0.32741071285E+02 -0.61181034134E+01  0.12952583335E+03  0.12501267107E+03 0.  0.
          5    1    3    3  501    0 -0.12206676493E+02 -0.46019631891E+02  0.10635738624E+02  0.48784612395E+02  0.10000000000E+00 0. -1.
         -5    1    3    3    0  501  0.59325519968E+01  0.78760703176E+02 -0.16753842037E+02  0.80741220953E+02  0.10000000000E+00 0. -1.
          1    1    1    2  502    0  0.62741244961E+01 -0.32741071285E+02 -0.14424831777E+04  0.14428683447E+04  0.00000000000E+00 0. -1.
<mgrwt>
<rscale>  1 0.12938126E+03</rscale>
<asrwt>0</asrwt>
<pdfrwt beam="1">  1       21 0.95225307E-02 0.12938126E+03</pdfrwt>
<pdfrwt beam="2">  1        1 0.23238426E+00 0.12938126E+03</pdfrwt>
<totfact> 0.72694431E+03</totfact>
</mgrwt>
</event>
<event>
 6    2  0.1674964E-002  0.1567414E+03  0.7546771E-02  0.1192426E+00
          2   -1    0    0  503    0 -0.00000000000E+00  0.00000000000E+00  0.13702742068E+04  0.13702742068E+04  0.00000000000E+00 0.  1.
         21   -1    0    0  502  503  0.00000000000E+00 -0.00000000000E+00 -0.21013057576E+02  0.21013057576E+02  0.00000000000E+00 0. -1.
         25    2    1    2    0    0 -0.96956640950E+01 -0.94073799651E+02  0.30656299900E+03  0.34430908019E+03  0.12499593858E+03 0.  0.
          5    1    3    3  501    0 -0.41831941929E+02 -0.13865774767E+02  0.21066700916E+03  0.21522725158E+03  0.10000000000E+00 0.  1.
         -5    1    3    3    0  501  0.32136277834E+02 -0.80208024884E+02  0.95895989841E+02  0.12908182861E+03  0.10000000000E+00 0.  1.
          2    1    1    2  502    0  0.96956640950E+01  0.94073799651E+02  0.10426981502E+04  0.10469781842E+04  0.00000000000E+00 0.  1.
<mgrwt>
<rscale>  1 0.15674141E+03</rscale>
<asrwt>0</asrwt>
<pdfrwt beam="1">  1       21 0.32327792E-02 0.15674141E+03</pdfrwt>
<pdfrwt beam="2">  1        2 0.21081135E+00 0.15674141E+03</pdfrwt>
<totfact> 0.11525494E+05</totfact>
</mgrwt>
</event>
<event>
 6    2  0.1674964E-002  0.1285087E+03  0.7546771E-02  0.1229685E+00
         21   -1    0    0  502  503  0.00000000000E+00  0.00000000000E+00  0.73253727164E+01  0.73253727164E+01  0.00000000000E+00 0. -1.
          1   -1    0    0  503    0 -0.00000000000E+00 -0.00000000000E+00 -0.15231632473E+04  0.15231632473E+04  0.00000000000E+00 0.  1.
         25    2    1    2    0    0  0.27574653098E+02 -0.11328168098E+02 -0.57529119778E+03  0.58946962971E+03  0.12500317281E+03 0.  0.
          5    1    3    3  501    0  0.33440150020E+02  0.49807634173E+02 -0.38123797641E+03  0.38592933124E+03  0.10000000000E+00 0.  1.
         -5    1    3    3    0  501 -0.58654969218E+01 -0.61135802271E+02 -0.19405322138E+03  0.20354029847E+03  0.10000000000E+00 0.  1.
          1    1    1    2  502    0 -0.27574653098E+02  0.11328168098E+02 -0.94054667684E+03  0.94101899035E+03  0.00000000000E+00 0.  1.
<mgrwt>
<rscale>  1 0.12850868E+03</rscale>
<asrwt>0</asrwt>
<pdfrwt beam="1">  1       21 0.11269794E-02 0.12850868E+03</pdfrwt>
<pdfrwt beam="2">  1        1 0.23433302E+00 0.12850868E+03</pdfrwt>
<totfact> 0.24216430E+05</totfact>
</mgrwt>
</event>
<event>
 6    2  0.1674964E-002  0.1447065E+03  0.7546771E-02  0.1207133E+00
          3   -1    0    0  503    0 -0.00000000000E+00  0.00000000000E+00  0.18204356713E+03  0.18204356713E+03  0.00000000000E+00 0. -1.
         21   -1    0    0  502  503  0.00000000000E+00 -0.00000000000E+00 -0.68336006015E+02  0.68336006015E+02  0.00000000000E+00 0. -1.
         25    2    1    2    0    0  0.22395397632E+02  0.69384287529E+02  0.10075752808E+03  0.17632934325E+03  0.12499689851E+03 0.  0.
          5    1    3    3  501    0  0.63261280397E+02  0.25376816655E+02  0.12071105059E+02  0.69222062945E+02  0.10000000000E+00 0. -1.
         -5    1    3    3    0  501 -0.40865882766E+02  0.44007470874E+02  0.88686423020E+02  0.10710728031E+03  0.10000000000E+00 0. -1.
          3    1    1    2  502    0 -0.22395397632E+02 -0.69384287529E+02  0.12950033034E+02  0.74050229889E+02  0.00000000000E+00 0. -1.
<mgrwt>
<rscale>  1 0.14470645E+03</rscale>
<asrwt>0</asrwt>
<pdfrwt beam="1">  1       21 0.10513232E-01 0.14470645E+03</pdfrwt>
<pdfrwt beam="2">  1        3 0.28006702E-01 0.14470645E+03</pdfrwt>
<totfact> 0.43657535E+04</totfact>
</mgrwt>
</event>
<event>
 6    2  0.1674964E-002  0.1423501E+03  0.7546771E-02  0.1210201E+00
          1   -1    0    0  503    0 -0.00000000000E+00  0.00000000000E+00  0.19820428881E+03  0.19820428881E+03  0.00000000000E+00 0.  1.
         21   -1    0    0  502  503  0.00000000000E+00 -0.00000000000E+00 -0.71262619380E+02  0.71262619380E+02  0.00000000000E+00 0.  1.
         25    2    1    2    0    0  0.17363308246E+02 -0.65892143499E+02  0.21559907864E+02  0.14397358279E+03  0.12498121406E+03 0.  0.
          5    1    3    3  501    0 -0.95934547072E+01 -0.79979855787E+02 -0.28459070864E+02  0.85432665997E+02  0.10000000000E+00 0.  1.
         -5    1    3    3    0  501  0.26956762953E+02  0.14087712288E+02  0.50018978728E+02  0.58540916797E+02  0.10000000000E+00 0.  1.
          1    1    1    2  502    0 -0.17363308246E+02  0.65892143499E+02  0.10538176157E+03  0.12549332540E+03  0.00000000000E+00 0.  1.
<mgrwt>
<rscale>  1 0.14235014E+03</rscale>
<asrwt>0</asrwt>
<pdfrwt beam="1">  1       21 0.10963480E-01 0.14235014E+03</pdfrwt>
<pdfrwt beam="2">  1        1 0.30492967E-01 0.14235014E+03</pdfrwt>
<totfact> 0.10992278E+05</totfact>
</mgrwt>
</event>
<event>
 6    2  0.1674964E-002  0.1284045E+03  0.7546771E-02  0.1229843E+00
          1   -1    0    0  503    0 -0.00000000000E+00  0.00000000000E+00  0.11002511712E+04  0.11002511712E+04  0.00000000000E+00 0.  1.
         21   -1    0    0  502  503  0.00000000000E+00 -0.00000000000E+00 -0.11716643140E+03  0.11716643140E+03  0.00000000000E+00 0. -1.
         25    2    1    2    0    0 -0.26743151769E+02 -0.12139247416E+02 -0.81722929386E+02  0.15220498070E+03  0.12500064587E+03 0.  0.
          5    1    3    3  501    0 -0.68342328117E+02  0.30986884267E+01 -0.11791258714E+02  0.69421318516E+02  0.10000000000E+00 0.  1.
         -5    1    3    3    0  501  0.41599176348E+02 -0.15237935842E+02 -0.69931670672E+02  0.82783662184E+02  0.10000000000E+00 0.  1.
          1    1    1    2  502    0  0.26743151769E+02  0.12139247416E+02  0.10648076692E+04  0.10652126219E+04  0.00000000000E+00 0.  1.
<mgrwt>
<rscale>  1 0.12840451E+03</rscale>
<asrwt>0</asrwt>
<pdfrwt beam="1">  1       21 0.18025606E-01 0.12840451E+03</pdfrwt>
<pdfrwt beam="2">  1        1 0.16926940E+00 0.12840451E+03</pdfrwt>
<totfact> 0.43812193E+03</totfact>
</mgrwt>
</event>
<event>
 6    2  0.1674964E-002  0.1270647E+03  0.7546771E-02  0.1231877E+00
          1   -1    0    0  503    0 -0.00000000000E+00  0.00000000000E+00  0.51664414849E+03  0.51664414849E+03  0.00000000000E+00 0.  1.
         21   -1    0    0  502  503  0.00000000000E+00 -0.00000000000E+00 -0.44749905699E+02  0.44749905699E+02  0.00000000000E+00 0. -1.
         25    2    1    2    0    0 -0.22734490253E+02 -0.13974321753E+01  0.46371011134E+02  0.13526164455E+03  0.12500652763E+03 0.  0.
          5    1    3    3  501    0 -0.19738145955E+02  0.50715066919E+02 -0.13258713075E+02  0.56012640455E+02  0.10000000000E+00 0.  1.
         -5    1    3    3    0  501 -0.29963442973E+01 -0.52112499094E+02  0.59629724209E+02  0.79249004096E+02  0.10000000000E+00 0.  1.
          1    1    1    2  502    0  0.22734490253E+02  0.13974321753E+01  0.42552323166E+03  0.42613240964E+03  0.00000000000E+00 0.  1.
<mgrwt>
<rscale>  1 0.12706472E+03</rscale>
<asrwt>0</asrwt>
<pdfrwt beam="1">  1       21 0.68846012E-02 0.12706472E+03</pdfrwt>
<pdfrwt beam="2">  1        1 0.79483711E-01 0.12706472E+03</pdfrwt>
<totfact> 0.73996398E+04</totfact>
</mgrwt>
</event>
<event>
 6    2  0.1674964E-002  0.1279232E+03  0.7546771E-02  0.1230570E+00
         21   -1    0    0  502  503  0.00000000000E+00  0.00000000000E+00  0.83256848976E+02  0.83256848976E+02  0.00000000000E+00 0. -1.
          3   -1    0    0  503    0 -0.00000000000E+00 -0.00000000000E+00 -0.72493556139E+02  0.72493556139E+02  0.00000000000E+00 0. -1.
         25    2    1    2    0    0  0.16262869127E+02 -0.21846161066E+02  0.12019408283E+02  0.12848662893E+03  0.12499044753E+03 0.  0.
          5    1    3    3  501    0 -0.21024157394E+02  0.17364277166E+01 -0.48907436296E+02  0.53263286609E+02  0.10000000000E+00 0. -1.
         -5    1    3    3    0  501  0.37287026520E+02 -0.23582588783E+02  0.60926844579E+02  0.75223342326E+02  0.10000000000E+00 0. -1.
          3    1    1    2  502    0 -0.16262869127E+02  0.21846161066E+02 -0.12561154459E+01  0.27263776180E+02  0.00000000000E+00 0. -1.
<mgrwt>
<rscale>  1 0.12792321E+03</rscale>
<asrwt>0</asrwt>
<pdfrwt beam="1">  1       21 0.12808746E-01 0.12792321E+03</pdfrwt>
<pdfrwt beam="2">  1        3 0.11152855E-01 0.12792321E+03</pdfrwt>
<totfact> 0.15104208E+05</totfact>
</mgrwt>
</event>
<event>
 6    2  0.1674964E-002  0.1322046E+03  0.7546771E-02  0.1224221E+00
         21   -1    0    0  502  503  0.00000000000E+00  0.00000000000E+00  0.74166129162E+02  0.74166129162E+02  0.00000000000E+00 0.  1.
          2   -1    0    0  503    0 -0.00000000000E+00 -0.00000000000E+00 -0.31250465431E+03  0.31250465431E+03  0.00000000000E+00 0. -1.
         25    2    1    2    0    0  0.36650449146E+02  0.22526834239E+02  0.11920624122E+02  0.13274095955E+03  0.12500938916E+03 0.  0.
          5    1    3    3  501    0  0.35235934899E+01  0.72059722462E+02  0.12086217578E+02  0.73151254041E+02  0.10000000000E+00 0. -1.
         -5    1    3    3    0  501  0.33126855657E+02 -0.49532888223E+02 -0.16559345625E+00  0.59589705509E+02  0.10000000000E+00 0. -1.
          2    1    1    2  502    0 -0.36650449146E+02 -0.22526834239E+02 -0.25025914927E+03  0.25392982392E+03  0.00000000000E+00 0. -1.
<mgrwt>
<rscale>  1 0.13220462E+03</rscale>
<asrwt>0</asrwt>
<pdfrwt beam="1">  1       21 0.11410174E-01 0.13220462E+03</pdfrwt>
<pdfrwt beam="2">  1        2 0.48077638E-01 0.13220462E+03</pdfrwt>
<totfact> 0.82774645E+04</totfact>
</mgrwt>
</event>
<event>
 6    2  0.1674964E-002  0.1260543E+03  0.7546771E-02  0.1233431E+00
          1   -1    0    0  503    0 -0.00000000000E+00  0.00000000000E+00  0.24832574085E+03  0.24832574085E+03  0.00000000000E+00 0.  1.
         21   -1    0    0  502  503  0.00000000000E+00 -0.00000000000E+00 -0.22057791047E+02  0.22057791047E+02  0.00000000000E+00 0.  1.
         25    2    1    2    0    0  0.16063443634E+02 -0.25297274216E+01  0.16888631899E+03  0.21074222661E+03  0.12500105436E+03 0.  0.
          5    1    3    3  501    0  0.62462176005E+02 -0.32558989123E+02  0.10233452922E+03  0.12423355857E+03  0.10000000000E+00 0. -1.
         -5    1    3    3    0  501 -0.46398732371E+02  0.30029261701E+02  0.66551789771E+02  0.86508668037E+02  0.10000000000E+00 0. -1.
          1    1    1    2  502    0 -0.16063443634E+02  0.25297274216E+01  0.57381630811E+02  0.59641305291E+02  0.00000000000E+00 0.  1.
<mgrwt>
<rscale>  1 0.12605434E+03</rscale>
<asrwt>0</asrwt>
<pdfrwt beam="1">  1       21 0.33935065E-02 0.12605434E+03</pdfrwt>
<pdfrwt beam="2">  1        1 0.38203958E-01 0.12605434E+03</pdfrwt>
<totfact> 0.60696546E+05</totfact>
</mgrwt>
</event>
<event>
 6    2  0.1674964E-002  0.1566607E+03  0.7546771E-02  0.1192519E+00
         21   -1    0    0  502  503  0.00000000000E+00  0.00000000000E+00  0.75802520975E+03  0.75802520975E+03  0.00000000000E+00 0. -1.
          1   -1    0    0  503    0 -0.00000000000E+00 -0.00000000000E+00 -0.53379666160E+02  0.53379666160E+02  0.00000000000E+00 0. -1.
         25    2    1    2    0    0 -0.81703174685E+02  0.47329304047E+02  0.69951594640E+03  0.71684386627E+03  0.12500839001E+03 0.  0.
          5    1    3    3  501    0  0.13570410748E+01  0.69645747044E+02  0.27336925584E+03  0.28210482393E+03  0.10000000000E+00 0. -1.
         -5    1    3    3    0  501 -0.83060215760E+02 -0.22316442997E+02  0.42614669056E+03  0.43473904235E+03  0.10000000000E+00 0. -1.
          1    1    1    2  502    0  0.81703174685E+02 -0.47329304047E+02  0.51295971860E+01  0.94561009631E+02  0.00000000000E+00 0. -1.
<mgrwt>
<rscale>  1 0.15666068E+03</rscale>
<asrwt>0</asrwt>
<pdfrwt beam="1">  1       21 0.11661926E+00 0.15666068E+03</pdfrwt>
<pdfrwt beam="2">  1        1 0.82122569E-02 0.15666068E+03</pdfrwt>
<totfact> 0.50922566E+03</totfact>
</mgrwt>
</event>
<event>
 6    2  0.1674964E-002  0.1317570E+03  0.7546771E-02  0.1224872E+00
         21   -1    0    0  502  503  0.00000000000E+00  0.00000000000E+00  0.22362462765E+03  0.22362462765E+03  0.00000000000E+00 0. -1.
          3   -1    0    0  503    0 -0.00000000000E+00 -0.00000000000E+00 -0.36150284111E+02  0.36150284111E+02  0.00000000000E+00 0. -1.
         25    2    1    2    0    0  0.33109480141E+02  0.25211150222E+02  0.16887295945E+03  0.21419145795E+03  0.12501225723E+03 0.  0.
          5    1    3    3  501    0 -0.49209564319E+01  0.66549980627E+02  0.12922144190E+03  0.14543488845E+03  0.10000000000E+00 0.  1.
         -5    1    3    3    0  501  0.38030436573E+02 -0.41338830405E+02  0.39651517550E+02  0.68756569499E+02  0.10000000000E+00 0.  1.
          3    1    1    2  502    0 -0.33109480141E+02 -0.25211150222E+02  0.18601384088E+02  0.45583453804E+02  0.00000000000E+00 0. -1.
<mgrwt>
<rscale>  1 0.13175699E+03</rscale>
<asrwt>0</asrwt>
<pdfrwt beam="1">  1       21 0.34403788E-01 0.13175699E+03</pdfrwt>
<pdfrwt beam="2">  1        3 0.55615823E-02 0.13175699E+03</pdfrwt>
<totfact> 0.74559428E+04</totfact>
</mgrwt>
</event>
<event>
 6    2  0.1674964E-002  0.1261346E+03  0.7546771E-02  0.1233307E+00
         21   -1    0    0  502  503  0.00000000000E+00  0.00000000000E+00  0.39837982071E+03  0.39837982071E+03  0.00000000000E+00 0.  1.
          1   -1    0    0  503    0 -0.00000000000E+00 -0.00000000000E+00 -0.32554135695E+03  0.32554135695E+03  0.00000000000E+00 0. -1.
         25    2    1    2    0    0 -0.72599631799E+01 -0.15170736855E+02  0.38816595882E+03  0.40814548597E+03  0.12500827096E+03 0.  0.
          5    1    3    3  501    0 -0.39646526907E+02 -0.30532361701E+02  0.35746290871E+03  0.36094849121E+03  0.10000000000E+00 0.  1.
         -5    1    3    3    0  501  0.32386563727E+02  0.15361624846E+02  0.30703050109E+02  0.47196994755E+02  0.10000000000E+00 0.  1.
          1    1    1    2  502    0  0.72599631799E+01  0.15170736855E+02 -0.31532749506E+03  0.31577569169E+03  0.00000000000E+00 0. -1.
<mgrwt>
<rscale>  1 0.12613456E+03</rscale>
<asrwt>0</asrwt>
<pdfrwt beam="1">  1       21 0.61289203E-01 0.12613456E+03</pdfrwt>
<pdfrwt beam="2">  1        1 0.50083286E-01 0.12613456E+03</pdfrwt>
<totfact> 0.22067183E+03</totfact>
</mgrwt>
</event>
<event>
 6    2  0.1674964E-002  0.1260914E+03  0.7546771E-02  0.1233373E+00
         21   -1    0    0  502  503  0.00000000000E+00  0.00000000000E+00  0.77518955721E+03  0.77518955721E+03  0.00000000000E+00 0.  1.
          2   -1    0    0  503    0 -0.00000000000E+00 -0.00000000000E+00 -0.34770015634E+03  0.34770015634E+03  0.00000000000E+00 0.  1.
         25    2    1    2    0    0 -0.95871047864E+01  0.13495060378E+02  0.76986078272E+03  0.78011837237E+03  0.12500008361E+03 0.  0.
          5    1    3    3  501    0  0.11271791851E+02 -0.34888744412E+02  0.77281577994E+02  0.85537886784E+02  0.10000000000E+00 0.  1.
         -5    1    3    3    0  501 -0.20858896637E+02  0.48383804790E+02  0.69257920473E+03  0.69458048558E+03  0.10000000000E+00 0.  1.
          2    1    1    2  502    0  0.95871047864E+01 -0.13495060378E+02 -0.34237138184E+03  0.34277134119E+03  0.00000000000E+00 0.  1.
<mgrwt>
<rscale>  1 0.12609144E+03</rscale>
<asrwt>0</asrwt>
<pdfrwt beam="1">  1       21 0.11925993E+00 0.12609144E+03</pdfrwt>
<pdfrwt beam="2">  1        2 0.53492332E-01 0.12609144E+03</pdfrwt>
<totfact> 0.65147480E+02</totfact>
</mgrwt>
</event>
<event>
 6    2  0.1674964E-002  0.1636177E+03  0.7546771E-02  0.1184672E+00
         21   -1    0    0  502  503  0.00000000000E+00  0.00000000000E+00  0.22081349216E+03  0.22081349216E+03  0.00000000000E+00 0. -1.
          3   -1    0    0  503    0 -0.00000000000E+00 -0.00000000000E+00 -0.91419060540E+02  0.91419060540E+02  0.00000000000E+00 0. -1.
         25    2    1    2    0    0  0.43292456835E+01  0.10548738168E+03  0.12615706030E+03  0.20660674792E+03  0.12499765742E+03 0.  0.
          5    1    3    3  501    0  0.59544130614E+02  0.67237938320E+02  0.42615023288E+02  0.99410734078E+02  0.10000000000E+00 0. -1.
         -5    1    3    3    0  501 -0.55214884930E+02  0.38249443361E+02  0.83542037013E+02  0.10719601384E+03  0.10000000000E+00 0. -1.
          3    1    1    2  502    0 -0.43292456835E+01 -0.10548738168E+03  0.32373713184E+01  0.10562580478E+03  0.00000000000E+00 0. -1.
<mgrwt>
<rscale>  1 0.16361768E+03</rscale>
<asrwt>0</asrwt>
<pdfrwt beam="1">  1       21 0.33971306E-01 0.16361768E+03</pdfrwt>
<pdfrwt beam="2">  1        3 0.14064471E-01 0.16361768E+03</pdfrwt>
<totfact> 0.16918806E+04</totfact>
</mgrwt>
</event>
<event>
 6    2  0.1674964E-002  0.1290442E+03  0.7546771E-02  0.1228881E+00
         21   -1    0    0  502  503  0.00000000000E+00  0.00000000000E+00  0.42704638161E+02  0.42704638161E+02  0.00000000000E+00 0. -1.
          2   -1    0    0  503    0 -0.00000000000E+00 -0.00000000000E+00 -0.15292981845E+03  0.15292981845E+03  0.00000000000E+00 0. -1.
         25    2    1    2    0    0  0.26762874414E+02  0.17792942009E+02 -0.93869828273E+02  0.15957426011E+03  0.12497823650E+03 0.  0.
          5    1    3    3  501    0  0.54594345428E+02 -0.36370953123E+02 -0.64378119341E+02  0.91912681572E+02  0.10000000000E+00 0. -1.
         -5    1    3    3    0  501 -0.27831471014E+02  0.54163895132E+02 -0.29491708932E+02  0.67661578539E+02  0.10000000000E+00 0. -1.
          2    1    1    2  502    0 -0.26762874414E+02 -0.17792942009E+02 -0.16355352020E+02  0.36060196504E+02  0.00000000000E+00 0. -1.
<mgrwt>
<rscale>  1 0.12904418E+03</rscale>
<asrwt>0</asrwt>
<pdfrwt beam="1">  1       21 0.65699443E-02 0.12904418E+03</pdfrwt>
<pdfrwt beam="2">  1        2 0.23527664E-01 0.12904418E+03</pdfrwt>
<totfact> 0.46451068E+05</totfact>
</mgrwt>
</event>
<event>
 6    2  0.1674964E-002  0.2207746E+03  0.7546771E-02  0.1133307E+00
         21   -1    0    0  502  503  0.00000000000E+00  0.00000000000E+00  0.45985308406E+02  0.45985308406E+02  0.00000000000E+00 0. -1.
          2   -1    0    0  503    0 -0.00000000000E+00 -0.00000000000E+00 -0.12035329201E+04  0.12035329201E+04  0.00000000000E+00 0. -1.
         25    2    1    2    0    0 -0.15946248115E+03  0.87684952378E+02 -0.94151045330E+03  0.96704878311E+03  0.12499792590E+03 0.  0.
          5    1    3    3  501    0 -0.19035400801E+02  0.21191249042E+01 -0.10933528585E+02  0.22054233637E+02  0.10000000000E+00 0. -1.
         -5    1    3    3    0  501 -0.14042708035E+03  0.85565827474E+02 -0.93057692471E+03  0.94499454947E+03  0.10000000000E+00 0. -1.
          2    1    1    2  502    0  0.15946248115E+03 -0.87684952378E+02 -0.21603715835E+03  0.28246944535E+03  0.00000000000E+00 0. -1.
<mgrwt>
<rscale>  1 0.22077458E+03</rscale>
<asrwt>0</asrwt>
<pdfrwt beam="1">  1       21 0.70746635E-02 0.22077458E+03</pdfrwt>
<pdfrwt beam="2">  1        2 0.18515889E+00 0.22077458E+03</pdfrwt>
<totfact> 0.37564522E+04</totfact>
</mgrwt>
</event>
<event>
 6    2  0.1674964E-002  0.1468349E+03  0.7546771E-02  0.1204417E+00
          2   -1    0    0  503    0 -0.00000000000E+00  0.00000000000E+00  0.33749043386E+03  0.33749043386E+03  0.00000000000E+00 0.  1.
         21   -1    0    0  502  503  0.00000000000E+00 -0.00000000000E+00 -0.77704077009E+02  0.77704077009E+02  0.00000000000E+00 0. -1.
         25    2    1    2    0    0  0.29258646564E+02  0.71263637136E+02  0.27484418583E+01  0.14686064398E+03  0.12500368171E+03 0.  0.
          5    1    3    3  501    0  0.55177798516E+02  0.11303914581E+02  0.42352320732E+02  0.70470539982E+02  0.10000000000E+00 0. -1.
         -5    1    3    3    0  501 -0.25919151952E+02  0.59959722556E+02 -0.39603878874E+02  0.76390103997E+02  0.10000000000E+00 0. -1.
          2    1    1    2  502    0 -0.29258646564E+02 -0.71263637136E+02  0.25703791499E+03  0.26833386689E+03  0.00000000000E+00 0.  1.
<mgrwt>
<rscale>  1 0.14683492E+03</rscale>
<asrwt>0</asrwt>
<pdfrwt beam="1">  1       21 0.11954474E-01 0.14683492E+03</pdfrwt>
<pdfrwt beam="2">  1        2 0.51921604E-01 0.14683492E+03</pdfrwt>
<totfact> 0.70398264E+04</totfact>
</mgrwt>
</event>
<event>
 6    2  0.1674964E-002  0.1287779E+03  0.7546771E-02  0.1229280E+00
         21   -1    0    0  502  503  0.00000000000E+00  0.00000000000E+00  0.17961667767E+03  0.17961667767E+03  0.00000000000E+00 0.  1.
          2   -1    0    0  503    0 -0.00000000000E+00 -0.00000000000E+00 -0.64573197307E+03  0.64573197307E+03  0.00000000000E+00 0. -1.
         25    2    1    2    0    0  0.30582971580E+02 -0.47943485503E+01  0.15610017929E+03  0.20236357799E+03  0.12500179116E+03 0.  0.
          5    1    3    3  501    0  0.64173017315E+01  0.58715877225E+02  0.89368103270E+02  0.10712331157E+03  0.10000000000E+00 0. -1.
         -5    1    3    3    0  501  0.24165669848E+02 -0.63510225775E+02  0.66732076017E+02  0.95240266415E+02  0.10000000000E+00 0. -1.
          2    1    1    2  502    0 -0.30582971580E+02  0.47943485503E+01 -0.62221547469E+03  0.62298507275E+03  0.00000000000E+00 0. -1.
<mgrwt>
<rscale>  1 0.12877792E+03</rscale>
<asrwt>0</asrwt>
<pdfrwt beam="1">  1       21 0.27633335E-01 0.12877792E+03</pdfrwt>
<pdfrwt beam="2">  1        2 0.99343381E-01 0.12877792E+03</pdfrwt>
<totfact> 0.74272664E+03</totfact>
</mgrwt>
</event>
<event>
 6    2  0.1674964E-002  0.1307073E+03  0.7546771E-02  0.1226410E+00
         21   -1    0    0  502  503  0.00000000000E+00  0.00000000000E+00  0.60718234357E+02  0.60718234357E+02  0.00000000000E+00 0. -1.
          2   -1    0    0  503    0 -0.00000000000E+00 -0.00000000000E+00 -0.14950629288E+04  0.14950629288E+04  0.00000000000E+00 0. -1.
         25    2    1    2    0    0 -0.38161589197E+02  0.15770799775E+01 -0.10178585497E+02  0.13110298899E+03  0.12500238417E+03 0.  0.
          5    1    3    3  501    0  0.14944294932E+02 -0.15901172158E+02 -0.55176974277E+02  0.59335383350E+02  0.10000000000E+00 0.  1.
         -5    1    3    3    0  501 -0.53105884129E+02  0.17478252135E+02  0.44998388780E+02  0.71767605642E+02  0.10000000000E+00 0.  1.
          2    1    1    2  502    0  0.38161589197E+02 -0.15770799775E+01 -0.14241661089E+04  0.14246781741E+04  0.00000000000E+00 0. -1.
<mgrwt>
<rscale>  1 0.13070727E+03</rscale>
<asrwt>0</asrwt>
<pdfrwt beam="1">  1       21 0.93412677E-02 0.13070727E+03</pdfrwt>
<pdfrwt beam="2">  1        2 0.23000966E+00 0.13070727E+03</pdfrwt>
<totfact> 0.16487294E+04</totfact>
</mgrwt>
</event>
<event>
 6    2  0.1674964E-002  0.1352435E+03  0.7546771E-02  0.1219876E+00
         21   -1    0    0  502  503  0.00000000000E+00  0.00000000000E+00  0.14761746047E+02  0.14761746047E+02  0.00000000000E+00 0. -1.
          2   -1    0    0  503    0 -0.00000000000E+00 -0.00000000000E+00 -0.11360499595E+04  0.11360499595E+04  0.00000000000E+00 0.  1.
         25    2    1    2    0    0 -0.41427949518E+02 -0.30795494388E+02 -0.31415473073E+03  0.34202922774E+03  0.12500464116E+03 0.  0.
          5    1    3    3  501    0  0.29838570919E+02 -0.52243980550E+02 -0.12388380193E+03  0.13772066003E+03  0.10000000000E+00 0.  1.
         -5    1    3    3    0  501 -0.71266520436E+02  0.21448486162E+02 -0.19027092880E+03  0.20430856771E+03  0.10000000000E+00 0.  1.
          2    1    1    2  502    0  0.41427949518E+02  0.30795494388E+02 -0.80713348276E+03  0.80878247784E+03  0.00000000000E+00 0.  1.
<mgrwt>
<rscale>  1 0.13524348E+03</rscale>
<asrwt>0</asrwt>
<pdfrwt beam="1">  1       21 0.22710372E-02 0.13524348E+03</pdfrwt>
<pdfrwt beam="2">  1        2 0.17477697E+00 0.13524348E+03</pdfrwt>
<totfact> 0.27555163E+05</totfact>
</mgrwt>
</event>
<event>
 6    2  0.1674964E-002  0.1442610E+03  0.7546771E-02  0.1207708E+00
          2   -1    0    0  503    0 -0.00000000000E+00  0.00000000000E+00  0.24845463603E+04  0.24845463603E+04  0.00000000000E+00 0.  1.
         21   -1    0    0  502  503  0.00000000000E+00 -0.00000000000E+00 -0.20360765787E+02  0.20360765787E+02  0.00000000000E+00 0.  1.
         25    2    1    2    0    0 -0.67884142202E+02 -0.24048932200E+02  0.24329573204E+03  0.28284988354E+03  0.12499854195E+03 0.  0.
          5    1    3    3  501    0 -0.23365930191E+02  0.25001742807E+02  0.38807233494E+01  0.34440148821E+02  0.10000000000E+00 0. -1.
         -5    1    3    3    0  501 -0.44518212011E+02 -0.49050675007E+02  0.23941500869E+03  0.24840973472E+03  0.10000000000E+00 0. -1.
          2    1    1    2  502    0  0.67884142202E+02  0.24048932200E+02  0.22208898625E+04  0.22220572425E+04  0.00000000000E+00 0.  1.
<mgrwt>
<rscale>  1 0.14426103E+03</rscale>
<asrwt>0</asrwt>
<pdfrwt beam="1">  1       21 0.31324275E-02 0.14426103E+03</pdfrwt>
<pdfrwt beam="2">  1        2 0.38223766E+00 0.14426103E+03</pdfrwt>
<totfact> 0.32048206E+04</totfact>
</mgrwt>
</event>
<event>
 6    2  0.1674964E-002  0.1301694E+03  0.7546771E-02  0.1227205E+00
         21   -1    0    0  502  503  0.00000000000E+00  0.00000000000E+00  0.13249561260E+02  0.13249561260E+02  0.00000000000E+00 0. -1.
          2   -1    0    0  503    0 -0.00000000000E+00 -0.00000000000E+00 -0.14708280811E+04  0.14708280811E+04  0.00000000000E+00 0.  1.
         25    2    1    2    0    0 -0.51471735046E+01 -0.35903422321E+02 -0.31383849926E+03  0.33976265783E+03  0.12501404286E+03 0.  0.
          5    1    3    3  501    0  0.10560576588E+02 -0.75938293127E+02 -0.12967620763E+03  0.15064554081E+03  0.10000000000E+00 0. -1.
         -5    1    3    3    0  501 -0.15707750093E+02  0.40034870806E+02 -0.18416229162E+03  0.18911711702E+03  0.10000000000E+00 0. -1.
          2    1    1    2  502    0  0.51471735046E+01  0.35903422321E+02 -0.11437400206E+04  0.11443149846E+04  0.00000000000E+00 0.  1.
<mgrwt>
<rscale>  1 0.13016935E+03</rscale>
<asrwt>0</asrwt>
<pdfrwt beam="1">  1       21 0.20383931E-02 0.13016935E+03</pdfrwt>
<pdfrwt beam="2">  1        2 0.22628135E+00 0.13016935E+03</pdfrwt>
<totfact> 0.21632022E+05</totfact>
</mgrwt>
</event>
<event>
 6    2  0.1674964E-002  0.1295995E+03  0.7546771E-02  0.1228051E+00
         21   -1    0    0  502  503  0.00000000000E+00  0.00000000000E+00  0.20319663925E+02  0.20319663925E+02  0.00000000000E+00 0. -1.
          2   -1    0    0  503    0 -0.00000000000E+00 -0.00000000000E+00 -0.12528472887E+04  0.12528472887E+04  0.00000000000E+00 0.  1.
         25    2    1    2    0    0  0.30652405619E+02  0.15208236151E+02 -0.18950166928E+03  0.22957986750E+03  0.12500068992E+03 0.  0.
          5    1    3    3  501    0  0.66684754762E+02  0.14042889304E+02 -0.47487052176E+02  0.83060757173E+02  0.10000000000E+00 0. -1.
         -5    1    3    3    0  501 -0.36032349143E+02  0.11653468469E+01 -0.14201461711E+03  0.14651911032E+03  0.10000000000E+00 0. -1.
          2    1    1    2  502    0 -0.30652405619E+02 -0.15208236151E+02 -0.10430259555E+04  0.10435870852E+04  0.00000000000E+00 0.  1.
<mgrwt>
<rscale>  1 0.12959951E+03</rscale>
<asrwt>0</asrwt>
<pdfrwt beam="1">  1       21 0.31261023E-02 0.12959951E+03</pdfrwt>
<pdfrwt beam="2">  1        2 0.19274573E+00 0.12959951E+03</pdfrwt>
<totfact> 0.14076600E+05</totfact>
</mgrwt>
</event>
<event>
 6    2  0.1674964E-002  0.1260701E+03  0.7546771E-02  0.1233406E+00
         21   -1    0    0  502  503  0.00000000000E+00  0.00000000000E+00  0.58207375122E+02  0.58207375122E+02  0.00000000000E+00 0.  1.
          1   -1    0    0  503    0 -0.00000000000E+00 -0.00000000000E+00 -0.83455061381E+03  0.83455061381E+03  0.00000000000E+00 0.  1.
         25    2    1    2    0    0  0.12154861284E+02  0.11030591300E+02 -0.10246954258E+02  0.12648588869E+03  0.12499706144E+03 0.  0.
          5    1    3    3  501    0  0.86957777024E+01  0.12212023043E+02  0.57102242798E+02  0.59037498162E+02  0.10000000000E+00 0. -1.
         -5    1    3    3    0  501  0.34590835813E+01 -0.11814317433E+01 -0.67349197056E+02  0.67448390524E+02  0.10000000000E+00 0. -1.
          1    1    1    2  502    0 -0.12154861284E+02 -0.11030591300E+02 -0.76609628443E+03  0.76627210025E+03  0.00000000000E+00 0.  1.
<mgrwt>
<rscale>  1 0.12607014E+03</rscale>
<asrwt>0</asrwt>
<pdfrwt beam="1">  1       21 0.89549809E-02 0.12607014E+03</pdfrwt>
<pdfrwt beam="2">  1        1 0.12839240E+00 0.12607014E+03</pdfrwt>
<totfact> 0.24010533E+04</totfact>
</mgrwt>
</event>
<event>
 6    2  0.1674964E-002  0.1292251E+03  0.7546771E-02  0.1228610E+00
         21   -1    0    0  502  503  0.00000000000E+00  0.00000000000E+00  0.13760755027E+02  0.13760755027E+02  0.00000000000E+00 0.  1.
          1   -1    0    0  503    0 -0.00000000000E+00 -0.00000000000E+00 -0.48303897658E+03  0.48303897658E+03  0.00000000000E+00 0.  1.
         25    2    1    2    0    0 -0.15295448077E+02  0.29002716586E+02 -0.34989070041E+03  0.37299145843E+03  0.12499607006E+03 0.  0.
          5    1    3    3  501    0  0.41778650876E+02 -0.60970121681E+01 -0.24440238159E+03  0.24802250574E+03  0.10000000000E+00 0.  1.
         -5    1    3    3    0  501 -0.57074098953E+02  0.35099728754E+02 -0.10548831882E+03  0.12496895269E+03  0.10000000000E+00 0.  1.
          1    1    1    2  502    0  0.15295448077E+02 -0.29002716586E+02 -0.11938752114E+03  0.12380827317E+03  0.00000000000E+00 0.  1.
<mgrwt>
<rscale>  1 0.12922510E+03</rscale>
<asrwt>0</asrwt>
<pdfrwt beam="1">  1       21 0.21170395E-02 0.12922510E+03</pdfrwt>
<pdfrwt beam="2">  1        1 0.74313681E-01 0.12922510E+03</pdfrwt>
<totfact> 0.57185342E+05</totfact>
</mgrwt>
</event>
<event>
 6    2  0.1674964E-002  0.2324286E+03  0.7546771E-02  0.1124942E+00
         21   -1    0    0  502  503  0.00000000000E+00  0.00000000000E+00  0.90549667890E+02  0.90549667890E+02  0.00000000000E+00 0.  1.
          1   -1    0    0  503    0 -0.00000000000E+00 -0.00000000000E+00 -0.37923033810E+04  0.37923033810E+04  0.00000000000E+00 0. -1.
         25    2    1    2    0    0  0.69011953891E+02 -0.18339916456E+03 -0.65717668024E+02  0.24154064476E+03  0.12500067135E+03 0.  0.
          5    1    3    3  501    0 -0.25058818658E+01 -0.91769968395E+02  0.23788946137E+02  0.94836335344E+02  0.10000000000E+00 0.  1.
         -5    1    3    3    0  501  0.71517835757E+02 -0.91629196167E+02 -0.89506614161E+02  0.14670430941E+03  0.10000000000E+00 0.  1.
          1    1    1    2  502    0 -0.69011953891E+02  0.18339916456E+03 -0.36360360451E+04  0.36413124041E+04  0.00000000000E+00 0. -1.
<mgrwt>
<rscale>  1 0.23242864E+03</rscale>
<asrwt>0</asrwt>
<pdfrwt beam="1">  1       21 0.13930718E-01 0.23242864E+03</pdfrwt>
<pdfrwt beam="2">  1        1 0.58343130E+00 0.23242864E+03</pdfrwt>
<totfact> 0.94458006E+01</totfact>
</mgrwt>
</event>
<event>
 6    2  0.1674964E-002  0.1453029E+03  0.7546771E-02  0.1206367E+00
          3   -1    0    0  503    0 -0.00000000000E+00  0.00000000000E+00  0.85211600265E+02  0.85211600265E+02  0.00000000000E+00 0.  1.
         21   -1    0    0  502  503  0.00000000000E+00 -0.00000000000E+00 -0.22816440070E+03  0.22816440070E+03  0.00000000000E+00 0.  1.
         25    2    1    2    0    0 -0.54798697803E+02  0.49844837460E+02 -0.17936393744E+03  0.23083403587E+03  0.12500209983E+03 0.  0.
          5    1    3    3  501    0  0.12268485796E+02  0.68125111369E+02 -0.55201338443E+02  0.88536683407E+02  0.10000000000E+00 0.  1.
         -5    1    3    3    0  501 -0.67067183599E+02 -0.18280273909E+02 -0.12416259899E+03  0.14229735247E+03  0.10000000000E+00 0.  1.
          3    1    1    2  502    0  0.54798697803E+02 -0.49844837460E+02  0.36411137007E+02  0.82541965087E+02  0.00000000000E+00 0.  1.
<mgrwt>
<rscale>  1 0.14530289E+03</rscale>
<asrwt>0</asrwt>
<pdfrwt beam="1">  1       21 0.35102215E-01 0.14530289E+03</pdfrwt>
<pdfrwt beam="2">  1        3 0.13109477E-01 0.14530289E+03</pdfrwt>
<totfact> 0.17751858E+04</totfact>
</mgrwt>
</event>
<event>
 6    2  0.1674964E-002  0.1290226E+03  0.7546771E-02  0.1228913E+00
          1   -1    0    0  503    0 -0.00000000000E+00  0.00000000000E+00  0.21670625726E+03  0.21670625726E+03  0.00000000000E+00 0.  1.
         21   -1    0    0  502  503  0.00000000000E+00 -0.00000000000E+00 -0.67380639851E+02  0.67380639851E+02  0.00000000000E+00 0. -1.
         25    2    1    2    0    0  0.28572755642E+02 -0.14276969564E+02 -0.23906453230E+01  0.12904477831E+03  0.12500642143E+03 0.  0.
          5    1    3    3  501    0  0.60027007924E+01  0.35436117608E+02 -0.46560077806E+02  0.58818378873E+02  0.10000000000E+00 0.  1.
         -5    1    3    3    0  501  0.22570054850E+02 -0.49713087172E+02  0.44169432483E+02  0.70226399437E+02  0.10000000000E+00 0.  1.
          1    1    1    2  502    0 -0.28572755642E+02  0.14276969564E+02  0.15171626273E+03  0.15504211880E+03  0.00000000000E+00 0.  1.
<mgrwt>
<rscale>  1 0.12902263E+03</rscale>
<asrwt>0</asrwt>
<pdfrwt beam="1">  1       21 0.10366252E-01 0.12902263E+03</pdfrwt>
<pdfrwt beam="2">  1        1 0.33339424E-01 0.12902263E+03</pdfrwt>
<totfact> 0.10819104E+05</totfact>
</mgrwt>
</event>
<event>
 6    2  0.1674964E-002  0.1263849E+03  0.7546771E-02  0.1232921E+00
          1   -1    0    0  503    0 -0.00000000000E+00  0.00000000000E+00  0.14535177642E+04  0.14535177642E+04  0.00000000000E+00 0.  1.
         21   -1    0    0  502  503  0.00000000000E+00 -0.00000000000E+00 -0.22561212349E+02  0.22561212349E+02  0.00000000000E+00 0.  1.
         25    2    1    2    0    0 -0.14332423172E+02 -0.11979968498E+02  0.15504301214E+03  0.20002870371E+03  0.12499683474E+03 0.  0.
          5    1    3    3  501    0  0.47721543471E+02 -0.28637562772E+01  0.21357138413E+02  0.52361094072E+02  0.10000000000E+00 0.  1.
         -5    1    3    3    0  501 -0.62053966643E+02 -0.91162122208E+01  0.13368587373E+03  0.14766760964E+03  0.10000000000E+00 0.  1.
          1    1    1    2  502    0  0.14332423172E+02  0.11979968498E+02  0.12759135397E+04  0.12760502728E+04  0.00000000000E+00 0.  1.
<mgrwt>
<rscale>  1 0.12638491E+03</rscale>
<asrwt>0</asrwt>
<pdfrwt beam="1">  1       21 0.34709569E-02 0.12638491E+03</pdfrwt>
<pdfrwt beam="2">  1        1 0.22361804E+00 0.12638491E+03</pdfrwt>
<totfact> 0.43746803E+04</totfact>
</mgrwt>
</event>
<event>
 6    2  0.1674964E-002  0.1307586E+03  0.7546771E-02  0.1226334E+00
         21   -1    0    0  502  503  0.00000000000E+00  0.00000000000E+00  0.57594860712E+01  0.57594860712E+01  0.00000000000E+00 0.  1.
          2   -1    0    0  503    0 -0.00000000000E+00 -0.00000000000E+00 -0.14517846678E+04  0.14517846678E+04  0.00000000000E+00 0.  1.
         25    2    1    2    0    0  0.90925825291E+01 -0.37273785789E+02 -0.13001180367E+04  0.13066769768E+04  0.12500320807E+03 0.  0.
          5    1    3    3  501    0 -0.23568285696E+02 -0.55268972708E+02 -0.11638149461E+04  0.11653649051E+04  0.10000000000E+00 0.  1.
         -5    1    3    3    0  501  0.32660868225E+02  0.17995186919E+02 -0.13630309069E+03  0.14131207166E+03  0.10000000000E+00 0.  1.
          2    1    1    2  502    0 -0.90925825291E+01  0.37273785789E+02 -0.14590714495E+03  0.15086717705E+03  0.00000000000E+00 0.  1.
<mgrwt>
<rscale>  1 0.13075860E+03</rscale>
<asrwt>0</asrwt>
<pdfrwt beam="1">  1       21 0.88607318E-03 0.13075860E+03</pdfrwt>
<pdfrwt beam="2">  1        2 0.22335189E+00 0.13075860E+03</pdfrwt>
<totfact> 0.83377045E+05</totfact>
</mgrwt>
</event>
<event>
 6    2  0.1674964E-002  0.1666767E+03  0.7546771E-02  0.1181359E+00
         21   -1    0    0  502  503  0.00000000000E+00  0.00000000000E+00  0.12452335722E+03  0.12452335722E+03  0.00000000000E+00 0.  1.
          1   -1    0    0  503    0 -0.00000000000E+00 -0.00000000000E+00 -0.21777685483E+03  0.21777685483E+03  0.00000000000E+00 0.  1.
         25    2    1    2    0    0  0.92058013597E+02 -0.60632560215E+02  0.37944508795E+02  0.17094122596E+03  0.12502052536E+03 0.  0.
          5    1    3    3  501    0  0.52809116737E+02  0.23949175529E+02  0.50451269370E+02  0.76861605501E+02  0.10000000000E+00 0.  1.
         -5    1    3    3    0  501  0.39248896860E+02 -0.84581735745E+02 -0.12506760576E+02  0.94079620462E+02  0.10000000000E+00 0.  1.
          1    1    1    2  502    0 -0.92058013597E+02  0.60632560215E+02 -0.13119800641E+03  0.17135898609E+03  0.00000000000E+00 0.  1.
<mgrwt>
<rscale>  1 0.16667668E+03</rscale>
<asrwt>0</asrwt>
<pdfrwt beam="1">  1       21 0.19157440E-01 0.16667668E+03</pdfrwt>
<pdfrwt beam="2">  1        1 0.33504131E-01 0.16667668E+03</pdfrwt>
<totfact> 0.35769928E+04</totfact>
</mgrwt>
</event>
<event>
 6    2  0.1674964E-002  0.1284734E+03  0.7546771E-02  0.1229739E+00
         21   -1    0    0  502  503  0.00000000000E+00  0.00000000000E+00  0.91649845133E+01  0.91649845133E+01  0.00000000000E+00 0.  1.
          2   -1    0    0  503    0 -0.00000000000E+00 -0.00000000000E+00 -0.11127346559E+04  0.11127346559E+04  0.00000000000E+00 0.  1.
         25    2    1    2    0    0 -0.25594528732E+02  0.15026453671E+02 -0.45882572723E+03  0.47647293835E+03  0.12499815519E+03 0.  0.
          5    1    3    3  501    0  0.39247175906E+02 -0.85572280095E+01 -0.63268667677E+02  0.74943320432E+02  0.10000000000E+00 0. -1.
         -5    1    3    3    0  501 -0.64841704638E+02  0.23583681680E+02 -0.39555705955E+03  0.40152961791E+03  0.10000000000E+00 0. -1.
          2    1    1    2  502    0  0.25594528732E+02 -0.15026453671E+02 -0.64474394413E+03  0.64542670204E+03  0.00000000000E+00 0.  1.
<mgrwt>
<rscale>  1 0.12847339E+03</rscale>
<asrwt>0</asrwt>
<pdfrwt beam="1">  1       21 0.14099968E-02 0.12847339E+03</pdfrwt>
<pdfrwt beam="2">  1        2 0.17119004E+00 0.12847339E+03</pdfrwt>
<totfact> 0.61005176E+05</totfact>
</mgrwt>
</event>
<event>
 6    2  0.1674964E-002  0.1304768E+03  0.7546771E-02  0.1226750E+00
          2   -1    0    0  503    0 -0.00000000000E+00  0.00000000000E+00  0.33780979188E+03  0.33780979188E+03  0.00000000000E+00 0. -1.
         21   -1    0    0  502  503  0.00000000000E+00 -0.00000000000E+00 -0.25541806859E+02  0.25541806859E+02  0.00000000000E+00 0. -1.
         25    2    1    2    0    0  0.30555846837E+02 -0.21564036503E+02  0.15948247604E+03  0.20605544748E+03  0.12500207929E+03 0.  0.
          5    1    3    3  501    0 -0.38379776193E+02 -0.41513767580E+02  0.51982145187E+02  0.76802041233E+02  0.10000000000E+00 0. -1.
         -5    1    3    3    0  501  0.68935623030E+02  0.19949731077E+02  0.10750033085E+03  0.12925340624E+03  0.10000000000E+00 0. -1.
          2    1    1    2  502    0 -0.30555846837E+02  0.21564036503E+02  0.15278550898E+03  0.15729615126E+03  0.00000000000E+00 0. -1.
<mgrwt>
<rscale>  1 0.13047677E+03</rscale>
<asrwt>0</asrwt>
<pdfrwt beam="1">  1       21 0.39295090E-02 0.13047677E+03</pdfrwt>
<pdfrwt beam="2">  1        2 0.51970734E-01 0.13047677E+03</pdfrwt>
<totfact> 0.47101118E+05</totfact>
</mgrwt>
</event>
<event>
 6    2  0.1674964E-002  0.1260440E+03  0.7546771E-02  0.1233447E+00
         21   -1    0    0  502  503  0.00000000000E+00  0.00000000000E+00  0.83836536208E+01  0.83836536208E+01  0.00000000000E+00 0.  1.
          1   -1    0    0  503    0 -0.00000000000E+00 -0.00000000000E+00 -0.86841706024E+03  0.86841706024E+03  0.00000000000E+00 0. -1.
         25    2    1    2    0    0  0.12234084019E+02  0.10583105783E+02 -0.47534249810E+03  0.49176984492E+03  0.12500165972E+03 0.  0.
          5    1    3    3  501    0 -0.49748426811E+02 -0.17738918072E+02 -0.27852432796E+03  0.28348789472E+03  0.10000000000E+00 0. -1.
         -5    1    3    3    0  501  0.61982510830E+02  0.28322023855E+02 -0.19681817014E+03  0.20828195021E+03  0.10000000000E+00 0. -1.
          1    1    1    2  502    0 -0.12234084019E+02 -0.10583105783E+02 -0.38469090852E+03  0.38503086894E+03  0.00000000000E+00 0. -1.
<mgrwt>
<rscale>  1 0.12604400E+03</rscale>
<asrwt>0</asrwt>
<pdfrwt beam="1">  1       21 0.12897942E-02 0.12604400E+03</pdfrwt>
<pdfrwt beam="2">  1        1 0.13360248E+00 0.12604400E+03</pdfrwt>
<totfact> 0.55505509E+05</totfact>
</mgrwt>
</event>
<event>
 6    2  0.1674964E-002  0.1513310E+03  0.7546771E-02  0.1198847E+00
         21   -1    0    0  502  503  0.00000000000E+00  0.00000000000E+00  0.61023171028E+02  0.61023171028E+02  0.00000000000E+00 0. -1.
          2   -1    0    0  503    0 -0.00000000000E+00 -0.00000000000E+00 -0.35637440240E+03  0.35637440240E+03  0.00000000000E+00 0.  1.
         25    2    1    2    0    0  0.11639648351E+02 -0.84503313671E+02 -0.52789666330E+02  0.16027424841E+03  0.12499917758E+03 0.  0.
          5    1    3    3  501    0  0.56839451960E+02 -0.73328039854E+02 -0.40459994388E+01  0.92866058597E+02  0.10000000000E+00 0. -1.
         -5    1    3    3    0  501 -0.45199803609E+02 -0.11175273817E+02 -0.48743666891E+02  0.67408189808E+02  0.10000000000E+00 0. -1.
          2    1    1    2  502    0 -0.11639648351E+02  0.84503313671E+02 -0.24256156504E+03  0.25712332502E+03  0.00000000000E+00 0.  1.
<mgrwt>
<rscale>  1 0.15133105E+03</rscale>
<asrwt>0</asrwt>
<pdfrwt beam="1">  1       21 0.93881804E-02 0.15133105E+03</pdfrwt>
<pdfrwt beam="2">  1        2 0.54826830E-01 0.15133105E+03</pdfrwt>
<totfact> 0.10177953E+05</totfact>
</mgrwt>
</event>
<event>
 6    2  0.1674964E-002  0.1382940E+03  0.7546771E-02  0.1215643E+00
          2   -1    0    0  503    0 -0.00000000000E+00  0.00000000000E+00  0.24366378692E+04  0.24366378692E+04  0.00000000000E+00 0. -1.
         21   -1    0    0  502  503  0.00000000000E+00 -0.00000000000E+00 -0.48500585002E+03  0.48500585002E+03  0.00000000000E+00 0.  1.
         25    2    1    2    0    0 -0.54991947155E+02 -0.21833888831E+02 -0.47477962138E+03  0.49451078458E+03  0.12499757689E+03 0.  0.
          5    1    3    3  501    0 -0.75566088449E+02  0.17576242086E+02 -0.40048349464E+03  0.40792915743E+03  0.10000000000E+00 0.  1.
         -5    1    3    3    0  501  0.20574141294E+02 -0.39410130916E+02 -0.74296126748E+02  0.86581627142E+02  0.10000000000E+00 0.  1.
          2    1    1    2  502    0  0.54991947155E+02  0.21833888831E+02  0.24264116406E+04  0.24271329347E+04  0.00000000000E+00 0. -1.
<mgrwt>
<rscale>  1 0.13829399E+03</rscale>
<asrwt>0</asrwt>
<pdfrwt beam="1">  1       21 0.74616286E-01 0.13829399E+03</pdfrwt>
<pdfrwt beam="2">  1        2 0.37486736E+00 0.13829399E+03</pdfrwt>
<totfact> 0.97625224E+01</totfact>
</mgrwt>
</event>
<event>
 6    2  0.1674964E-002  0.1452330E+03  0.7546771E-02  0.1206456E+00
         21   -1    0    0  502  503  0.00000000000E+00  0.00000000000E+00  0.39615085291E+02  0.39615085291E+02  0.00000000000E+00 0.  1.
          1   -1    0    0  503    0 -0.00000000000E+00 -0.00000000000E+00 -0.13554498750E+04  0.13554498750E+04  0.00000000000E+00 0.  1.
         25    2    1    2    0    0 -0.52178308370E+02  0.52395932005E+02 -0.98496164499E+02  0.17548255718E+03  0.12499889559E+03 0.  0.
          5    1    3    3  501    0 -0.35634294953E+02  0.76579692594E+02 -0.13448088399E+02  0.85528436068E+02  0.10000000000E+00 0.  1.
         -5    1    3    3    0  501 -0.16544013417E+02 -0.24183760590E+02 -0.85048076100E+02  0.89954121109E+02  0.10000000000E+00 0.  1.
          1    1    1    2  502    0  0.52178308370E+02 -0.52395932005E+02 -0.12173386252E+04  0.12195824031E+04  0.00000000000E+00 0.  1.
<mgrwt>
<rscale>  1 0.14523303E+03</rscale>
<asrwt>0</asrwt>
<pdfrwt beam="1">  1       21 0.60946284E-02 0.14523303E+03</pdfrwt>
<pdfrwt beam="2">  1        1 0.20853075E+00 0.14523303E+03</pdfrwt>
<totfact> 0.19688229E+04</totfact>
</mgrwt>
</event>
<event>
 6    2  0.1674964E-002  0.1265242E+03  0.7546771E-02  0.1232706E+00
         21   -1    0    0  502  503  0.00000000000E+00  0.00000000000E+00  0.85414490411E+02  0.85414490411E+02  0.00000000000E+00 0. -1.
          1   -1    0    0  503    0 -0.00000000000E+00 -0.00000000000E+00 -0.34466716872E+03  0.34466716872E+03  0.00000000000E+00 0. -1.
         25    2    1    2    0    0  0.10841972160E+02  0.16369089776E+02  0.38057434552E+02  0.13212394624E+03  0.12499149325E+03 0.  0.
          5    1    3    3  501    0  0.89977378131E+01  0.92622888596E+00 -0.45877204075E+02  0.46760507263E+02  0.10000000000E+00 0.  1.
         -5    1    3    3    0  501  0.18442343471E+01  0.15442860890E+02  0.83934638627E+02  0.85363438979E+02  0.10000000000E+00 0.  1.
          1    1    1    2  502    0 -0.10841972160E+02 -0.16369089776E+02 -0.29731011286E+03  0.29795771289E+03  0.00000000000E+00 0. -1.
<mgrwt>
<rscale>  1 0.12652418E+03</rscale>
<asrwt>0</asrwt>
<pdfrwt beam="1">  1       21 0.13140691E-01 0.12652418E+03</pdfrwt>
<pdfrwt beam="2">  1        1 0.53025718E-01 0.12652418E+03</pdfrwt>
<totfact> 0.40072045E+04</totfact>
</mgrwt>
</event>
<event>
 6    2  0.1674964E-002  0.1269914E+03  0.7546771E-02  0.1231990E+00
         21   -1    0    0  502  503  0.00000000000E+00  0.00000000000E+00  0.22095793366E+02  0.22095793366E+02  0.00000000000E+00 0.  1.
          1   -1    0    0  503    0 -0.00000000000E+00 -0.00000000000E+00 -0.90794849583E+03  0.90794849583E+03  0.00000000000E+00 0.  1.
         25    2    1    2    0    0 -0.14787704211E+02 -0.16816682786E+02 -0.16198315948E+03  0.20582844273E+03  0.12500130745E+03 0.  0.
          5    1    3    3  501    0  0.23025799206E+02 -0.61642049919E+02 -0.10593088898E+03  0.12470482343E+03  0.10000000000E+00 0.  1.
         -5    1    3    3    0  501 -0.37813503417E+02  0.44825367133E+02 -0.56052270501E+02  0.81123619296E+02  0.10000000000E+00 0.  1.
          1    1    1    2  502    0  0.14787704211E+02  0.16816682786E+02 -0.72386954298E+03  0.72421584647E+03  0.00000000000E+00 0.  1.
<mgrwt>
<rscale>  1 0.12699135E+03</rscale>
<asrwt>0</asrwt>
<pdfrwt beam="1">  1       21 0.33993525E-02 0.12699135E+03</pdfrwt>
<pdfrwt beam="2">  1        1 0.13968440E+00 0.12699135E+03</pdfrwt>
<totfact> 0.10805306E+05</totfact>
</mgrwt>
</event>
<event>
 6    2  0.1674964E-002  0.1438599E+03  0.7546771E-02  0.1208228E+00
         21   -1    0    0  502  503  0.00000000000E+00  0.00000000000E+00  0.18856416621E+02  0.18856416621E+02  0.00000000000E+00 0.  1.
          2   -1    0    0  503    0 -0.00000000000E+00 -0.00000000000E+00 -0.73802372359E+03  0.73802372359E+03  0.00000000000E+00 0.  1.
         25    2    1    2    0    0  0.44809057993E+02 -0.55333727757E+02 -0.31245371209E+03  0.34398109521E+03  0.12500399416E+03 0.  0.
          5    1    3    3  501    0 -0.28083386128E+01 -0.20532289435E+02 -0.27123585942E+03  0.27202640149E+03  0.10000000000E+00 0. -1.
         -5    1    3    3    0  501  0.47617396606E+02 -0.34801438322E+02 -0.41217852677E+02  0.71954693718E+02  0.10000000000E+00 0. -1.
          2    1    1    2  502    0 -0.44809057993E+02  0.55333727757E+02 -0.40671359488E+03  0.41289904500E+03  0.00000000000E+00 0.  1.
<mgrwt>
<rscale>  1 0.14385990E+03</rscale>
<asrwt>0</asrwt>
<pdfrwt beam="1">  1       21 0.29009873E-02 0.14385990E+03</pdfrwt>
<pdfrwt beam="2">  1        2 0.11354211E+00 0.14385990E+03</pdfrwt>
<totfact> 0.32827616E+05</totfact>
</mgrwt>
</event>
<event>
 6    2  0.1674964E-002  0.1335118E+03  0.7546771E-02  0.1222336E+00
         21   -1    0    0  502  503  0.00000000000E+00  0.00000000000E+00  0.10393283562E+04  0.10393283562E+04  0.00000000000E+00 0. -1.
          1   -1    0    0  503    0 -0.00000000000E+00 -0.00000000000E+00 -0.42081265294E+02  0.42081265294E+02  0.00000000000E+00 0. -1.
         25    2    1    2    0    0 -0.13815220560E+02  0.44845197066E+02  0.10203903614E+04  0.10290878956E+04  0.12499382069E+03 0.  0.
          5    1    3    3  501    0 -0.51778872950E+02 -0.20414174571E+02  0.34055909744E+03  0.34507723637E+03  0.10000000000E+00 0. -1.
         -5    1    3    3    0  501  0.37963652390E+02  0.65259371638E+02  0.67983126400E+03  0.68401065927E+03  0.10000000000E+00 0. -1.
          1    1    1    2  502    0  0.13815220560E+02 -0.44845197066E+02 -0.23143270577E+02  0.52321725813E+02  0.00000000000E+00 0. -1.
<mgrwt>
<rscale>  1 0.13351182E+03</rscale>
<asrwt>0</asrwt>
<pdfrwt beam="1">  1       21 0.15989665E+00 0.13351182E+03</pdfrwt>
<pdfrwt beam="2">  1        1 0.64740416E-02 0.13351182E+03</pdfrwt>
<totfact> 0.31793277E+03</totfact>
</mgrwt>
</event>
<event>
 6    2  0.1674964E-002  0.1264305E+03  0.7546771E-02  0.1232850E+00
         21   -1    0    0  502  503  0.00000000000E+00  0.00000000000E+00  0.76018579606E+01  0.76018579606E+01  0.00000000000E+00 0. -1.
          2   -1    0    0  503    0 -0.00000000000E+00 -0.00000000000E+00 -0.76066340871E+03  0.76066340871E+03  0.00000000000E+00 0. -1.
         25    2    1    2    0    0 -0.16244292175E+02 -0.98319132717E+01 -0.55126676481E+03  0.56557910736E+03  0.12499654852E+03 0.  0.
          5    1    3    3  501    0 -0.67005458546E+01 -0.30675427503E+02 -0.53835189198E+03  0.53926676957E+03  0.10000000000E+00 0.  1.
         -5    1    3    3    0  501 -0.95437463208E+01  0.20843514231E+02 -0.12914872835E+02  0.26312337785E+02  0.10000000000E+00 0.  1.
          2    1    1    2  502    0  0.16244292175E+02  0.98319132717E+01 -0.20179478593E+03  0.20268615931E+03  0.00000000000E+00 0. -1.
<mgrwt>
<rscale>  1 0.12643054E+03</rscale>
<asrwt>0</asrwt>
<pdfrwt beam="1">  1       21 0.11695164E-02 0.12643054E+03</pdfrwt>
<pdfrwt beam="2">  1        2 0.11702516E+00 0.12643054E+03</pdfrwt>
<totfact> 0.13564900E+06</totfact>
</mgrwt>
</event>
<event>
 6    2  0.1674964E-002  0.1268530E+03  0.7546771E-02  0.1232201E+00
          1   -1    0    0  503    0 -0.00000000000E+00  0.00000000000E+00  0.28494472668E+03  0.28494472668E+03  0.00000000000E+00 0. -1.
         21   -1    0    0  502  503  0.00000000000E+00 -0.00000000000E+00 -0.22633174175E+02  0.22633174175E+02  0.00000000000E+00 0.  1.
         25    2    1    2    0    0 -0.15853222137E+02  0.14680751818E+02  0.16626450534E+03  0.20913053220E+03  0.12499937854E+03 0.  0.
          5    1    3    3  501    0  0.25711341375E+01  0.15893244618E+02 -0.17881181620E+02  0.24061434108E+02  0.10000000000E+00 0. -1.
         -5    1    3    3    0  501 -0.18424356274E+02 -0.12124928003E+01  0.18414568696E+03  0.18506909809E+03  0.10000000000E+00 0. -1.
          1    1    1    2  502    0  0.15853222137E+02 -0.14680751818E+02  0.96047047171E+02  0.98447368661E+02  0.00000000000E+00 0. -1.
<mgrwt>
<rscale>  1 0.12685304E+03</rscale>
<asrwt>0</asrwt>
<pdfrwt beam="1">  1       21 0.34820270E-02 0.12685304E+03</pdfrwt>
<pdfrwt beam="2">  1        1 0.43837648E-01 0.12685304E+03</pdfrwt>
<totfact> 0.49122800E+05</totfact>
</mgrwt>
</event>
<event>
 6    2  0.1674964E-002  0.1259578E+03  0.7546771E-02  0.1233580E+00
         21   -1    0    0  502  503  0.00000000000E+00  0.00000000000E+00  0.22137027810E+02  0.22137027810E+02  0.00000000000E+00 0. -1.
          1   -1    0    0  503    0 -0.00000000000E+00 -0.00000000000E+00 -0.24390539230E+03  0.24390539230E+03  0.00000000000E+00 0. -1.
         25    2    1    2    0    0  0.13345327314E+02  0.77367337360E+01 -0.21503827618E+03  0.24921242015E+03  0.12500966092E+03 0.  0.
          5    1    3    3  501    0 -0.74019858898E-01  0.23251441723E+02  0.84837069219E+01  0.24751127333E+02  0.10000000000E+00 0. -1.
         -5    1    3    3    0  501  0.13419347172E+02 -0.15514707987E+02 -0.22352198310E+03  0.22446129282E+03  0.10000000000E+00 0. -1.
          1    1    1    2  502    0 -0.13345327314E+02 -0.77367337360E+01 -0.67300883098E+01  0.16829999960E+02  0.00000000000E+00 0. -1.
<mgrwt>
<rscale>  1 0.12595781E+03</rscale>
<asrwt>0</asrwt>
<pdfrwt beam="1">  1       21 0.34056968E-02 0.12595781E+03</pdfrwt>
<pdfrwt beam="2">  1        1 0.37523904E-01 0.12595781E+03</pdfrwt>
<totfact> 0.61687422E+05</totfact>
</mgrwt>
</event>
<event>
 6    2  0.1674964E-002  0.1367923E+03  0.7546771E-02  0.1217711E+00
         21   -1    0    0  502  503  0.00000000000E+00  0.00000000000E+00  0.12017820127E+02  0.12017820127E+02  0.00000000000E+00 0.  1.
          1   -1    0    0  503    0 -0.00000000000E+00 -0.00000000000E+00 -0.77325722537E+03  0.77325722537E+03  0.00000000000E+00 0.  1.
         25    2    1    2    0    0 -0.52267440948E+02 -0.18863965261E+02 -0.51658217451E+03  0.53438683310E+03  0.12499763919E+03 0.  0.
          5    1    3    3  501    0 -0.54512174249E+02 -0.55041048243E+02 -0.46460613292E+03  0.47102013002E+03  0.10000000000E+00 0.  1.
         -5    1    3    3    0  501  0.22447333005E+01  0.36177082981E+02 -0.51976041586E+02  0.63366703083E+02  0.10000000000E+00 0.  1.
          1    1    1    2  502    0  0.52267440948E+02  0.18863965261E+02 -0.24465723074E+03  0.25088821240E+03  0.00000000000E+00 0.  1.
<mgrwt>
<rscale>  1 0.13679234E+03</rscale>
<asrwt>0</asrwt>
<pdfrwt beam="1">  1       21 0.18488957E-02 0.13679234E+03</pdfrwt>
<pdfrwt beam="2">  1        1 0.11896263E+00 0.13679234E+03</pdfrwt>
<totfact> 0.37394696E+05</totfact>
</mgrwt>
</event>
<event>
 6    2  0.1674964E-002  0.1281245E+03  0.7546771E-02  0.1230265E+00
          2   -1    0    0  503    0 -0.00000000000E+00  0.00000000000E+00  0.21243952576E+04  0.21243952576E+04  0.00000000000E+00 0.  1.
         21   -1    0    0  502  503  0.00000000000E+00 -0.00000000000E+00 -0.95185080605E+02  0.95185080605E+02  0.00000000000E+00 0. -1.
         25    2    1    2    0    0  0.98386831682E+01 -0.26334863664E+02 -0.51931383739E+02  0.13824890844E+03  0.12500226932E+03 0.  0.
          5    1    3    3  501    0  0.51952297761E+02 -0.11833367993E+02 -0.71855186921E+02  0.89455283400E+02  0.10000000000E+00 0. -1.
         -5    1    3    3    0  501 -0.42113614593E+02 -0.14501495672E+02  0.19923803182E+02  0.48793625035E+02  0.10000000000E+00 0. -1.
          2    1    1    2  502    0 -0.98386831682E+01  0.26334863664E+02  0.20811415607E+04  0.20813314298E+04  0.00000000000E+00 0.  1.
<mgrwt>
<rscale>  1 0.12812452E+03</rscale>
<asrwt>0</asrwt>
<pdfrwt beam="1">  1       21 0.14643860E-01 0.12812452E+03</pdfrwt>
<pdfrwt beam="2">  1        2 0.32683000E+00 0.12812452E+03</pdfrwt>
<totfact> 0.35490731E+03</totfact>
</mgrwt>
</event>
<event>
 6    2  0.1674964E-002  0.1483437E+03  0.7546771E-02  0.1202523E+00
          1   -1    0    0  503    0 -0.00000000000E+00  0.00000000000E+00  0.12516554468E+04  0.12516554468E+04  0.00000000000E+00 0.  1.
         21   -1    0    0  502  503  0.00000000000E+00 -0.00000000000E+00 -0.16047917578E+02  0.16047917578E+02  0.00000000000E+00 0.  1.
         25    2    1    2    0    0 -0.67773417797E+02 -0.42294982498E+02  0.37317489509E+03  0.40157857538E+03  0.12499499259E+03 0.  0.
          5    1    3    3  501    0  0.69342381543E+01  0.15222004973E+02  0.22712104807E+03  0.22773619293E+03  0.10000000000E+00 0. -1.
         -5    1    3    3    0  501 -0.74707655951E+02 -0.57516987471E+02  0.14605384702E+03  0.17384238244E+03  0.10000000000E+00 0. -1.
          1    1    1    2  502    0  0.67773417797E+02  0.42294982498E+02  0.86243263412E+03  0.86612478899E+03  0.00000000000E+00 0.  1.
<mgrwt>
<rscale>  1 0.14834369E+03</rscale>
<asrwt>0</asrwt>
<pdfrwt beam="1">  1       21 0.24689114E-02 0.14834369E+03</pdfrwt>
<pdfrwt beam="2">  1        1 0.19256230E+00 0.14834369E+03</pdfrwt>
<totfact> 0.10399401E+05</totfact>
</mgrwt>
</event>
<event>
 6    2  0.1674964E-002  0.1783131E+03  0.7546771E-02  0.1169446E+00
          1   -1    0    0  503    0 -0.00000000000E+00  0.00000000000E+00  0.43476492546E+03  0.43476492546E+03  0.00000000000E+00 0.  1.
         21   -1    0    0  502  503  0.00000000000E+00 -0.00000000000E+00 -0.58523486915E+03  0.58523486915E+03  0.00000000000E+00 0. -1.
         25    2    1    2    0    0 -0.11532480514E+03 -0.53579796565E+02 -0.56182236561E+03  0.58944036746E+03  0.12499988402E+03 0.  0.
          5    1    3    3  501    0 -0.66184511132E+02 -0.85037388985E+02 -0.45640214602E+03  0.46895061140E+03  0.10000000000E+00 0.  1.
         -5    1    3    3    0  501 -0.49140294005E+02  0.31457592420E+02 -0.10542021959E+03  0.12048975606E+03  0.10000000000E+00 0.  1.
          1    1    1    2  502    0  0.11532480514E+03  0.53579796565E+02  0.41135242192E+03  0.43055942714E+03  0.00000000000E+00 0.  1.
<mgrwt>
<rscale>  1 0.17831314E+03</rscale>
<asrwt>0</asrwt>
<pdfrwt beam="1">  1       21 0.90036133E-01 0.17831314E+03</pdfrwt>
<pdfrwt beam="2">  1        1 0.66886912E-01 0.17831314E+03</pdfrwt>
<totfact> 0.63403568E+02</totfact>
</mgrwt>
</event>
<event>
 6    2  0.1674964E-002  0.1270172E+03  0.7546771E-02  0.1231950E+00
          2   -1    0    0  503    0 -0.00000000000E+00  0.00000000000E+00  0.27631143393E+04  0.27631143393E+04  0.00000000000E+00 0.  1.
         21   -1    0    0  502  503  0.00000000000E+00 -0.00000000000E+00 -0.22378757723E+01  0.22378757723E+01  0.00000000000E+00 0. -1.
         25    2    1    2    0    0 -0.19324761598E+02 -0.11653966150E+02  0.19332297658E+04  0.19373979182E+04  0.12499641992E+03 0.  0.
          5    1    3    3  501    0  0.33912566916E+02 -0.16862309210E+02  0.15489557908E+04  0.15494187463E+04  0.10000000000E+00 0. -1.
         -5    1    3    3    0  501 -0.53237328514E+02  0.52083430597E+01  0.38427397498E+03  0.38797917191E+03  0.10000000000E+00 0. -1.
          2    1    1    2  502    0  0.19324761598E+02  0.11653966150E+02  0.82764669778E+03  0.82795429686E+03  0.00000000000E+00 0.  1.
<mgrwt>
<rscale>  1 0.12701719E+03</rscale>
<asrwt>0</asrwt>
<pdfrwt beam="1">  1       21 0.34429079E-03 0.12701719E+03</pdfrwt>
<pdfrwt beam="2">  1        2 0.42509178E+00 0.12701719E+03</pdfrwt>
<totfact> 0.74640909E+05</totfact>
</mgrwt>
</event>
<event>
 6    2  0.1674964E-002  0.1271172E+03  0.7546771E-02  0.1231797E+00
          1   -1    0    0  503    0 -0.00000000000E+00  0.00000000000E+00  0.42830596472E+03  0.42830596472E+03  0.00000000000E+00 0. -1.
         21   -1    0    0  502  503  0.00000000000E+00 -0.00000000000E+00 -0.73790697588E+02  0.73790697588E+02  0.00000000000E+00 0. -1.
         25    2    1    2    0    0  0.16736180099E+02  0.15921248369E+02 -0.18421607145E+02  0.12844508922E+03  0.12500079784E+03 0.  0.
          5    1    3    3  501    0  0.22094222501E+00  0.29699559316E+02 -0.68108533475E+02  0.74302725193E+02  0.10000000000E+00 0.  1.
         -5    1    3    3    0  501  0.16515237874E+02 -0.13778310946E+02  0.49686926330E+02  0.54142364030E+02  0.10000000000E+00 0.  1.
          1    1    1    2  502    0 -0.16736180099E+02 -0.15921248369E+02  0.37293687428E+03  0.37365157309E+03  0.00000000000E+00 0. -1.
<mgrwt>
<rscale>  1 0.12711721E+03</rscale>
<asrwt>0</asrwt>
<pdfrwt beam="1">  1       21 0.11352415E-01 0.12711721E+03</pdfrwt>
<pdfrwt beam="2">  1        1 0.65893224E-01 0.12711721E+03</pdfrwt>
<totfact> 0.39554440E+04</totfact>
</mgrwt>
</event>
<event>
 6    2  0.1674964E-002  0.2353340E+03  0.7546771E-02  0.1122941E+00
          2   -1    0    0  503    0 -0.00000000000E+00  0.00000000000E+00  0.88198658033E+03  0.88198658033E+03  0.00000000000E+00 0.  1.
         21   -1    0    0  502  503  0.00000000000E+00 -0.00000000000E+00 -0.61743602745E+02  0.61743602745E+02  0.00000000000E+00 0.  1.
         25    2    1    2    0    0  0.69890372896E+02 -0.18674205350E+03  0.26835030008E+03  0.35692290104E+03  0.12499925984E+03 0.  0.
          5    1    3    3  501    0  0.11522054357E+02 -0.70051582723E+01 -0.12516917016E+02  0.18398727962E+02  0.10000000000E+00 0.  1.
         -5    1    3    3    0  501  0.58368318539E+02 -0.17973689523E+03  0.28086721710E+03  0.33852417307E+03  0.10000000000E+00 0.  1.
          2    1    1    2  502    0 -0.69890372896E+02  0.18674205350E+03  0.55189267750E+03  0.58680728204E+03  0.00000000000E+00 0.  1.
<mgrwt>
<rscale>  1 0.23533396E+03</rscale>
<asrwt>0</asrwt>
<pdfrwt beam="1">  1       21 0.94990164E-02 0.23533396E+03</pdfrwt>
<pdfrwt beam="2">  1        2 0.13569023E+00 0.23533396E+03</pdfrwt>
<totfact> 0.34947402E+04</totfact>
</mgrwt>
</event>
<event>
 6    2  0.1674964E-002  0.1330483E+03  0.7546771E-02  0.1223001E+00
          2   -1    0    0  503    0 -0.00000000000E+00  0.00000000000E+00  0.10606315993E+04  0.10606315993E+04  0.00000000000E+00 0. -1.
         21   -1    0    0  502  503  0.00000000000E+00 -0.00000000000E+00 -0.76188865964E+01  0.76188865964E+01  0.00000000000E+00 0. -1.
         25    2    1    2    0    0 -0.12695751025E+02 -0.43775167290E+02  0.72809330983E+03  0.74014979140E+03  0.12499759408E+03 0.  0.
          5    1    3    3  501    0  0.25483139935E+02 -0.57766090279E+02  0.64020823498E+03  0.64331400244E+03  0.10000000000E+00 0.  1.
         -5    1    3    3    0  501 -0.38178890960E+02  0.13990922989E+02  0.87885074855E+02  0.96835788959E+02  0.10000000000E+00 0.  1.
          2    1    1    2  502    0  0.12695751025E+02  0.43775167290E+02  0.32491940287E+03  0.32810069449E+03  0.00000000000E+00 0. -1.
<mgrwt>
<rscale>  1 0.13304828E+03</rscale>
<asrwt>0</asrwt>
<pdfrwt beam="1">  1       21 0.11721372E-02 0.13304828E+03</pdfrwt>
<pdfrwt beam="2">  1        2 0.16317397E+00 0.13304828E+03</pdfrwt>
<totfact> 0.87829032E+05</totfact>
</mgrwt>
</event>
<event>
 6    2  0.1674964E-002  0.2331102E+03  0.7546771E-02  0.1124470E+00
          2   -1    0    0  503    0 -0.00000000000E+00  0.00000000000E+00  0.15473253913E+04  0.15473253913E+04  0.00000000000E+00 0. -1.
         21   -1    0    0  502  503  0.00000000000E+00 -0.00000000000E+00 -0.38299298944E+02  0.38299298944E+02  0.00000000000E+00 0.  1.
         25    2    1    2    0    0  0.26113288181E+02  0.19502883560E+03  0.43306009728E+03  0.49181438993E+03  0.12498878248E+03 0.  0.
          5    1    3    3  501    0  0.51392727106E+02  0.43695806086E+02  0.67818342313E+02  0.95654970717E+02  0.10000000000E+00 0.  1.
         -5    1    3    3    0  501 -0.25279438925E+02  0.15133302951E+03  0.36524175497E+03  0.39615941921E+03  0.10000000000E+00 0.  1.
          2    1    1    2  502    0 -0.26113288181E+02 -0.19502883560E+03  0.10759659951E+04  0.10938103003E+04  0.00000000000E+00 0. -1.
<mgrwt>
<rscale>  1 0.23311016E+03</rscale>
<asrwt>0</asrwt>
<pdfrwt beam="1">  1       21 0.58922010E-02 0.23311016E+03</pdfrwt>
<pdfrwt beam="2">  1        2 0.23805001E+00 0.23311016E+03</pdfrwt>
<totfact> 0.33393420E+04</totfact>
</mgrwt>
</event>
<event>
 6    2  0.1674964E-002  0.2190517E+03  0.7546771E-02  0.1134592E+00
         21   -1    0    0  502  503  0.00000000000E+00  0.00000000000E+00  0.23460668362E+02  0.23460668362E+02  0.00000000000E+00 0.  1.
          2   -1    0    0  503    0 -0.00000000000E+00 -0.00000000000E+00 -0.18427451396E+04  0.18427451396E+04  0.00000000000E+00 0.  1.
         25    2    1    2    0    0 -0.17987115620E+03  0.58394733343E+00 -0.12541652511E+04  0.12731512516E+04  0.12501863308E+03 0.  0.
          5    1    3    3  501    0 -0.74693602200E+02 -0.49929265829E+02 -0.76525586580E+03  0.77051191810E+03  0.10000000000E+00 0.  1.
         -5    1    3    3    0  501 -0.10517755400E+03  0.50513213162E+02 -0.48890938531E+03  0.50263933353E+03  0.10000000000E+00 0.  1.
          2    1    1    2  502    0  0.17987115620E+03 -0.58394733343E+00 -0.56511922015E+03  0.59305455635E+03  0.00000000000E+00 0.  1.
<mgrwt>
<rscale>  1 0.21905167E+03</rscale>
<asrwt>0</asrwt>
<pdfrwt beam="1">  1       21 0.36093334E-02 0.21905167E+03</pdfrwt>
<pdfrwt beam="2">  1        2 0.28349927E+00 0.21905167E+03</pdfrwt>
<totfact> 0.53794534E+04</totfact>
</mgrwt>
</event>
<event>
 6    2  0.1674964E-002  0.1270186E+03  0.7546771E-02  0.1231948E+00
          1   -1    0    0  503    0 -0.00000000000E+00  0.00000000000E+00  0.52569956939E+02  0.52569956939E+02  0.00000000000E+00 0.  1.
         21   -1    0    0  502  503  0.00000000000E+00 -0.00000000000E+00 -0.10856529778E+03  0.10856529778E+03  0.00000000000E+00 0.  1.
         25    2    1    2    0    0 -0.71286415080E+01  0.21673088319E+02 -0.39629904865E+02  0.13305736695E+03  0.12495276408E+03 0.  0.
          5    1    3    3  501    0 -0.53153761052E+01  0.45419464734E+02  0.33149249736E+02  0.56480649411E+02  0.10000000000E+00 0. -1.
         -5    1    3    3    0  501 -0.18132654028E+01 -0.23746376415E+02 -0.72779154601E+02  0.76576717537E+02  0.10000000000E+00 0. -1.
          1    1    1    2  502    0  0.71286415080E+01 -0.21673088319E+02 -0.16365435975E+02  0.28077887770E+02  0.00000000000E+00 0.  1.
<mgrwt>
<rscale>  1 0.12701863E+03</rscale>
<asrwt>0</asrwt>
<pdfrwt beam="1">  1       21 0.16702353E-01 0.12701863E+03</pdfrwt>
<pdfrwt beam="2">  1        1 0.80876858E-02 0.12701863E+03</pdfrwt>
<totfact> 0.28502443E+05</totfact>
</mgrwt>
</event>
<event>
 6    2  0.1674964E-002  0.1300640E+03  0.7546771E-02  0.1227361E+00
          2   -1    0    0  503    0 -0.00000000000E+00  0.00000000000E+00  0.91442104327E+03  0.91442104327E+03  0.00000000000E+00 0.  1.
         21   -1    0    0  502  503  0.00000000000E+00 -0.00000000000E+00 -0.24281377368E+02  0.24281377368E+02  0.00000000000E+00 0.  1.
         25    2    1    2    0    0  0.15631383966E+02  0.32326318476E+02  0.15352343488E+03  0.20121153742E+03  0.12500922647E+03 0.  0.
          5    1    3    3  501    0 -0.26869497262E+02  0.64696934151E+02  0.11742523285E+03  0.13673462795E+03  0.10000000000E+00 0.  1.
         -5    1    3    3    0  501  0.42500881228E+02 -0.32370615675E+02  0.36098202034E+02  0.64476909467E+02  0.10000000000E+00 0.  1.
          2    1    1    2  502    0 -0.15631383966E+02 -0.32326318476E+02  0.73661623102E+03  0.73749088322E+03  0.00000000000E+00 0.  1.
<mgrwt>
<rscale>  1 0.13006398E+03</rscale>
<asrwt>0</asrwt>
<pdfrwt beam="1">  1       21 0.37355972E-02 0.13006398E+03</pdfrwt>
<pdfrwt beam="2">  1        2 0.14068013E+00 0.13006398E+03</pdfrwt>
<totfact> 0.16462000E+05</totfact>
</mgrwt>
</event>
<event>
 6    2  0.1674964E-002  0.1280382E+03  0.7546771E-02  0.1230396E+00
         21   -1    0    0  502  503  0.00000000000E+00  0.00000000000E+00  0.21413237908E+02  0.21413237908E+02  0.00000000000E+00 0.  1.
          4   -1    0    0  503    0 -0.00000000000E+00 -0.00000000000E+00 -0.59986487084E+03  0.59986487084E+03  0.00000000000E+00 0.  1.
         25    2    1    2    0    0 -0.34633108541E+01 -0.27497121606E+02 -0.17480312364E+03  0.21667928859E+03  0.12500278338E+03 0.  0.
          5    1    3    3  501    0 -0.24902935990E+02 -0.34083861580E+02 -0.18234936603E+01  0.42251638669E+02  0.10000000000E+00 0.  1.
         -5    1    3    3    0  501  0.21439625136E+02  0.65867399741E+01 -0.17297962998E+03  0.17442764992E+03  0.10000000000E+00 0.  1.
          4    1    1    2  502    0  0.34633108541E+01  0.27497121606E+02 -0.40364850929E+03  0.40459882015E+03  0.00000000000E+00 0.  1.
<mgrwt>
<rscale>  1 0.12803821E+03</rscale>
<asrwt>0</asrwt>
<pdfrwt beam="1">  1       21 0.32943449E-02 0.12803821E+03</pdfrwt>
<pdfrwt beam="2">  1        4 0.92286886E-01 0.12803821E+03</pdfrwt>
<totfact> 0.22504302E+04</totfact>
</mgrwt>
</event>
<event>
 6    2  0.1674964E-002  0.1265236E+03  0.7546771E-02  0.1232707E+00
          2   -1    0    0  503    0 -0.00000000000E+00  0.00000000000E+00  0.41105646224E+03  0.41105646224E+03  0.00000000000E+00 0. -1.
         21   -1    0    0  502  503  0.00000000000E+00 -0.00000000000E+00 -0.56044445380E+02  0.56044445380E+02  0.00000000000E+00 0.  1.
         25    2    1    2    0    0 -0.17820954443E+02 -0.81317622704E+01  0.16008927908E+02  0.12753234857E+03  0.12499800872E+03 0.  0.
          5    1    3    3  501    0  0.14043461712E+02 -0.40207991812E+02 -0.38012876046E+02  0.57086689934E+02  0.10000000000E+00 0. -1.
         -5    1    3    3    0  501 -0.31864416156E+02  0.32076229541E+02  0.54021803954E+02  0.70445658638E+02  0.10000000000E+00 0. -1.
          2    1    1    2  502    0  0.17820954443E+02  0.81317622704E+01  0.33900308896E+03  0.33956855905E+03  0.00000000000E+00 0. -1.
<mgrwt>
<rscale>  1 0.12652357E+03</rscale>
<asrwt>0</asrwt>
<pdfrwt beam="1">  1       21 0.86222226E-02 0.12652357E+03</pdfrwt>
<pdfrwt beam="2">  1        2 0.63239454E-01 0.12652357E+03</pdfrwt>
<totfact> 0.10085390E+05</totfact>
</mgrwt>
</event>
<event>
 6    2  0.1674964E-002  0.1266467E+03  0.7546771E-02  0.1232518E+00
         21   -1    0    0  502  503  0.00000000000E+00  0.00000000000E+00  0.28016167988E+02  0.28016167988E+02  0.00000000000E+00 0.  1.
          3   -1    0    0  503    0 -0.00000000000E+00 -0.00000000000E+00 -0.19594518383E+03  0.19594518383E+03  0.00000000000E+00 0.  1.
         25    2    1    2    0    0 -0.75016757137E+01 -0.18885420020E+02 -0.13374194311E+03  0.18419088325E+03  0.12500575946E+03 0.  0.
          5    1    3    3  501    0 -0.12214549188E+02  0.38731036849E+02 -0.23914610323E+01  0.40681906459E+02  0.10000000000E+00 0. -1.
         -5    1    3    3    0  501  0.47128734742E+01 -0.57616456869E+02 -0.13135048208E+03  0.14350897679E+03  0.10000000000E+00 0. -1.
          3    1    1    2  502    0  0.75016757137E+01  0.18885420020E+02 -0.34187072730E+02  0.39770468563E+02  0.00000000000E+00 0.  1.
<mgrwt>
<rscale>  1 0.12664665E+03</rscale>
<asrwt>0</asrwt>
<pdfrwt beam="1">  1       21 0.43101798E-02 0.12664665E+03</pdfrwt>
<pdfrwt beam="2">  1        3 0.30145412E-01 0.12664665E+03</pdfrwt>
<totfact> 0.17264201E+05</totfact>
</mgrwt>
</event>
<event>
 6    2  0.1674964E-002  0.1467068E+03  0.7546771E-02  0.1204579E+00
         21   -1    0    0  502  503  0.00000000000E+00  0.00000000000E+00  0.14353983502E+04  0.14353983502E+04  0.00000000000E+00 0. -1.
          2   -1    0    0  503    0 -0.00000000000E+00 -0.00000000000E+00 -0.19778857385E+02  0.19778857385E+02  0.00000000000E+00 0. -1.
         25    2    1    2    0    0 -0.47701909536E+02 -0.60189370903E+02  0.13378788703E+04  0.13458984954E+04  0.12499862336E+03 0.  0.
          5    1    3    3  501    0 -0.86763999425E+02 -0.56479367216E+02  0.10934746186E+04  0.10983645396E+04  0.10000000000E+00 0.  1.
         -5    1    3    3    0  501  0.39062089889E+02 -0.37100036877E+01  0.24440425174E+03  0.24753395578E+03  0.10000000000E+00 0.  1.
          2    1    1    2  502    0  0.47701909536E+02  0.60189370903E+02  0.77740622519E+02  0.10927871217E+03  0.00000000000E+00 0. -1.
<mgrwt>
<rscale>  1 0.14670681E+03</rscale>
<asrwt>0</asrwt>
<pdfrwt beam="1">  1       21 0.22083043E+00 0.14670681E+03</pdfrwt>
<pdfrwt beam="2">  1        2 0.30429023E-02 0.14670681E+03</pdfrwt>
<totfact> 0.37331424E+03</totfact>
</mgrwt>
</event>
<event>
 6    2  0.1674964E-002  0.1271054E+03  0.7546771E-02  0.1231815E+00
          3   -1    0    0  503    0 -0.00000000000E+00  0.00000000000E+00  0.22770793792E+03  0.22770793792E+03  0.00000000000E+00 0.  1.
         21   -1    0    0  502  503  0.00000000000E+00 -0.00000000000E+00 -0.49842601656E+02  0.49842601656E+02  0.00000000000E+00 0.  1.
         25    2    1    2    0    0 -0.49738690167E+01 -0.22483493038E+02  0.33616978934E+02  0.13147577987E+03  0.12500213033E+03 0.  0.
          5    1    3    3  501    0 -0.10964059301E+02  0.27449649467E+02  0.65547692234E+02  0.71904129293E+02  0.10000000000E+00 0. -1.
         -5    1    3    3    0  501  0.59901902845E+01 -0.49933142506E+02 -0.31930713299E+02  0.59571650573E+02  0.10000000000E+00 0. -1.
          3    1    1    2  502    0  0.49738690167E+01  0.22483493038E+02  0.14424835733E+03  0.14607475971E+03  0.00000000000E+00 0.  1.
<mgrwt>
<rscale>  1 0.12710539E+03</rscale>
<asrwt>0</asrwt>
<pdfrwt beam="1">  1       21 0.76680927E-02 0.12710539E+03</pdfrwt>
<pdfrwt beam="2">  1        3 0.35031990E-01 0.12710539E+03</pdfrwt>
<totfact> 0.49239796E+04</totfact>
</mgrwt>
</event>
<event>
 6    2  0.1674964E-002  0.1301944E+03  0.7546771E-02  0.1227168E+00
         21   -1    0    0  502  503  0.00000000000E+00  0.00000000000E+00  0.38121678198E+02  0.38121678198E+02  0.00000000000E+00 0. -1.
          4   -1    0    0  503    0 -0.00000000000E+00 -0.00000000000E+00 -0.76153690704E+03  0.76153690704E+03  0.00000000000E+00 0.  1.
         25    2    1    2    0    0  0.57932254902E+01 -0.35951507524E+02 -0.75060307648E+02  0.15028182542E+03  0.12499801964E+03 0.  0.
          5    1    3    3  501    0  0.45714550523E+02 -0.24961252368E+01  0.13332190995E+02  0.47684463795E+02  0.10000000000E+00 0.  1.
         -5    1    3    3    0  501 -0.39921325032E+02 -0.33455382287E+02 -0.88392498643E+02  0.10259736163E+03  0.10000000000E+00 0.  1.
          4    1    1    2  502    0 -0.57932254902E+01  0.35951507524E+02 -0.64835492119E+03  0.64937675982E+03  0.00000000000E+00 0.  1.
<mgrwt>
<rscale>  1 0.13019438E+03</rscale>
<asrwt>0</asrwt>
<pdfrwt beam="1">  1       21 0.58648736E-02 0.13019438E+03</pdfrwt>
<pdfrwt beam="2">  1        4 0.11715952E+00 0.13019438E+03</pdfrwt>
<totfact> 0.49397204E+03</totfact>
</mgrwt>
</event>
<event>
 6    2  0.1674964E-002  0.1846373E+03  0.7546771E-02  0.1163389E+00
         21   -1    0    0  502  503  0.00000000000E+00  0.00000000000E+00  0.10264969293E+03  0.10264969293E+03  0.00000000000E+00 0.  1.
          1   -1    0    0  503    0 -0.00000000000E+00 -0.00000000000E+00 -0.34523429313E+03  0.34523429313E+03  0.00000000000E+00 0. -1.
         25    2    1    2    0    0 -0.62691444233E+02  0.12054405850E+03 -0.18152257560E+02  0.18552742784E+03  0.12501933774E+03 0.  0.
          5    1    3    3  501    0 -0.11788400022E+02  0.98704190015E+01 -0.55914624702E+02  0.57990057785E+02  0.10000000000E+00 0.  1.
         -5    1    3    3    0  501 -0.50903044212E+02  0.11067363950E+03  0.37762367142E+02  0.12753737006E+03  0.10000000000E+00 0.  1.
          1    1    1    2  502    0  0.62691444233E+02 -0.12054405850E+03 -0.22443234264E+03  0.26235655822E+03  0.00000000000E+00 0. -1.
<mgrwt>
<rscale>  1 0.18463727E+03</rscale>
<asrwt>0</asrwt>
<pdfrwt beam="1">  1       21 0.15792261E-01 0.18463727E+03</pdfrwt>
<pdfrwt beam="2">  1        1 0.53112967E-01 0.18463727E+03</pdfrwt>
<totfact> 0.28692667E+04</totfact>
</mgrwt>
</event>
<event>
 6    2  0.1674964E-002  0.1732204E+03  0.7546771E-02  0.1174531E+00
          1   -1    0    0  503    0 -0.00000000000E+00  0.00000000000E+00  0.63777863150E+03  0.63777863150E+03  0.00000000000E+00 0. -1.
         21   -1    0    0  502  503  0.00000000000E+00 -0.00000000000E+00 -0.38049909129E+02  0.38049909129E+02  0.00000000000E+00 0. -1.
         25    2    1    2    0    0 -0.84162766775E+02  0.85418796579E+02  0.46092557952E+03  0.49239993167E+03  0.12500224291E+03 0.  0.
          5    1    3    3  501    0 -0.25614759092E+02  0.79572606147E+02  0.11886859480E+03  0.14531919475E+03  0.10000000000E+00 0.  1.
         -5    1    3    3    0  501 -0.58548007684E+02  0.58461904317E+01  0.34205698472E+03  0.34708073692E+03  0.10000000000E+00 0.  1.
          1    1    1    2  502    0  0.84162766775E+02 -0.85418796579E+02  0.13880314286E+03  0.18342860897E+03  0.00000000000E+00 0. -1.
<mgrwt>
<rscale>  1 0.17322039E+03</rscale>
<asrwt>0</asrwt>
<pdfrwt beam="1">  1       21 0.58538326E-02 0.17322039E+03</pdfrwt>
<pdfrwt beam="2">  1        1 0.98119782E-01 0.17322039E+03</pdfrwt>
<totfact> 0.73726438E+04</totfact>
</mgrwt>
</event>
<event>
 6    2  0.1674964E-002  0.1283633E+03  0.7546771E-02  0.1229905E+00
          2   -1    0    0  503    0 -0.00000000000E+00  0.00000000000E+00  0.10813780557E+04  0.10813780557E+04  0.00000000000E+00 0.  1.
         21   -1    0    0  502  503  0.00000000000E+00 -0.00000000000E+00 -0.60561696945E+01  0.60561696945E+01  0.00000000000E+00 0.  1.
         25    2    1    2    0    0 -0.28629946175E+02 -0.56396708974E+01  0.75989173617E+03  0.77065723896E+03  0.12500259823E+03 0.  0.
          5    1    3    3  501    0 -0.22172365390E+02 -0.59104850156E+02  0.24673963698E+03  0.25468697563E+03  0.10000000000E+00 0.  1.
         -5    1    3    3    0  501 -0.64575807850E+01  0.53465179258E+02  0.51315209919E+03  0.51597026333E+03  0.10000000000E+00 0.  1.
          2    1    1    2  502    0  0.28629946175E+02  0.56396708974E+01  0.31543014984E+03  0.31677698644E+03  0.00000000000E+00 0.  1.
<mgrwt>
<rscale>  1 0.12836327E+03</rscale>
<asrwt>0</asrwt>
<pdfrwt beam="1">  1       21 0.93171927E-03 0.12836327E+03</pdfrwt>
<pdfrwt beam="2">  1        2 0.16636570E+00 0.12836327E+03</pdfrwt>
<totfact> 0.12246777E+06</totfact>
</mgrwt>
</event>
<event>
 6    2  0.1674964E-002  0.1428417E+03  0.7546771E-02  0.1209556E+00
         21   -1    0    0  502  503  0.00000000000E+00  0.00000000000E+00  0.16540769965E+03  0.16540769965E+03  0.00000000000E+00 0.  1.
          1   -1    0    0  503    0 -0.00000000000E+00 -0.00000000000E+00 -0.14186925431E+03  0.14186925431E+03  0.00000000000E+00 0.  1.
         25    2    1    2    0    0  0.18273581088E+02 -0.66671478696E+02  0.12139978081E+03  0.18746105009E+03  0.12499891474E+03 0.  0.
          5    1    3    3  501    0  0.31691527546E+02 -0.99574064526E+02  0.73219938289E+02  0.12759512768E+03  0.10000000000E+00 0. -1.
         -5    1    3    3    0  501 -0.13417946459E+02  0.32902585830E+02  0.48179842520E+02  0.59865922416E+02  0.10000000000E+00 0. -1.
          1    1    1    2  502    0 -0.18273581088E+02  0.66671478696E+02 -0.97861335472E+02  0.11981590386E+03  0.00000000000E+00 0.  1.
<mgrwt>
<rscale>  1 0.14284166E+03</rscale>
<asrwt>0</asrwt>
<pdfrwt beam="1">  1       21 0.25447338E-01 0.14284166E+03</pdfrwt>
<pdfrwt beam="2">  1        1 0.21826039E-01 0.14284166E+03</pdfrwt>
<totfact> 0.35934870E+04</totfact>
</mgrwt>
</event>
<event>
 6    2  0.1674964E-002  0.1404648E+03  0.7546771E-02  0.1212705E+00
          2   -1    0    0  503    0 -0.00000000000E+00  0.00000000000E+00  0.62531213755E+03  0.62531213755E+03  0.00000000000E+00 0.  1.
         21   -1    0    0  502  503  0.00000000000E+00 -0.00000000000E+00 -0.10948079063E+03  0.10948079063E+03  0.00000000000E+00 0.  1.
         25    2    1    2    0    0 -0.41183419418E+01 -0.63939513235E+02 -0.61914660236E+02  0.15350498672E+03  0.12500053481E+03 0.  0.
          5    1    3    3  501    0 -0.55639056889E+02 -0.68485993194E+02 -0.32696528973E+02  0.94101588309E+02  0.10000000000E+00 0.  1.
         -5    1    3    3    0  501  0.51520714947E+02  0.45464799592E+01 -0.29218131263E+02  0.59403398415E+02  0.10000000000E+00 0.  1.
          2    1    1    2  502    0  0.41183419418E+01  0.63939513235E+02  0.57774600716E+03  0.58128794146E+03  0.00000000000E+00 0.  1.
<mgrwt>
<rscale>  1 0.14046478E+03</rscale>
<asrwt>0</asrwt>
<pdfrwt beam="1">  1       21 0.16843199E-01 0.14046478E+03</pdfrwt>
<pdfrwt beam="2">  1        2 0.96201865E-01 0.14046478E+03</pdfrwt>
<totfact> 0.19350052E+04</totfact>
</mgrwt>
</event>
<event>
 6    2  0.1674964E-002  0.1570146E+03  0.7546771E-02  0.1192109E+00
         21   -1    0    0  502  503  0.00000000000E+00  0.00000000000E+00  0.12282694417E+03  0.12282694417E+03  0.00000000000E+00 0. -1.
          2   -1    0    0  503    0 -0.00000000000E+00 -0.00000000000E+00 -0.24027023192E+03  0.24027023192E+03  0.00000000000E+00 0. -1.
         25    2    1    2    0    0 -0.38181673295E+02 -0.87077757798E+02 -0.18781866170E+03  0.24480487144E+03  0.12495278836E+03 0.  0.
          5    1    3    3  501    0  0.24785781033E+02  0.20273223926E+02 -0.30629777797E+02  0.44311757330E+02  0.10000000000E+00 0.  1.
         -5    1    3    3    0  501 -0.62967454328E+02 -0.10735098172E+03 -0.15718888391E+03  0.20049311411E+03  0.10000000000E+00 0.  1.
          2    1    1    2  502    0  0.38181673295E+02  0.87077757798E+02  0.70375373960E+02  0.11829230465E+03  0.00000000000E+00 0. -1.
<mgrwt>
<rscale>  1 0.15701457E+03</rscale>
<asrwt>0</asrwt>
<pdfrwt beam="1">  1       21 0.18896453E-01 0.15701457E+03</pdfrwt>
<pdfrwt beam="2">  1        2 0.36964651E-01 0.15701457E+03</pdfrwt>
<totfact> 0.44160012E+04</totfact>
</mgrwt>
</event>
<event>
 6    2  0.1674964E-002  0.1259645E+03  0.7546771E-02  0.1233570E+00
          4   -1    0    0  503    0 -0.00000000000E+00  0.00000000000E+00  0.10634568850E+03  0.10634568850E+03  0.00000000000E+00 0.  1.
         21   -1    0    0  502  503  0.00000000000E+00 -0.00000000000E+00 -0.67566698931E+02  0.67566698931E+02  0.00000000000E+00 0.  1.
         25    2    1    2    0    0  0.11980863638E+02  0.99388388489E+01 -0.63998433065E+01  0.12612694455E+03  0.12499890614E+03 0.  0.
          5    1    3    3  501    0  0.48802479026E+02 -0.39988746048E+02 -0.10470475035E+02  0.63956411853E+02  0.10000000000E+00 0. -1.
         -5    1    3    3    0  501 -0.36821615388E+02  0.49927584897E+02  0.40706317289E+01  0.62170532699E+02  0.10000000000E+00 0. -1.
          4    1    1    2  502    0 -0.11980863638E+02 -0.99388388489E+01  0.45178832876E+02  0.47785442880E+02  0.00000000000E+00 0.  1.
<mgrwt>
<rscale>  1 0.12596447E+03</rscale>
<asrwt>0</asrwt>
<pdfrwt beam="1">  1       21 0.10394877E-01 0.12596447E+03</pdfrwt>
<pdfrwt beam="2">  1        4 0.16360875E-01 0.12596447E+03</pdfrwt>
<totfact> 0.97658733E+04</totfact>
</mgrwt>
</event>
<event>
 6    2  0.1674964E-002  0.1265358E+03  0.7546771E-02  0.1232688E+00
          1   -1    0    0  503    0 -0.00000000000E+00  0.00000000000E+00  0.60033437762E+02  0.60033437762E+02  0.00000000000E+00 0.  1.
         21   -1    0    0  502  503  0.00000000000E+00 -0.00000000000E+00 -0.11988758727E+03  0.11988758727E+03  0.00000000000E+00 0.  1.
         25    2    1    2    0    0 -0.10098643211E+02 -0.16857961796E+02 -0.81635962647E+02  0.15058468487E+03  0.12500057380E+03 0.  0.
          5    1    3    3  501    0  0.15015632904E+02 -0.65641051345E+02 -0.64137225553E+02  0.92993604913E+02  0.10000000000E+00 0.  1.
         -5    1    3    3    0  501 -0.25114276115E+02  0.48783089549E+02 -0.17498737094E+02  0.57591079957E+02  0.10000000000E+00 0.  1.
          1    1    1    2  502    0  0.10098643211E+02  0.16857961796E+02  0.21781813138E+02  0.29336340163E+02  0.00000000000E+00 0.  1.
<mgrwt>
<rscale>  1 0.12653583E+03</rscale>
<asrwt>0</asrwt>
<pdfrwt beam="1">  1       21 0.18444244E-01 0.12653583E+03</pdfrwt>
<pdfrwt beam="2">  1        1 0.92359136E-02 0.12653583E+03</pdfrwt>
<totfact> 0.19918223E+05</totfact>
</mgrwt>
</event>
<event>
 6    2  0.1674964E-002  0.2251819E+03  0.7546771E-02  0.1130078E+00
         21   -1    0    0  502  503  0.00000000000E+00  0.00000000000E+00  0.38145694357E+03  0.38145694357E+03  0.00000000000E+00 0.  1.
          2   -1    0    0  503    0 -0.00000000000E+00 -0.00000000000E+00 -0.20829880457E+03  0.20829880457E+03  0.00000000000E+00 0.  1.
         25    2    1    2    0    0 -0.86283006711E+02 -0.16625711681E+03  0.29138261577E+03  0.36825357423E+03  0.12498271889E+03 0.  0.
          5    1    3    3  501    0 -0.99405971988E+02 -0.18033537088E+03  0.26518776980E+03  0.33574835295E+03  0.10000000000E+00 0.  1.
         -5    1    3    3    0  501  0.13122965277E+02  0.14078254062E+02  0.26194845969E+02  0.32505221280E+02  0.10000000000E+00 0.  1.
          2    1    1    2  502    0  0.86283006711E+02  0.16625711681E+03 -0.11822447678E+03  0.22150217391E+03  0.00000000000E+00 0.  1.
<mgrwt>
<rscale>  1 0.22518185E+03</rscale>
<asrwt>0</asrwt>
<pdfrwt beam="1">  1       21 0.58685684E-01 0.22518185E+03</pdfrwt>
<pdfrwt beam="2">  1        2 0.32045970E-01 0.22518185E+03</pdfrwt>
<totfact> 0.54100001E+03</totfact>
</mgrwt>
</event>
<event>
 6    2  0.1674964E-002  0.1280373E+03  0.7546771E-02  0.1230397E+00
         21   -1    0    0  502  503  0.00000000000E+00  0.00000000000E+00  0.11291880195E+02  0.11291880195E+02  0.00000000000E+00 0.  1.
          2   -1    0    0  503    0 -0.00000000000E+00 -0.00000000000E+00 -0.57876535082E+03  0.57876535082E+03  0.00000000000E+00 0.  1.
         25    2    1    2    0    0 -0.27655446893E+02  0.17429238021E+01 -0.39122498376E+03  0.41164369271E+03  0.12500272120E+03 0.  0.
          5    1    3    3  501    0  0.43231788708E+02 -0.17974230921E+02 -0.22565459057E+03  0.23046054929E+03  0.10000000000E+00 0. -1.
         -5    1    3    3    0  501 -0.70887235601E+02  0.19717154723E+02 -0.16557039319E+03  0.18118314342E+03  0.10000000000E+00 0. -1.
          2    1    1    2  502    0  0.27655446893E+02 -0.17429238021E+01 -0.17624848687E+03  0.17841353830E+03  0.00000000000E+00 0.  1.
<mgrwt>
<rscale>  1 0.12803727E+03</rscale>
<asrwt>0</asrwt>
<pdfrwt beam="1">  1       21 0.17372122E-02 0.12803727E+03</pdfrwt>
<pdfrwt beam="2">  1        2 0.89040832E-01 0.12803727E+03</pdfrwt>
<totfact> 0.99431344E+05</totfact>
</mgrwt>
</event>
<event>
 6    2  0.1674964E-002  0.1293261E+03  0.7546771E-02  0.1228459E+00
         21   -1    0    0  502  503  0.00000000000E+00  0.00000000000E+00  0.53661106384E+03  0.53661106384E+03  0.00000000000E+00 0.  1.
          4   -1    0    0  503    0 -0.00000000000E+00 -0.00000000000E+00 -0.24860111650E+02  0.24860111650E+02  0.00000000000E+00 0.  1.
         25    2    1    2    0    0 -0.15553565780E+02 -0.29294547949E+02  0.51222642660E+03  0.52830025413E+03  0.12500064982E+03 0.  0.
          5    1    3    3  501    0 -0.20987981046E+02 -0.31236337455E+02  0.36130089344E+02  0.52168932153E+02  0.10000000000E+00 0. -1.
         -5    1    3    3    0  501  0.54344152663E+01  0.19417895053E+01  0.47609633726E+03  0.47613132198E+03  0.10000000000E+00 0. -1.
          4    1    1    2  502    0  0.15553565780E+02  0.29294547949E+02 -0.47547441218E+00  0.33170921361E+02  0.00000000000E+00 0.  1.
<mgrwt>
<rscale>  1 0.12932612E+03</rscale>
<asrwt>0</asrwt>
<pdfrwt beam="1">  1       21 0.82555540E-01 0.12932612E+03</pdfrwt>
<pdfrwt beam="2">  1        4 0.38246330E-02 0.12932612E+03</pdfrwt>
<totfact> 0.19278601E+04</totfact>
</mgrwt>
</event>
<event>
 6    2  0.1674964E-002  0.1458742E+03  0.7546771E-02  0.1205636E+00
         21   -1    0    0  502  503  0.00000000000E+00  0.00000000000E+00  0.38184018207E+03  0.38184018207E+03  0.00000000000E+00 0. -1.
          2   -1    0    0  503    0 -0.00000000000E+00 -0.00000000000E+00 -0.65017636865E+02  0.65017636865E+02  0.00000000000E+00 0.  1.
         25    2    1    2    0    0 -0.58133386248E+02 -0.47703997543E+02  0.33850082779E+03  0.36859473751E+03  0.12499643247E+03 0.  0.
          5    1    3    3  501    0 -0.63987867781E+02 -0.54011382406E+02  0.34672362970E+03  0.35669169046E+03  0.10000000000E+00 0.  1.
         -5    1    3    3    0  501  0.58544815328E+01  0.63073848629E+01 -0.82228019103E+01  0.11903047050E+02  0.10000000000E+00 0.  1.
          2    1    1    2  502    0  0.58133386248E+02  0.47703997543E+02 -0.21678282584E+02  0.78263081424E+02  0.00000000000E+00 0.  1.
<mgrwt>
<rscale>  1 0.14587416E+03</rscale>
<asrwt>0</asrwt>
<pdfrwt beam="1">  1       21 0.58744642E-01 0.14587416E+03</pdfrwt>
<pdfrwt beam="2">  1        2 0.10002714E-01 0.14587416E+03</pdfrwt>
<totfact> 0.21083301E+04</totfact>
</mgrwt>
</event>
<event>
 6    2  0.1674964E-002  0.1269918E+03  0.7546771E-02  0.1231989E+00
          2   -1    0    0  503    0 -0.00000000000E+00  0.00000000000E+00  0.32356083343E+03  0.32356083343E+03  0.00000000000E+00 0. -1.
         21   -1    0    0  502  503  0.00000000000E+00 -0.00000000000E+00 -0.18467269721E+03  0.18467269721E+03  0.00000000000E+00 0. -1.
         25    2    1    2    0    0 -0.20941527310E+02  0.79538852440E+01 -0.16237582346E+03  0.20613787484E+03  0.12500041417E+03 0.  0.
          5    1    3    3  501    0  0.12116981410E+02  0.52547528667E+02 -0.28032020309E+02  0.60777201072E+02  0.10000000000E+00 0.  1.
         -5    1    3    3    0  501 -0.33058508720E+02 -0.44593643423E+02 -0.13434380315E+03  0.14536067377E+03  0.10000000000E+00 0.  1.
          2    1    1    2  502    0  0.20941527310E+02 -0.79538852440E+01  0.30126395968E+03  0.30209565580E+03  0.00000000000E+00 0. -1.
<mgrwt>
<rscale>  1 0.12699179E+03</rscale>
<asrwt>0</asrwt>
<pdfrwt beam="1">  1       21 0.28411184E-01 0.12699179E+03</pdfrwt>
<pdfrwt beam="2">  1        2 0.49778590E-01 0.12699179E+03</pdfrwt>
<totfact> 0.14963938E+04</totfact>
</mgrwt>
</event>
<event>
 6    2  0.1674964E-002  0.1315537E+03  0.7546771E-02  0.1225168E+00
          1   -1    0    0  503    0 -0.00000000000E+00  0.00000000000E+00  0.23398884182E+04  0.23398884182E+04  0.00000000000E+00 0.  1.
         21   -1    0    0  502  503  0.00000000000E+00 -0.00000000000E+00 -0.26338247474E+03  0.26338247474E+03  0.00000000000E+00 0.  1.
         25    2    1    2    0    0  0.21765642569E+02  0.34735709623E+02 -0.24676335603E+03  0.27963999483E+03  0.12500424037E+03 0.  0.
          5    1    3    3  501    0 -0.22771349842E+02 -0.35412350585E+02 -0.45987266286E+02  0.62349078646E+02  0.10000000000E+00 0.  1.
         -5    1    3    3    0  501  0.44536992411E+02  0.70148060208E+02 -0.20077608974E+03  0.21729091618E+03  0.10000000000E+00 0.  1.
          1    1    1    2  502    0 -0.21765642569E+02 -0.34735709623E+02  0.23232692995E+04  0.23236308981E+04  0.00000000000E+00 0.  1.
<mgrwt>
<rscale>  1 0.13155369E+03</rscale>
<asrwt>0</asrwt>
<pdfrwt beam="1">  1       21 0.40520382E-01 0.13155369E+03</pdfrwt>
<pdfrwt beam="2">  1        1 0.35998282E+00 0.13155369E+03</pdfrwt>
<totfact> 0.14616219E+02</totfact>
</mgrwt>
</event>
<event>
 6    2  0.1674964E-002  0.1340929E+03  0.7546771E-02  0.1221506E+00
         21   -1    0    0  502  503  0.00000000000E+00  0.00000000000E+00  0.30477898038E+03  0.30477898038E+03  0.00000000000E+00 0.  1.
          2   -1    0    0  503    0 -0.00000000000E+00 -0.00000000000E+00 -0.40969953452E+02  0.40969953452E+02  0.00000000000E+00 0. -1.
         25    2    1    2    0    0  0.46465188792E+01 -0.48250204379E+02  0.26528924548E+03  0.29725291949E+03  0.12502496557E+03 0.  0.
          5    1    3    3  501    0 -0.51832518642E+02  0.49251008937E+01  0.14554731781E+03  0.15457974748E+03  0.10000000000E+00 0.  1.
         -5    1    3    3    0  501  0.56479037521E+02 -0.53175305273E+02  0.11974192766E+03  0.14267317201E+03  0.10000000000E+00 0.  1.
          2    1    1    2  502    0 -0.46465188792E+01  0.48250204379E+02 -0.14802185515E+01  0.48496014344E+02  0.00000000000E+00 0. -1.
<mgrwt>
<rscale>  1 0.13409293E+03</rscale>
<asrwt>0</asrwt>
<pdfrwt beam="1">  1       21 0.46889072E-01 0.13409293E+03</pdfrwt>
<pdfrwt beam="2">  1        2 0.63030700E-02 0.13409293E+03</pdfrwt>
<totfact> 0.60200561E+04</totfact>
</mgrwt>
</event>
<event>
 6    2  0.1674964E-002  0.1311715E+03  0.7546771E-02  0.1225728E+00
         21   -1    0    0  502  503  0.00000000000E+00  0.00000000000E+00  0.68234095282E+03  0.68234095282E+03  0.00000000000E+00 0.  1.
          1   -1    0    0  503    0 -0.00000000000E+00 -0.00000000000E+00 -0.62659668763E+02  0.62659668763E+02  0.00000000000E+00 0.  1.
         25    2    1    2    0    0 -0.71171393939E+01 -0.39196204526E+02  0.66892280977E+03  0.68166245001E+03  0.12497589451E+03 0.  0.
          5    1    3    3  501    0 -0.39090013690E+02  0.47321182333E+01  0.54415788679E+03  0.54558064287E+03  0.10000000000E+00 0. -1.
         -5    1    3    3    0  501  0.31972874296E+02 -0.43928322759E+02  0.12476492297E+03  0.13608180715E+03  0.10000000000E+00 0. -1.
          1    1    1    2  502    0  0.71171393939E+01  0.39196204526E+02 -0.49241525716E+02  0.63338171565E+02  0.00000000000E+00 0.  1.
<mgrwt>
<rscale>  1 0.13117153E+03</rscale>
<asrwt>0</asrwt>
<pdfrwt beam="1">  1       21 0.10497553E+00 0.13117153E+03</pdfrwt>
<pdfrwt beam="2">  1        1 0.96399495E-02 0.13117153E+03</pdfrwt>
<totfact> 0.53321906E+03</totfact>
</mgrwt>
</event>
<event>
 6    2  0.1674964E-002  0.2010393E+03  0.7546771E-02  0.1148865E+00
         21   -1    0    0  502  503  0.00000000000E+00  0.00000000000E+00  0.97606957347E+02  0.97606957347E+02  0.00000000000E+00 0. -1.
          2   -1    0    0  503    0 -0.00000000000E+00 -0.00000000000E+00 -0.78301683032E+03  0.78301683032E+03  0.00000000000E+00 0.  1.
         25    2    1    2    0    0 -0.51835241992E+02 -0.14867446936E+03 -0.26043814965E+02  0.20271923052E+03  0.12500326384E+03 0.  0.
          5    1    3    3  501    0  0.19870939754E+02  0.12958428721E+02 -0.77200633736E+01  0.24947635161E+02  0.10000000000E+00 0.  1.
         -5    1    3    3    0  501 -0.71706181746E+02 -0.16163289808E+03 -0.18323751592E+02  0.17777159536E+03  0.10000000000E+00 0.  1.
          2    1    1    2  502    0  0.51835241992E+02  0.14867446936E+03 -0.65936605800E+03  0.67790455715E+03  0.00000000000E+00 0.  1.
<mgrwt>
<rscale>  1 0.20103931E+03</rscale>
<asrwt>0</asrwt>
<pdfrwt beam="1">  1       21 0.15016455E-01 0.20103931E+03</pdfrwt>
<pdfrwt beam="2">  1        2 0.12046413E+00 0.20103931E+03</pdfrwt>
<totfact> 0.18015879E+04</totfact>
</mgrwt>
</event>
<event>
 6    2  0.1674964E-002  0.1260045E+03  0.7546771E-02  0.1233508E+00
         21   -1    0    0  502  503  0.00000000000E+00  0.00000000000E+00  0.67804959154E+02  0.67804959154E+02  0.00000000000E+00 0.  1.
          2   -1    0    0  503    0 -0.00000000000E+00 -0.00000000000E+00 -0.11026110111E+03  0.11026110111E+03  0.00000000000E+00 0.  1.
         25    2    1    2    0    0  0.12201245848E+02 -0.10168830778E+02  0.69237293738E+01  0.12619461135E+03  0.12499946554E+03 0.  0.
          5    1    3    3  501    0  0.51192412989E+02 -0.43503159674E+02  0.25180764276E+02  0.71744469743E+02  0.10000000000E+00 0. -1.
         -5    1    3    3    0  501 -0.38991167140E+02  0.33334328896E+02 -0.18257034902E+02  0.54450141610E+02  0.10000000000E+00 0. -1.
          2    1    1    2  502    0 -0.12201245848E+02  0.10168830778E+02 -0.49379871329E+02  0.51871448911E+02  0.00000000000E+00 0.  1.
<mgrwt>
<rscale>  1 0.12600453E+03</rscale>
<asrwt>0</asrwt>
<pdfrwt beam="1">  1       21 0.10431532E-01 0.12600453E+03</pdfrwt>
<pdfrwt beam="2">  1        2 0.16963246E-01 0.12600453E+03</pdfrwt>
<totfact> 0.30180314E+05</totfact>
</mgrwt>
</event>
<event>
 6    2  0.1674964E-002  0.1323956E+03  0.7546771E-02  0.1223944E+00
          2   -1    0    0  503    0 -0.00000000000E+00  0.00000000000E+00  0.50418574492E+03  0.50418574492E+03  0.00000000000E+00 0. -1.
         21   -1    0    0  502  503  0.00000000000E+00 -0.00000000000E+00 -0.42229892966E+02  0.42229892966E+02  0.00000000000E+00 0. -1.
         25    2    1    2    0    0  0.23360373968E+02 -0.36856439543E+02  0.65766367423E+02  0.14783037491E+03  0.12499800180E+03 0.  0.
          5    1    3    3  501    0  0.52958497589E+02 -0.45831606520E+02 -0.53888664179E+01  0.70243779115E+02  0.10000000000E+00 0. -1.
         -5    1    3    3    0  501 -0.29598123621E+02  0.89751669768E+01  0.71155233841E+02  0.77586595795E+02  0.10000000000E+00 0. -1.
          2    1    1    2  502    0 -0.23360373968E+02  0.36856439543E+02  0.39618948453E+03  0.39858526297E+03  0.00000000000E+00 0. -1.
<mgrwt>
<rscale>  1 0.13239564E+03</rscale>
<asrwt>0</asrwt>
<pdfrwt beam="1">  1       21 0.64969070E-02 0.13239564E+03</pdfrwt>
<pdfrwt beam="2">  1        2 0.77567033E-01 0.13239564E+03</pdfrwt>
<totfact> 0.13166168E+05</totfact>
</mgrwt>
</event>
<event>
 6    2  0.1674964E-002  0.1329010E+03  0.7546771E-02  0.1223214E+00
         21   -1    0    0  502  503  0.00000000000E+00  0.00000000000E+00  0.58538275811E+01  0.58538275811E+01  0.00000000000E+00 0.  1.
          1   -1    0    0  503    0 -0.00000000000E+00 -0.00000000000E+00 -0.14229471550E+04  0.14229471550E+04  0.00000000000E+00 0.  1.
         25    2    1    2    0    0  0.45075908657E+02 -0.14817942723E+01 -0.90218647362E+03  0.91192275577E+03  0.12501458341E+03 0.  0.
          5    1    3    3  501    0  0.95678395639E+01 -0.18076186860E+02 -0.82593085475E+03  0.82618404663E+03  0.10000000000E+00 0. -1.
         -5    1    3    3    0  501  0.35508069093E+02  0.16594392588E+02 -0.76255618867E+02  0.85738709139E+02  0.10000000000E+00 0. -1.
          1    1    1    2  502    0 -0.45075908657E+02  0.14817942723E+01 -0.51490685383E+03  0.51687822684E+03  0.00000000000E+00 0.  1.
<mgrwt>
<rscale>  1 0.13290101E+03</rscale>
<asrwt>0</asrwt>
<pdfrwt beam="1">  1       21 0.90058936E-03 0.13290101E+03</pdfrwt>
<pdfrwt beam="2">  1        1 0.21891483E+00 0.13290101E+03</pdfrwt>
<totfact> 0.40100090E+05</totfact>
</mgrwt>
</event>
<event>
 6    2  0.1674964E-002  0.1269071E+03  0.7546771E-02  0.1232119E+00
         21   -1    0    0  502  503  0.00000000000E+00  0.00000000000E+00  0.97760031441E+02  0.97760031441E+02  0.00000000000E+00 0. -1.
          1   -1    0    0  503    0 -0.00000000000E+00 -0.00000000000E+00 -0.18491218549E+03  0.18491218549E+03  0.00000000000E+00 0. -1.
         25    2    1    2    0    0  0.21826044462E+02 -0.15068760405E+01  0.55384683997E+02  0.13846612451E+03  0.12500702989E+03 0.  0.
          5    1    3    3  501    0  0.29940471191E+01 -0.56698810341E+02  0.56554115557E+02  0.80137989734E+02  0.10000000000E+00 0.  1.
         -5    1    3    3    0  501  0.18831997343E+02  0.55191934301E+02 -0.11694315595E+01  0.58328134772E+02  0.10000000000E+00 0.  1.
          1    1    1    2  502    0 -0.21826044462E+02  0.15068760405E+01 -0.14253683805E+03  0.14420609243E+03  0.00000000000E+00 0. -1.
<mgrwt>
<rscale>  1 0.12690707E+03</rscale>
<asrwt>0</asrwt>
<pdfrwt beam="1">  1       21 0.15040005E-01 0.12690707E+03</pdfrwt>
<pdfrwt beam="2">  1        1 0.28448028E-01 0.12690707E+03</pdfrwt>
<totfact> 0.67952385E+04</totfact>
</mgrwt>
</event>
<event>
 6    2  0.1674964E-002  0.1345516E+03  0.7546771E-02  0.1220854E+00
          2   -1    0    0  503    0 -0.00000000000E+00  0.00000000000E+00  0.34572470063E+03  0.34572470063E+03  0.00000000000E+00 0. -1.
         21   -1    0    0  502  503  0.00000000000E+00 -0.00000000000E+00 -0.81401161858E+02  0.81401161858E+02  0.00000000000E+00 0. -1.
         25    2    1    2    0    0 -0.35498058817E+02  0.34932798516E+02 -0.22143696850E+02  0.13636154267E+03  0.12499485757E+03 0.  0.
          5    1    3    3  501    0 -0.24754689784E+01  0.73706355385E+02  0.12452866855E+02  0.74791969246E+02  0.10000000000E+00 0.  1.
         -5    1    3    3    0  501 -0.33022589838E+02 -0.38773556869E+02 -0.34596563705E+02  0.61569573428E+02  0.10000000000E+00 0.  1.
          2    1    1    2  502    0  0.35498058817E+02 -0.34932798516E+02  0.28646723562E+03  0.29076431982E+03  0.00000000000E+00 0. -1.
<mgrwt>
<rscale>  1 0.13455158E+03</rscale>
<asrwt>0</asrwt>
<pdfrwt beam="1">  1       21 0.12523256E-01 0.13455158E+03</pdfrwt>
<pdfrwt beam="2">  1        2 0.53188415E-01 0.13455158E+03</pdfrwt>
<totfact> 0.63080537E+04</totfact>
</mgrwt>
</event>
<event>
 6    2  0.1674964E-002  0.1639350E+03  0.7546771E-02  0.1184324E+00
         21   -1    0    0  502  503  0.00000000000E+00  0.00000000000E+00  0.13797400942E+04  0.13797400942E+04  0.00000000000E+00 0.  1.
          2   -1    0    0  503    0 -0.00000000000E+00 -0.00000000000E+00 -0.21109760815E+03  0.21109760815E+03  0.00000000000E+00 0. -1.
         25    2    1    2    0    0  0.55916601317E+02 -0.90118894960E+02  0.13611832578E+04  0.13710195267E+04  0.12500639872E+03 0.  0.
          5    1    3    3  501    0 -0.22079855918E+02 -0.19158907524E+02  0.76669582871E+03  0.76725294887E+03  0.10000000000E+00 0. -1.
         -5    1    3    3    0  501  0.77996457235E+02 -0.70959987436E+02  0.59448742911E+03  0.60376657785E+03  0.10000000000E+00 0. -1.
          2    1    1    2  502    0 -0.55916601317E+02  0.90118894960E+02 -0.19254077179E+03  0.21981817562E+03  0.00000000000E+00 0. -1.
<mgrwt>
<rscale>  1 0.16393499E+03</rscale>
<asrwt>0</asrwt>
<pdfrwt beam="1">  1       21 0.21226770E+00 0.16393499E+03</pdfrwt>
<pdfrwt beam="2">  1        2 0.32476556E-01 0.16393499E+03</pdfrwt>
<totfact> 0.22851018E+02</totfact>
</mgrwt>
</event>
<event>
 6    2  0.1674964E-002  0.1343620E+03  0.7546771E-02  0.1221123E+00
         21   -1    0    0  502  503  0.00000000000E+00  0.00000000000E+00  0.24547078552E+02  0.24547078552E+02  0.00000000000E+00 0.  1.
          1   -1    0    0  503    0 -0.00000000000E+00 -0.00000000000E+00 -0.89092162861E+03  0.89092162861E+03  0.00000000000E+00 0.  1.
         25    2    1    2    0    0 -0.18361372241E+02  0.45728654574E+02 -0.16691270275E+03  0.21427320969E+03  0.12499963284E+03 0.  0.
          5    1    3    3  501    0  0.13447356049E+02 -0.11322577686E+01 -0.15601465059E+03  0.15659723686E+03  0.10000000000E+00 0.  1.
         -5    1    3    3    0  501 -0.31808728291E+02  0.46860912343E+02 -0.10898052159E+02  0.57675972831E+02  0.10000000000E+00 0.  1.
          1    1    1    2  502    0  0.18361372241E+02 -0.45728654574E+02 -0.69946184731E+03  0.70119549747E+03  0.00000000000E+00 0.  1.
<mgrwt>
<rscale>  1 0.13436204E+03</rscale>
<asrwt>0</asrwt>
<pdfrwt beam="1">  1       21 0.37764731E-02 0.13436204E+03</pdfrwt>
<pdfrwt beam="2">  1        1 0.13706488E+00 0.13436204E+03</pdfrwt>
<totfact> 0.93662572E+04</totfact>
</mgrwt>
</event>
<event>
 6    2  0.1674964E-002  0.1370643E+03  0.7546771E-02  0.1217335E+00
         21   -1    0    0  502  503  0.00000000000E+00  0.00000000000E+00  0.32643415036E+02  0.32643415036E+02  0.00000000000E+00 0. -1.
          1   -1    0    0  503    0 -0.00000000000E+00 -0.00000000000E+00 -0.10610005116E+04  0.10610005116E+04  0.00000000000E+00 0.  1.
         25    2    1    2    0    0 -0.30064117102E+02  0.47542464923E+02 -0.11602233265E+03  0.17957671983E+03  0.12498991769E+03 0.  0.
          5    1    3    3  501    0 -0.42231525166E+02  0.31311562227E+02 -0.13918734927E+03  0.14878522724E+03  0.10000000000E+00 0.  1.
         -5    1    3    3    0  501  0.12167408065E+02  0.16230902696E+02  0.23165016619E+02  0.30791492596E+02  0.10000000000E+00 0.  1.
          1    1    1    2  502    0  0.30064117102E+02 -0.47542464923E+02 -0.91233476390E+03  0.91406720679E+03  0.00000000000E+00 0.  1.
<mgrwt>
<rscale>  1 0.13706428E+03</rscale>
<asrwt>0</asrwt>
<pdfrwt beam="1">  1       21 0.50220645E-02 0.13706428E+03</pdfrwt>
<pdfrwt beam="2">  1        1 0.16323083E+00 0.13706428E+03</pdfrwt>
<totfact> 0.43531386E+04</totfact>
</mgrwt>
</event>
<event>
 6    2  0.1674964E-002  0.1356733E+03  0.7546771E-02  0.1219272E+00
         21   -1    0    0  502  503  0.00000000000E+00  0.00000000000E+00  0.17839431722E+02  0.17839431722E+02  0.00000000000E+00 0.  1.
          1   -1    0    0  503    0 -0.00000000000E+00 -0.00000000000E+00 -0.15714576516E+04  0.15714576516E+04  0.00000000000E+00 0.  1.
         25    2    1    2    0    0  0.49704346889E+02 -0.17705885737E+02 -0.24859721442E+03  0.28320985608E+03  0.12499290808E+03 0.  0.
          5    1    3    3  501    0 -0.56153702017E+01 -0.45911492469E+02 -0.19735118213E+03  0.20269902963E+03  0.10000000000E+00 0.  1.
         -5    1    3    3    0  501  0.55319717090E+02  0.28205606732E+02 -0.51246032289E+02  0.80510826449E+02  0.10000000000E+00 0.  1.
          1    1    1    2  502    0 -0.49704346889E+02  0.17705885737E+02 -0.13050210054E+04  0.13060872272E+04  0.00000000000E+00 0.  1.
<mgrwt>
<rscale>  1 0.13567331E+03</rscale>
<asrwt>0</asrwt>
<pdfrwt beam="1">  1       21 0.27445284E-02 0.13567331E+03</pdfrwt>
<pdfrwt beam="2">  1        1 0.24176267E+00 0.13567331E+03</pdfrwt>
<totfact> 0.53915057E+04</totfact>
</mgrwt>
</event>
<event>
 6    2  0.1674964E-002  0.1287395E+03  0.7546771E-02  0.1229338E+00
         21   -1    0    0  502  503  0.00000000000E+00  0.00000000000E+00  0.26413329411E+03  0.26413329411E+03  0.00000000000E+00 0. -1.
          2   -1    0    0  503    0 -0.00000000000E+00 -0.00000000000E+00 -0.46922473988E+02  0.46922473988E+02  0.00000000000E+00 0. -1.
         25    2    1    2    0    0 -0.16671175419E+02 -0.25900020411E+02  0.24026475319E+03  0.27258210208E+03  0.12500044639E+03 0.  0.
          5    1    3    3  501    0  0.21954770373E+02  0.42798412931E+02  0.11409063140E+03  0.12381598550E+03  0.10000000000E+00 0. -1.
         -5    1    3    3    0  501 -0.38625945792E+02 -0.68698433342E+02  0.12617412180E+03  0.14876611658E+03  0.10000000000E+00 0. -1.
          2    1    1    2  502    0  0.16671175419E+02  0.25900020411E+02 -0.23053933070E+02  0.38473666021E+02  0.00000000000E+00 0. -1.
<mgrwt>
<rscale>  1 0.12873947E+03</rscale>
<asrwt>0</asrwt>
<pdfrwt beam="1">  1       21 0.40635891E-01 0.12873947E+03</pdfrwt>
<pdfrwt beam="2">  1        2 0.72188423E-02 0.12873947E+03</pdfrwt>
<totfact> 0.67595005E+04</totfact>
</mgrwt>
</event>
<event>
 6    2  0.1674964E-002  0.1464719E+03  0.7546771E-02  0.1204876E+00
         21   -1    0    0  502  503  0.00000000000E+00  0.00000000000E+00  0.65228939763E+03  0.65228939763E+03  0.00000000000E+00 0. -1.
          4   -1    0    0  503    0 -0.00000000000E+00 -0.00000000000E+00 -0.18561336734E+03  0.18561336734E+03  0.00000000000E+00 0.  1.
         25    2    1    2    0    0  0.71808248517E+02  0.25938507533E+02  0.63574176418E+03  0.65239682678E+03  0.12499919254E+03 0.  0.
          5    1    3    3  501    0  0.50258969646E+02  0.63637855377E+02  0.22135235168E+03  0.23573844460E+03  0.10000000000E+00 0. -1.
         -5    1    3    3    0  501  0.21549278871E+02 -0.37699347844E+02  0.41438941250E+03  0.41665838218E+03  0.10000000000E+00 0. -1.
          4    1    1    2  502    0 -0.71808248517E+02 -0.25938507533E+02 -0.16906573389E+03  0.18550593819E+03  0.00000000000E+00 0.  1.
<mgrwt>
<rscale>  1 0.14647194E+03</rscale>
<asrwt>0</asrwt>
<pdfrwt beam="1">  1       21 0.10035221E+00 0.14647194E+03</pdfrwt>
<pdfrwt beam="2">  1        4 0.28555903E-01 0.14647194E+03</pdfrwt>
<totfact> 0.40167392E+02</totfact>
</mgrwt>
</event>
<event>
 6    2  0.1674964E-002  0.1313695E+03  0.7546771E-02  0.1225438E+00
          1   -1    0    0  503    0 -0.00000000000E+00  0.00000000000E+00  0.14493600552E+04  0.14493600552E+04  0.00000000000E+00 0.  1.
         21   -1    0    0  502  503  0.00000000000E+00 -0.00000000000E+00 -0.52857200840E+01  0.52857200840E+01  0.00000000000E+00 0.  1.
         25    2    1    2    0    0  0.74921757028E+01 -0.39727961184E+02  0.97086560205E+03  0.97971320255E+03  0.12499399348E+03 0.  0.
          5    1    3    3  501    0  0.51515575164E+02 -0.60805134102E+02  0.69598839003E+03  0.70053620025E+03  0.10000000000E+00 0.  1.
         -5    1    3    3    0  501 -0.44023399462E+02  0.21077172919E+02  0.27487721203E+03  0.27917700230E+03  0.10000000000E+00 0.  1.
          1    1    1    2  502    0 -0.74921757028E+01  0.39727961184E+02  0.47320873308E+03  0.47493257275E+03  0.00000000000E+00 0.  1.
<mgrwt>
<rscale>  1 0.13136949E+03</rscale>
<asrwt>0</asrwt>
<pdfrwt beam="1">  1       21 0.81318886E-03 0.13136949E+03</pdfrwt>
<pdfrwt beam="2">  1        1 0.22297815E+00 0.13136949E+03</pdfrwt>
<totfact> 0.45216326E+05</totfact>
</mgrwt>
</event>
<event>
 6    2  0.1674964E-002  0.1276861E+03  0.7546771E-02  0.1230930E+00
         21   -1    0    0  502  503  0.00000000000E+00  0.00000000000E+00  0.73198461805E+02  0.73198461805E+02  0.00000000000E+00 0.  1.
          2   -1    0    0  503    0 -0.00000000000E+00 -0.00000000000E+00 -0.10556063271E+03  0.10556063271E+03  0.00000000000E+00 0.  1.
         25    2    1    2    0    0 -0.23431804117E+02  0.11351308095E+02  0.11022917297E+02  0.12816099655E+03  0.12500333872E+03 0.  0.
          5    1    3    3  501    0  0.48349135506E+02  0.10065542403E+02  0.24476742952E+02  0.55118735414E+02  0.10000000000E+00 0. -1.
         -5    1    3    3    0  501 -0.71780939623E+02  0.12857656919E+01 -0.13453825655E+02  0.73042261132E+02  0.10000000000E+00 0. -1.
          2    1    1    2  502    0  0.23431804117E+02 -0.11351308095E+02 -0.43385088198E+02  0.50598097964E+02  0.00000000000E+00 0.  1.
<mgrwt>
<rscale>  1 0.12768609E+03</rscale>
<asrwt>0</asrwt>
<pdfrwt beam="1">  1       21 0.11261302E-01 0.12768609E+03</pdfrwt>
<pdfrwt beam="2">  1        2 0.16240097E-01 0.12768609E+03</pdfrwt>
<totfact> 0.27765387E+05</totfact>
</mgrwt>
</event>
<event>
 6    2  0.1674964E-002  0.1278024E+03  0.7546771E-02  0.1230753E+00
         21   -1    0    0  502  503  0.00000000000E+00  0.00000000000E+00  0.24630180889E+03  0.24630180889E+03  0.00000000000E+00 0.  1.
          2   -1    0    0  503    0 -0.00000000000E+00 -0.00000000000E+00 -0.24261453453E+02  0.24261453453E+02  0.00000000000E+00 0.  1.
         25    2    1    2    0    0 -0.14643731009E+02 -0.22220193962E+02  0.18867117305E+03  0.22788213993E+03  0.12500112911E+03 0.  0.
          5    1    3    3  501    0  0.29757805942E+01 -0.72069387286E+02  0.84791041860E+02  0.11132107902E+03  0.10000000000E+00 0. -1.
         -5    1    3    3    0  501 -0.17619511603E+02  0.49849193324E+02  0.10388013119E+03  0.11656106091E+03  0.10000000000E+00 0. -1.
          2    1    1    2  502    0  0.14643731009E+02  0.22220193962E+02  0.33369182384E+02  0.42681122414E+02  0.00000000000E+00 0.  1.
<mgrwt>
<rscale>  1 0.12780242E+03</rscale>
<asrwt>0</asrwt>
<pdfrwt beam="1">  1       21 0.37892584E-01 0.12780242E+03</pdfrwt>
<pdfrwt beam="2">  1        2 0.37325315E-02 0.12780242E+03</pdfrwt>
<totfact> 0.18293060E+05</totfact>
</mgrwt>
</event>
<event>
 6    2  0.1674964E-002  0.1421453E+03  0.7546771E-02  0.1210471E+00
         21   -1    0    0  502  503  0.00000000000E+00  0.00000000000E+00  0.23052437379E+03  0.23052437379E+03  0.00000000000E+00 0.  1.
          2   -1    0    0  503    0 -0.00000000000E+00 -0.00000000000E+00 -0.59453867895E+02  0.59453867895E+02  0.00000000000E+00 0.  1.
         25    2    1    2    0    0  0.98266900047E+01 -0.66990531078E+02  0.17087684814E+03  0.22227054202E+03  0.12498400509E+03 0.  0.
          5    1    3    3  501    0 -0.22817752743E+02 -0.79557082244E+02  0.50592188754E+02  0.97002880052E+02  0.10000000000E+00 0. -1.
         -5    1    3    3    0  501  0.32644442748E+02  0.12566551166E+02  0.12028465939E+03  0.12526766197E+03  0.10000000000E+00 0. -1.
          2    1    1    2  502    0 -0.98266900047E+01  0.66990531078E+02  0.19365774998E+00  0.67707699664E+02  0.00000000000E+00 0.  1.
<mgrwt>
<rscale>  1 0.14214534E+03</rscale>
<asrwt>0</asrwt>
<pdfrwt beam="1">  1       21 0.35465288E-01 0.14214534E+03</pdfrwt>
<pdfrwt beam="2">  1        2 0.91467490E-02 0.14214534E+03</pdfrwt>
<totfact> 0.66028796E+04</totfact>
</mgrwt>
</event>
<event>
 6    2  0.1674964E-002  0.1263457E+03  0.7546771E-02  0.1232981E+00
          4   -1    0    0  503    0 -0.00000000000E+00  0.00000000000E+00  0.36850422481E+03  0.36850422481E+03  0.00000000000E+00 0. -1.
         21   -1    0    0  502  503  0.00000000000E+00 -0.00000000000E+00 -0.54357539046E+02  0.54357539046E+02  0.00000000000E+00 0.  1.
         25    2    1    2    0    0  0.11016833124E+02 -0.14685830863E+02  0.19734381469E+02  0.12787761316E+03  0.12500477549E+03 0.  0.
          5    1    3    3  501    0  0.21327514986E+02  0.25807898847E+01  0.70273531002E+02  0.73484029091E+02  0.10000000000E+00 0.  1.
         -5    1    3    3    0  501 -0.10310681862E+02 -0.17266620748E+02 -0.50539149533E+02  0.54393584071E+02  0.10000000000E+00 0.  1.
          4    1    1    2  502    0 -0.11016833124E+02  0.14685830863E+02  0.29441230430E+03  0.29498415070E+03  0.00000000000E+00 0. -1.
<mgrwt>
<rscale>  1 0.12634571E+03</rscale>
<asrwt>0</asrwt>
<pdfrwt beam="1">  1       21 0.83626985E-02 0.12634571E+03</pdfrwt>
<pdfrwt beam="2">  1        4 0.56692956E-01 0.12634571E+03</pdfrwt>
<totfact> 0.13460743E+04</totfact>
</mgrwt>
</event>
<event>
 6    2  0.1674964E-002  0.1313799E+03  0.7546771E-02  0.1225423E+00
         21   -1    0    0  502  503  0.00000000000E+00  0.00000000000E+00  0.22029367422E+03  0.22029367422E+03  0.00000000000E+00 0. -1.
          2   -1    0    0  503    0 -0.00000000000E+00 -0.00000000000E+00 -0.70643556781E+02  0.70643556781E+02  0.00000000000E+00 0. -1.
         25    2    1    2    0    0 -0.24430719585E+02  0.32212879883E+02  0.19183244741E+03  0.23250882480E+03  0.12500454407E+03 0.  0.
          5    1    3    3  501    0 -0.56741043837E+02 -0.21319109077E+02  0.13512305541E+03  0.14809557918E+03  0.10000000000E+00 0.  1.
         -5    1    3    3    0  501  0.32310324252E+02  0.53531988960E+02  0.56709391997E+02  0.84413245619E+02  0.10000000000E+00 0.  1.
          2    1    1    2  502    0  0.24430719585E+02 -0.32212879883E+02 -0.42182329971E+02  0.58428406204E+02  0.00000000000E+00 0. -1.
<mgrwt>
<rscale>  1 0.13137985E+03</rscale>
<asrwt>0</asrwt>
<pdfrwt beam="1">  1       21 0.33891334E-01 0.13137985E+03</pdfrwt>
<pdfrwt beam="2">  1        2 0.10868240E-01 0.13137985E+03</pdfrwt>
<totfact> 0.58309950E+04</totfact>
</mgrwt>
</event>
<event>
 6    2  0.1674964E-002  0.1262265E+03  0.7546771E-02  0.1233165E+00
          3   -1    0    0  503    0 -0.00000000000E+00  0.00000000000E+00  0.91646673823E+02  0.91646673823E+02  0.00000000000E+00 0.  1.
         21   -1    0    0  502  503  0.00000000000E+00 -0.00000000000E+00 -0.25421725934E+03  0.25421725934E+03  0.00000000000E+00 0.  1.
         25    2    1    2    0    0  0.13049226459E+02 -0.11717052053E+02 -0.23747289597E+03  0.26893586462E+03  0.12500220534E+03 0.  0.
          5    1    3    3  501    0 -0.25432358993E+02  0.29459476347E+01 -0.22421739917E+03  0.22567440169E+03  0.10000000000E+00 0. -1.
         -5    1    3    3    0  501  0.38481585452E+02 -0.14662999688E+02 -0.13255496799E+02  0.43261462922E+02  0.10000000000E+00 0. -1.
          3    1    1    2  502    0 -0.13049226459E+02  0.11717052053E+02  0.74902310447E+02  0.76928068547E+02  0.00000000000E+00 0.  1.
<mgrwt>
<rscale>  1 0.12622647E+03</rscale>
<asrwt>0</asrwt>
<pdfrwt beam="1">  1       21 0.39110347E-01 0.12622647E+03</pdfrwt>
<pdfrwt beam="2">  1        3 0.14099488E-01 0.12622647E+03</pdfrwt>
<totfact> 0.12559737E+04</totfact>
</mgrwt>
</event>
<event>
 6    2  0.1674964E-002  0.1294149E+03  0.7546771E-02  0.1228326E+00
          2   -1    0    0  503    0 -0.00000000000E+00  0.00000000000E+00  0.42457285639E+03  0.42457285639E+03  0.00000000000E+00 0.  1.
         21   -1    0    0  502  503  0.00000000000E+00 -0.00000000000E+00 -0.54557899651E+02  0.54557899651E+02  0.00000000000E+00 0.  1.
         25    2    1    2    0    0 -0.20520421798E+02  0.26496437139E+02  0.24153720806E+02  0.13164961495E+03  0.12500027998E+03 0.  0.
          5    1    3    3  501    0 -0.41492557420E+02 -0.40002259509E+02  0.22591238924E+02  0.61904661886E+02  0.10000000000E+00 0. -1.
         -5    1    3    3    0  501  0.20972135623E+02  0.66498696648E+02  0.15624818816E+01  0.69744953065E+02  0.10000000000E+00 0. -1.
          2    1    1    2  502    0  0.20520421798E+02 -0.26496437139E+02  0.34586123593E+03  0.34748114109E+03  0.00000000000E+00 0.  1.
<mgrwt>
<rscale>  1 0.12941491E+03</rscale>
<asrwt>0</asrwt>
<pdfrwt beam="1">  1       21 0.83935233E-02 0.12941491E+03</pdfrwt>
<pdfrwt beam="2">  1        2 0.65318899E-01 0.12941491E+03</pdfrwt>
<totfact> 0.10212719E+05</totfact>
</mgrwt>
</event>
<event>
 6    2  0.1674964E-002  0.2323174E+03  0.7546771E-02  0.1125019E+00
         21   -1    0    0  502  503  0.00000000000E+00  0.00000000000E+00  0.69849339040E+02  0.69849339040E+02  0.00000000000E+00 0. -1.
          4   -1    0    0  503    0 -0.00000000000E+00 -0.00000000000E+00 -0.80105620502E+03  0.80105620502E+03  0.00000000000E+00 0. -1.
         25    2    1    2    0    0 -0.12652043953E+03 -0.14946639467E+03 -0.20642565523E+03  0.31077793011E+03  0.12499498370E+03 0.  0.
          5    1    3    3  501    0 -0.83306347610E+02 -0.20027208785E+02 -0.37255801166E+02  0.93429338884E+02  0.10000000000E+00 0. -1.
         -5    1    3    3    0  501 -0.43214091920E+02 -0.12943918588E+03 -0.16916985406E+03  0.21734859122E+03  0.10000000000E+00 0. -1.
          4    1    1    2  502    0  0.12652043953E+03  0.14946639467E+03 -0.52478121075E+03  0.56012761395E+03  0.00000000000E+00 0. -1.
<mgrwt>
<rscale>  1 0.23231739E+03</rscale>
<asrwt>0</asrwt>
<pdfrwt beam="1">  1       21 0.10746053E-01 0.23231739E+03</pdfrwt>
<pdfrwt beam="2">  1        4 0.12323941E+00 0.23231739E+03</pdfrwt>
<totfact> 0.15652765E+03</totfact>
</mgrwt>
</event>
<event>
 6    2  0.1674964E-002  0.1419415E+03  0.7546771E-02  0.1210740E+00
         21   -1    0    0  502  503  0.00000000000E+00  0.00000000000E+00  0.13969730306E+03  0.13969730306E+03  0.00000000000E+00 0. -1.
          1   -1    0    0  503    0 -0.00000000000E+00 -0.00000000000E+00 -0.40372107061E+03  0.40372107061E+03  0.00000000000E+00 0. -1.
         25    2    1    2    0    0 -0.37537619354E+02  0.55780161761E+02  0.99748260185E+02  0.17348515339E+03  0.12500753466E+03 0.  0.
          5    1    3    3  501    0  0.17280976113E+02 -0.58824572275E+01  0.88324528382E+02  0.90191284237E+02  0.10000000000E+00 0.  1.
         -5    1    3    3    0  501 -0.54818595468E+02  0.61662618988E+02  0.11423731803E+02  0.83293869149E+02  0.10000000000E+00 0.  1.
          1    1    1    2  502    0  0.37537619354E+02 -0.55780161761E+02 -0.36377202773E+03  0.36993322029E+03  0.00000000000E+00 0. -1.
<mgrwt>
<rscale>  1 0.14194148E+03</rscale>
<asrwt>0</asrwt>
<pdfrwt beam="1">  1       21 0.21491893E-01 0.14194148E+03</pdfrwt>
<pdfrwt beam="2">  1        1 0.62110933E-01 0.14194148E+03</pdfrwt>
<totfact> 0.13398235E+04</totfact>
</mgrwt>
</event>
<event>
 6    2  0.1674964E-002  0.1519979E+03  0.7546771E-02  0.1198039E+00
         21   -1    0    0  502  503  0.00000000000E+00  0.00000000000E+00  0.10435121741E+03  0.10435121741E+03  0.00000000000E+00 0. -1.
          2   -1    0    0  503    0 -0.00000000000E+00 -0.00000000000E+00 -0.15421438713E+03  0.15421438713E+03  0.00000000000E+00 0. -1.
         25    2    1    2    0    0  0.53794344574E+02 -0.67707973682E+02  0.11648511466E+02  0.15244356097E+03  0.12500060102E+03 0.  0.
          5    1    3    3  501    0  0.42555431985E+02 -0.19387190275E+02  0.64686404735E+02  0.79819602202E+02  0.10000000000E+00 0.  1.
         -5    1    3    3    0  501  0.11238912590E+02 -0.48320783407E+02 -0.53037893269E+02  0.72623958772E+02  0.10000000000E+00 0.  1.
          2    1    1    2  502    0 -0.53794344574E+02  0.67707973682E+02 -0.61511681190E+02  0.10612204357E+03  0.00000000000E+00 0. -1.
<mgrwt>
<rscale>  1 0.15199787E+03</rscale>
<asrwt>0</asrwt>
<pdfrwt beam="1">  1       21 0.16054034E-01 0.15199787E+03</pdfrwt>
<pdfrwt beam="2">  1        2 0.23725290E-01 0.15199787E+03</pdfrwt>
<totfact> 0.96493231E+04</totfact>
</mgrwt>
</event>
<event>
 6    2  0.1674964E-002  0.1372783E+03  0.7546771E-02  0.1217039E+00
         21   -1    0    0  502  503  0.00000000000E+00  0.00000000000E+00  0.11932551694E+02  0.11932551694E+02  0.00000000000E+00 0. -1.
          2   -1    0    0  503    0 -0.00000000000E+00 -0.00000000000E+00 -0.81770892856E+03  0.81770892856E+03  0.00000000000E+00 0. -1.
         25    2    1    2    0    0  0.31946199765E+02  0.46877662255E+02 -0.49269759619E+03  0.51146480322E+03  0.12500899465E+03 0.  0.
          5    1    3    3  501    0  0.33852084781E+02  0.17980749993E+02 -0.47697398504E+03  0.47851171712E+03  0.10000000000E+00 0.  1.
         -5    1    3    3    0  501 -0.19058850160E+01  0.28896912262E+02 -0.15723611145E+02  0.32953086098E+02  0.10000000000E+00 0.  1.
          2    1    1    2  502    0 -0.31946199765E+02 -0.46877662255E+02 -0.31307878068E+03  0.31817667704E+03  0.00000000000E+00 0. -1.
<mgrwt>
<rscale>  1 0.13727827E+03</rscale>
<asrwt>0</asrwt>
<pdfrwt beam="1">  1       21 0.18357767E-02 0.13727827E+03</pdfrwt>
<pdfrwt beam="2">  1        2 0.12580141E+00 0.13727827E+03</pdfrwt>
<totfact> 0.60736539E+05</totfact>
</mgrwt>
</event>
<event>
 6    2  0.1674964E-002  0.1548703E+03  0.7546771E-02  0.1194613E+00
          1   -1    0    0  503    0 -0.00000000000E+00  0.00000000000E+00  0.38702183564E+03  0.38702183564E+03  0.00000000000E+00 0.  1.
         21   -1    0    0  502  503  0.00000000000E+00 -0.00000000000E+00 -0.39788473340E+02  0.39788473340E+02  0.00000000000E+00 0.  1.
         25    2    1    2    0    0 -0.81737275212E+02  0.40969655560E+02  0.24303781626E+03  0.28818777600E+03  0.12500127706E+03 0.  0.
          5    1    3    3  501    0 -0.86457034521E+02 -0.18259422879E+02  0.18553013177E+03  0.20549857697E+03  0.10000000000E+00 0.  1.
         -5    1    3    3    0  501  0.47197593090E+01  0.59229078439E+02  0.57507684488E+02  0.82689199028E+02  0.10000000000E+00 0.  1.
          1    1    1    2  502    0  0.81737275212E+02 -0.40969655560E+02  0.10419554604E+03  0.13862253298E+03  0.00000000000E+00 0.  1.
<mgrwt>
<rscale>  1 0.15487031E+03</rscale>
<asrwt>0</asrwt>
<pdfrwt beam="1">  1       21 0.61213038E-02 0.15487031E+03</pdfrwt>
<pdfrwt beam="2">  1        1 0.59541818E-01 0.15487031E+03</pdfrwt>
<totfact> 0.13167649E+05</totfact>
</mgrwt>
</event>
<event>
 6    2  0.1674964E-002  0.1313163E+03  0.7546771E-02  0.1225516E+00
         21   -1    0    0  502  503  0.00000000000E+00  0.00000000000E+00  0.14031394995E+02  0.14031394995E+02  0.00000000000E+00 0.  1.
          1   -1    0    0  503    0 -0.00000000000E+00 -0.00000000000E+00 -0.10612782463E+04  0.10612782463E+04  0.00000000000E+00 0. -1.
         25    2    1    2    0    0 -0.40134917689E+02 -0.28324040231E+01 -0.30618637087E+03  0.33315772303E+03  0.12500056229E+03 0.  0.
          5    1    3    3  501    0 -0.33057616688E+02 -0.42290953729E+02 -0.48411471298E+02  0.72284239926E+02  0.10000000000E+00 0. -1.
         -5    1    3    3    0  501 -0.70773010009E+01  0.39458549706E+02 -0.25777489957E+03  0.26087348310E+03  0.10000000000E+00 0. -1.
          1    1    1    2  502    0  0.40134917689E+02  0.28324040231E+01 -0.74106048045E+03  0.74215191828E+03  0.00000000000E+00 0. -1.
<mgrwt>
<rscale>  1 0.13131632E+03</rscale>
<asrwt>0</asrwt>
<pdfrwt beam="1">  1       21 0.21586759E-02 0.13131632E+03</pdfrwt>
<pdfrwt beam="2">  1        1 0.16327360E+00 0.13131632E+03</pdfrwt>
<totfact> 0.17504227E+05</totfact>
</mgrwt>
</event>
<event>
 6    2  0.1674964E-002  0.1540571E+03  0.7546771E-02  0.1195574E+00
         21   -1    0    0  502  503  0.00000000000E+00  0.00000000000E+00  0.69668960166E+03  0.69668960166E+03  0.00000000000E+00 0.  1.
          4   -1    0    0  503    0 -0.00000000000E+00 -0.00000000000E+00 -0.21556187472E+02  0.21556187472E+02  0.00000000000E+00 0.  1.
         25    2    1    2    0    0 -0.89991872615E+02 -0.29694406154E+01  0.45662372753E+03  0.48191162343E+03  0.12500491806E+03 0.  0.
          5    1    3    3  501    0 -0.10750726772E+02 -0.33699082940E+02  0.28477895614E+02  0.45411527784E+02  0.10000000000E+00 0. -1.
         -5    1    3    3    0  501 -0.79241145843E+02  0.30729642324E+02  0.42814583191E+03  0.43650009564E+03  0.10000000000E+00 0. -1.
          4    1    1    2  502    0  0.89991872615E+02  0.29694406154E+01  0.21850968666E+03  0.23633416570E+03  0.00000000000E+00 0.  1.
<mgrwt>
<rscale>  1 0.15405708E+03</rscale>
<asrwt>0</asrwt>
<pdfrwt beam="1">  1       21 0.10718300E+00 0.15405708E+03</pdfrwt>
<pdfrwt beam="2">  1        4 0.33163371E-02 0.15405708E+03</pdfrwt>
<totfact> 0.13350546E+04</totfact>
</mgrwt>
</event>
<event>
 6    2  0.1674964E-002  0.1261638E+03  0.7546771E-02  0.1233262E+00
          2   -1    0    0  503    0 -0.00000000000E+00  0.00000000000E+00  0.89563341910E+03  0.89563341910E+03  0.00000000000E+00 0. -1.
         21   -1    0    0  502  503  0.00000000000E+00 -0.00000000000E+00 -0.29365112040E+02  0.29365112040E+02  0.00000000000E+00 0.  1.
         25    2    1    2    0    0 -0.10757175283E+02  0.13300805872E+02  0.10668917184E+03  0.16522679507E+03  0.12499874466E+03 0.  0.
          5    1    3    3  501    0 -0.18443749198E+02 -0.37413818096E+02 -0.53011079355E+01  0.42048512629E+02  0.10000000000E+00 0. -1.
         -5    1    3    3    0  501  0.76865739152E+01  0.50714623968E+02  0.11199027977E+03  0.12317828244E+03  0.10000000000E+00 0. -1.
          2    1    1    2  502    0  0.10757175283E+02 -0.13300805872E+02  0.75957913523E+03  0.75977173607E+03  0.00000000000E+00 0. -1.
<mgrwt>
<rscale>  1 0.12616384E+03</rscale>
<asrwt>0</asrwt>
<pdfrwt beam="1">  1       21 0.45177102E-02 0.12616384E+03</pdfrwt>
<pdfrwt beam="2">  1        2 0.13778974E+00 0.12616384E+03</pdfrwt>
<totfact> 0.12321224E+05</totfact>
</mgrwt>
</event>
<event>
 6    2  0.1674964E-002  0.1392575E+03  0.7546771E-02  0.1214331E+00
         21   -1    0    0  502  503  0.00000000000E+00  0.00000000000E+00  0.86673919105E+02  0.86673919105E+02  0.00000000000E+00 0. -1.
          2   -1    0    0  503    0 -0.00000000000E+00 -0.00000000000E+00 -0.34072728856E+03  0.34072728856E+03  0.00000000000E+00 0. -1.
         25    2    1    2    0    0 -0.55973925417E+02  0.25195528340E+02  0.25166891649E+02  0.14151338144E+03  0.12499907886E+03 0.  0.
          5    1    3    3  501    0 -0.19699448636E+02  0.53804832325E+02 -0.33861435958E+02  0.66555503929E+02  0.10000000000E+00 0.  1.
         -5    1    3    3    0  501 -0.36274476781E+02 -0.28609303985E+02  0.59028327607E+02  0.74957877507E+02  0.10000000000E+00 0.  1.
          2    1    1    2  502    0  0.55973925417E+02 -0.25195528340E+02 -0.27922026110E+03  0.28588782623E+03  0.00000000000E+00 0. -1.
<mgrwt>
<rscale>  1 0.13925755E+03</rscale>
<asrwt>0</asrwt>
<pdfrwt beam="1">  1       21 0.13334449E-01 0.13925755E+03</pdfrwt>
<pdfrwt beam="2">  1        2 0.52419583E-01 0.13925755E+03</pdfrwt>
<totfact> 0.57304905E+04</totfact>
</mgrwt>
</event>
<event>
 6    2  0.1674964E-002  0.1312102E+03  0.7546771E-02  0.1225671E+00
          2   -1    0    0  503    0 -0.00000000000E+00  0.00000000000E+00  0.12467987036E+04  0.12467987036E+04  0.00000000000E+00 0.  1.
         21   -1    0    0  502  503  0.00000000000E+00 -0.00000000000E+00 -0.46449761285E+02  0.46449761285E+02  0.00000000000E+00 0.  1.
         25    2    1    2    0    0  0.34911619745E+01  0.39715584326E+02  0.47247015475E+02  0.13945750915E+03  0.12500640198E+03 0.  0.
          5    1    3    3  501    0 -0.48467760276E+02  0.47099552023E+02 -0.18253599877E+01  0.67607939815E+02  0.10000000000E+00 0. -1.
         -5    1    3    3    0  501  0.51958922250E+02 -0.73839676973E+01  0.49072375462E+02  0.71849569337E+02  0.10000000000E+00 0. -1.
          2    1    1    2  502    0 -0.34911619745E+01 -0.39715584326E+02  0.11531019269E+04  0.11537909558E+04  0.00000000000E+00 0.  1.
<mgrwt>
<rscale>  1 0.13121020E+03</rscale>
<asrwt>0</asrwt>
<pdfrwt beam="1">  1       21 0.71461181E-02 0.13121020E+03</pdfrwt>
<pdfrwt beam="2">  1        2 0.19181516E+00 0.13121020E+03</pdfrwt>
<totfact> 0.35473547E+04</totfact>
</mgrwt>
</event>
<event>
 6    2  0.1674964E-002  0.1287244E+03  0.7546771E-02  0.1229361E+00
          4   -1    0    0  503    0 -0.00000000000E+00  0.00000000000E+00  0.56631763280E+02  0.56631763280E+02  0.00000000000E+00 0. -1.
         21   -1    0    0  502  503  0.00000000000E+00 -0.00000000000E+00 -0.13051595782E+03  0.13051595782E+03  0.00000000000E+00 0. -1.
         25    2    1    2    0    0  0.29138750495E+01  0.30444524910E+02 -0.85389951294E+02  0.15447139628E+03  0.12503842899E+03 0.  0.
          5    1    3    3  501    0  0.24682453788E+02  0.68598735600E+02 -0.19825669991E+02  0.75551818254E+02  0.10000000000E+00 0.  1.
         -5    1    3    3    0  501 -0.21768578738E+02 -0.38154210690E+02 -0.65564281303E+02  0.78919578030E+02  0.10000000000E+00 0.  1.
          4    1    1    2  502    0 -0.29138750495E+01 -0.30444524910E+02  0.11505756755E+02  0.32676324814E+02  0.00000000000E+00 0. -1.
<mgrwt>
<rscale>  1 0.12872439E+03</rscale>
<asrwt>0</asrwt>
<pdfrwt beam="1">  1       21 0.20079378E-01 0.12872439E+03</pdfrwt>
<pdfrwt beam="2">  1        4 0.87125790E-02 0.12872439E+03</pdfrwt>
<totfact> 0.88021022E+04</totfact>
</mgrwt>
</event>
<event>
 6    2  0.1674964E-002  0.1263936E+03  0.7546771E-02  0.1232907E+00
          3   -1    0    0  503    0 -0.00000000000E+00  0.00000000000E+00  0.33880102209E+03  0.33880102209E+03  0.00000000000E+00 0.  1.
         21   -1    0    0  502  503  0.00000000000E+00 -0.00000000000E+00 -0.22212913625E+02  0.22212913625E+02  0.00000000000E+00 0.  1.
         25    2    1    2    0    0 -0.14555923026E+02 -0.11735843041E+02  0.16285629567E+03  0.20614923614E+03  0.12500291844E+03 0.  0.
          5    1    3    3  501    0  0.48076181831E+02 -0.17358753416E+02  0.30266536742E+02  0.59403020344E+02  0.10000000000E+00 0. -1.
         -5    1    3    3    0  501 -0.62632104858E+02  0.56229103744E+01  0.13258975892E+03  0.14674621580E+03  0.10000000000E+00 0. -1.
          3    1    1    2  502    0  0.14555923026E+02  0.11735843041E+02  0.15373181280E+03  0.15486469957E+03  0.00000000000E+00 0.  1.
<mgrwt>
<rscale>  1 0.12639357E+03</rscale>
<asrwt>0</asrwt>
<pdfrwt beam="1">  1       21 0.34173716E-02 0.12639357E+03</pdfrwt>
<pdfrwt beam="2">  1        3 0.52123230E-01 0.12639357E+03</pdfrwt>
<totfact> 0.88512355E+04</totfact>
</mgrwt>
</event>
<event>
 6    2  0.1674964E-002  0.1274474E+03  0.7546771E-02  0.1231293E+00
          4   -1    0    0  503    0 -0.00000000000E+00  0.00000000000E+00  0.14053263698E+03  0.14053263698E+03  0.00000000000E+00 0. -1.
         21   -1    0    0  502  503  0.00000000000E+00 -0.00000000000E+00 -0.16035918502E+03  0.16035918502E+03  0.00000000000E+00 0.  1.
         25    2    1    2    0    0 -0.28708701218E+01 -0.24694424826E+02 -0.13347897848E+03  0.18455209767E+03  0.12499913018E+03 0.  0.
          5    1    3    3  501    0  0.16660781622E+02  0.97896191819E+01 -0.14258460515E+03  0.14388814376E+03  0.10000000000E+00 0. -1.
         -5    1    3    3    0  501 -0.19531651744E+02 -0.34484044008E+02  0.91056266698E+01  0.40663953915E+02  0.10000000000E+00 0. -1.
          4    1    1    2  502    0  0.28708701218E+01  0.24694424826E+02  0.11365243044E+03  0.11633972433E+03  0.00000000000E+00 0. -1.
<mgrwt>
<rscale>  1 0.12744740E+03</rscale>
<asrwt>0</asrwt>
<pdfrwt beam="1">  1       21 0.24670644E-01 0.12744740E+03</pdfrwt>
<pdfrwt beam="2">  1        4 0.21620406E-01 0.12744740E+03</pdfrwt>
<totfact> 0.12395437E+04</totfact>
</mgrwt>
</event>
<event>
 6    2  0.1674964E-002  0.2198669E+03  0.7546771E-02  0.1133982E+00
         21   -1    0    0  502  503  0.00000000000E+00  0.00000000000E+00  0.30447149682E+02  0.30447149682E+02  0.00000000000E+00 0.  1.
          2   -1    0    0  503    0 -0.00000000000E+00 -0.00000000000E+00 -0.18747019470E+04  0.18747019470E+04  0.00000000000E+00 0. -1.
         25    2    1    2    0    0 -0.16411195513E+03 -0.76050789261E+02 -0.46817144470E+03  0.51722912431E+03  0.12500003614E+03 0.  0.
          5    1    3    3  501    0  0.15499835284E+02 -0.25794681256E+02 -0.38828869132E+02  0.49125365678E+02  0.10000000000E+00 0.  1.
         -5    1    3    3    0  501 -0.17961179041E+03 -0.50256108005E+02 -0.42934257557E+03  0.46810375863E+03  0.10000000000E+00 0.  1.
          2    1    1    2  502    0  0.16411195513E+03  0.76050789261E+02 -0.13760833526E+04  0.13879199724E+04  0.00000000000E+00 0. -1.
<mgrwt>
<rscale>  1 0.21986693E+03</rscale>
<asrwt>0</asrwt>
<pdfrwt beam="1">  1       21 0.46841757E-02 0.21986693E+03</pdfrwt>
<pdfrwt beam="2">  1        2 0.28841576E+00 0.21986693E+03</pdfrwt>
<totfact> 0.33373055E+04</totfact>
</mgrwt>
</event>
<event>
 6    2  0.1674964E-002  0.1286881E+03  0.7546771E-02  0.1229415E+00
         21   -1    0    0  502  503  0.00000000000E+00  0.00000000000E+00  0.48611808874E+01  0.48611808874E+01  0.00000000000E+00 0. -1.
          2   -1    0    0  503    0 -0.00000000000E+00 -0.00000000000E+00 -0.13459222465E+04  0.13459222465E+04  0.00000000000E+00 0. -1.
         25    2    1    2    0    0 -0.29359553681E+02  0.88058426276E+01 -0.97789524427E+03  0.98632637910E+03  0.12498436335E+03 0.  0.
          5    1    3    3  501    0  0.40516798647E+02 -0.25570322031E+02 -0.47895900112E+03  0.48134933998E+03  0.10000000000E+00 0.  1.
         -5    1    3    3    0  501 -0.69876352328E+02  0.34376164659E+02 -0.49893624315E+03  0.50497703912E+03  0.10000000000E+00 0.  1.
          2    1    1    2  502    0  0.29359553681E+02 -0.88058426276E+01 -0.36316582135E+03  0.36445704830E+03  0.00000000000E+00 0. -1.
<mgrwt>
<rscale>  1 0.12868806E+03</rscale>
<asrwt>0</asrwt>
<pdfrwt beam="1">  1       21 0.74787432E-03 0.12868806E+03</pdfrwt>
<pdfrwt beam="2">  1        2 0.20706487E+00 0.12868806E+03</pdfrwt>
<totfact> 0.12355642E+06</totfact>
</mgrwt>
</event>
<event>
 6    2  0.1674964E-002  0.1321613E+03  0.7546771E-02  0.1224284E+00
          1   -1    0    0  503    0 -0.00000000000E+00  0.00000000000E+00  0.10036248768E+04  0.10036248768E+04  0.00000000000E+00 0.  1.
         21   -1    0    0  502  503  0.00000000000E+00 -0.00000000000E+00 -0.48893058698E+03  0.48893058698E+03  0.00000000000E+00 0. -1.
         25    2    1    2    0    0  0.40460617740E+02  0.14277447951E+02 -0.47952841106E+03  0.49740739136E+03  0.12500283543E+03 0.  0.
          5    1    3    3  501    0  0.39454109706E+02  0.24543411223E+02 -0.51924411476E+02  0.69678980434E+02  0.10000000000E+00 0. -1.
         -5    1    3    3    0  501  0.10065080341E+01 -0.10265963272E+02 -0.42760399958E+03  0.42772841093E+03  0.10000000000E+00 0. -1.
          1    1    1    2  502    0 -0.40460617740E+02 -0.14277447951E+02  0.99422270083E+03  0.99514807237E+03  0.00000000000E+00 0.  1.
<mgrwt>
<rscale>  1 0.13216133E+03</rscale>
<asrwt>0</asrwt>
<pdfrwt beam="1">  1       21 0.75220090E-01 0.13216133E+03</pdfrwt>
<pdfrwt beam="2">  1        1 0.15440383E+00 0.13216133E+03</pdfrwt>
<totfact> 0.29755144E+02</totfact>
</mgrwt>
</event>
<event>
 6    2  0.1674964E-002  0.1261063E+03  0.7546771E-02  0.1233350E+00
         21   -1    0    0  502  503  0.00000000000E+00  0.00000000000E+00  0.11439863977E+03  0.11439863977E+03  0.00000000000E+00 0. -1.
          1   -1    0    0  503    0 -0.00000000000E+00 -0.00000000000E+00 -0.46390568860E+03  0.46390568860E+03  0.00000000000E+00 0.  1.
         25    2    1    2    0    0 -0.13672589238E+02 -0.95215239245E+01  0.79434647403E+02  0.14903916804E+03  0.12500084514E+03 0.  0.
          5    1    3    3  501    0  0.78330994963E+01 -0.39995280022E+02 -0.18116754763E+02  0.44600523258E+02  0.10000000000E+00 0. -1.
         -5    1    3    3    0  501 -0.21505688735E+02  0.30473756097E+02  0.97551402167E+02  0.10443864478E+03  0.10000000000E+00 0. -1.
          1    1    1    2  502    0  0.13672589238E+02  0.95215239245E+01 -0.42894169623E+03  0.42926516034E+03  0.00000000000E+00 0.  1.
<mgrwt>
<rscale>  1 0.12610635E+03</rscale>
<asrwt>0</asrwt>
<pdfrwt beam="1">  1       21 0.17599791E-01 0.12610635E+03</pdfrwt>
<pdfrwt beam="2">  1        1 0.71370106E-01 0.12610635E+03</pdfrwt>
<totfact> 0.16271139E+04</totfact>
</mgrwt>
</event>
<event>
 6    2  0.1674964E-002  0.1340716E+03  0.7546771E-02  0.1221536E+00
         21   -1    0    0  502  503  0.00000000000E+00  0.00000000000E+00  0.15587657100E+03  0.15587657100E+03  0.00000000000E+00 0. -1.
          2   -1    0    0  503    0 -0.00000000000E+00 -0.00000000000E+00 -0.17700748723E+03  0.17700748723E+03  0.00000000000E+00 0. -1.
         25    2    1    2    0    0  0.35817254792E+02 -0.32741296467E+02  0.12229590791E+03  0.18147031342E+03  0.12498126789E+03 0.  0.
          5    1    3    3  501    0  0.71016402163E+02  0.24349824504E+01  0.10873180292E+03  0.12989177604E+03  0.10000000000E+00 0. -1.
         -5    1    3    3    0  501 -0.35199147370E+02 -0.35176278918E+02  0.13564104992E+02  0.51578537381E+02  0.10000000000E+00 0. -1.
          2    1    1    2  502    0 -0.35817254792E+02  0.32741296467E+02 -0.14342682414E+03  0.15141374481E+03  0.00000000000E+00 0. -1.
<mgrwt>
<rscale>  1 0.13407157E+03</rscale>
<asrwt>0</asrwt>
<pdfrwt beam="1">  1       21 0.23981011E-01 0.13407157E+03</pdfrwt>
<pdfrwt beam="2">  1        2 0.27231921E-01 0.13407157E+03</pdfrwt>
<totfact> 0.39338279E+04</totfact>
</mgrwt>
</event>
<event>
 6    2  0.1674964E-002  0.1289793E+03  0.7546771E-02  0.1228978E+00
         21   -1    0    0  502  503  0.00000000000E+00  0.00000000000E+00  0.10155350426E+03  0.10155350426E+03  0.00000000000E+00 0. -1.
          2   -1    0    0  503    0 -0.00000000000E+00 -0.00000000000E+00 -0.49242571524E+03  0.49242571524E+03  0.00000000000E+00 0.  1.
         25    2    1    2    0    0 -0.31274004049E+02 -0.56528981116E+01  0.59814085546E+02  0.14217377856E+03  0.12500255955E+03 0.  0.
          5    1    3    3  501    0 -0.64198369946E+02  0.37683886806E+02  0.31608517074E+02  0.80874064942E+02  0.10000000000E+00 0.  1.
         -5    1    3    3    0  501  0.32924365897E+02 -0.43336784917E+02  0.28205568472E+02  0.61299713617E+02  0.10000000000E+00 0.  1.
          2    1    1    2  502    0  0.31274004049E+02  0.56528981116E+01 -0.45068629653E+03  0.45180544094E+03  0.00000000000E+00 0.  1.
<mgrwt>
<rscale>  1 0.12897929E+03</rscale>
<asrwt>0</asrwt>
<pdfrwt beam="1">  1       21 0.15623616E-01 0.12897929E+03</pdfrwt>
<pdfrwt beam="2">  1        2 0.75757802E-01 0.12897929E+03</pdfrwt>
<totfact> 0.29016339E+04</totfact>
</mgrwt>
</event>
<event>
 6    2  0.1674964E-002  0.1265416E+03  0.7546771E-02  0.1232680E+00
         21   -1    0    0  502  503  0.00000000000E+00  0.00000000000E+00  0.21296732498E+03  0.21296732498E+03  0.00000000000E+00 0.  1.
          1   -1    0    0  503    0 -0.00000000000E+00 -0.00000000000E+00 -0.36598288223E+02  0.36598288223E+02  0.00000000000E+00 0. -1.
         25    2    1    2    0    0  0.95473548026E+01  0.17190570468E+02  0.18807398656E+03  0.22668169863E+03  0.12500440143E+03 0.  0.
          5    1    3    3  501    0  0.18247021085E+02 -0.51486824537E+02  0.60323991025E+02  0.81380837871E+02  0.10000000000E+00 0. -1.
         -5    1    3    3    0  501 -0.86996662826E+01  0.68677395004E+02  0.12774999553E+03  0.14530086075E+03  0.10000000000E+00 0. -1.
          1    1    1    2  502    0 -0.95473548026E+01 -0.17190570468E+02 -0.11704949797E+02  0.22883914580E+02  0.00000000000E+00 0. -1.
<mgrwt>
<rscale>  1 0.12654157E+03</rscale>
<asrwt>0</asrwt>
<pdfrwt beam="1">  1       21 0.32764203E-01 0.12654157E+03</pdfrwt>
<pdfrwt beam="2">  1        1 0.56305060E-02 0.12654157E+03</pdfrwt>
<totfact> 0.13096885E+05</totfact>
</mgrwt>
</event>
<event>
 6    2  0.1674964E-002  0.1331849E+03  0.7546771E-02  0.1222805E+00
          2   -1    0    0  503    0 -0.00000000000E+00  0.00000000000E+00  0.40506519581E+04  0.40506519581E+04  0.00000000000E+00 0.  1.
         21   -1    0    0  502  503  0.00000000000E+00 -0.00000000000E+00 -0.38091552276E+01  0.38091552276E+01  0.00000000000E+00 0.  1.
         25    2    1    2    0    0 -0.40355916076E+02  0.21619126364E+02  0.12201079216E+04  0.12273555130E+04  0.12506889410E+03 0.  0.
          5    1    3    3  501    0  0.42846829748E+02  0.18728070119E+02  0.31886637818E+03  0.32227685080E+03  0.10000000000E+00 0. -1.
         -5    1    3    3    0  501 -0.83202745824E+02  0.28910562453E+01  0.90124154341E+03  0.90507866216E+03  0.10000000000E+00 0. -1.
          2    1    1    2  502    0  0.40355916076E+02 -0.21619126364E+02  0.28267348813E+04  0.28271056003E+04  0.00000000000E+00 0.  1.
<mgrwt>
<rscale>  1 0.13318489E+03</rscale>
<asrwt>0</asrwt>
<pdfrwt beam="1">  1       21 0.58602712E-03 0.13318489E+03</pdfrwt>
<pdfrwt beam="2">  1        2 0.62317378E+00 0.13318489E+03</pdfrwt>
<totfact> 0.49252838E+04</totfact>
</mgrwt>
</event>
<event>
 6    2  0.1674964E-002  0.1259514E+03  0.7546771E-02  0.1233590E+00
         21   -1    0    0  502  503  0.00000000000E+00  0.00000000000E+00  0.40158294279E+02  0.40158294279E+02  0.00000000000E+00 0.  1.
          2   -1    0    0  503    0 -0.00000000000E+00 -0.00000000000E+00 -0.12680957079E+03  0.12680957079E+03  0.00000000000E+00 0.  1.
         25    2    1    2    0    0 -0.14733746565E+02  0.46690687525E+01 -0.69400903474E+02  0.14380628350E+03  0.12499951312E+03 0.  0.
          5    1    3    3  501    0 -0.42513840313E+00  0.64413306625E+02 -0.32617791716E+02  0.72202390192E+02  0.10000000000E+00 0.  1.
         -5    1    3    3    0  501 -0.14308608162E+02 -0.59744237873E+02 -0.36783111758E+02  0.71603893310E+02  0.10000000000E+00 0.  1.
          2    1    1    2  502    0  0.14733746565E+02 -0.46690687525E+01 -0.17250373040E+02  0.23161581571E+02  0.00000000000E+00 0.  1.
<mgrwt>
<rscale>  1 0.12595143E+03</rscale>
<asrwt>0</asrwt>
<pdfrwt beam="1">  1       21 0.61781992E-02 0.12595143E+03</pdfrwt>
<pdfrwt beam="2">  1        2 0.19509164E-01 0.12595143E+03</pdfrwt>
<totfact> 0.63479762E+05</totfact>
</mgrwt>
</event>
<event>
 6    2  0.1674964E-002  0.1273015E+03  0.7546771E-02  0.1231516E+00
          2   -1    0    0  503    0 -0.00000000000E+00  0.00000000000E+00  0.37833579154E+03  0.37833579154E+03  0.00000000000E+00 0. -1.
         21   -1    0    0  502  503  0.00000000000E+00 -0.00000000000E+00 -0.68657291490E+02  0.68657291490E+02  0.00000000000E+00 0. -1.
         25    2    1    2    0    0  0.19571007298E+02  0.14059002836E+02 -0.87989721471E+01  0.12760526206E+03  0.12500000443E+03 0.  0.
          5    1    3    3  501    0  0.19365936338E+02  0.61357779706E+01  0.57423008105E+02  0.60910583000E+02  0.10000000000E+00 0.  1.
         -5    1    3    3    0  501  0.20507096031E+00  0.79232248651E+01 -0.66221980252E+02  0.66694679060E+02  0.10000000000E+00 0.  1.
          2    1    1    2  502    0 -0.19571007298E+02 -0.14059002836E+02  0.31847747220E+03  0.31938782097E+03  0.00000000000E+00 0. -1.
<mgrwt>
<rscale>  1 0.12730154E+03</rscale>
<asrwt>0</asrwt>
<pdfrwt beam="1">  1       21 0.10562660E-01 0.12730154E+03</pdfrwt>
<pdfrwt beam="2">  1        2 0.58205505E-01 0.12730154E+03</pdfrwt>
<totfact> 0.77349922E+04</totfact>
</mgrwt>
</event>
<event>
 6    2  0.1674964E-002  0.1420198E+03  0.7546771E-02  0.1210637E+00
          2   -1    0    0  503    0 -0.00000000000E+00  0.00000000000E+00  0.14827814605E+04  0.14827814605E+04  0.00000000000E+00 0. -1.
         21   -1    0    0  502  503  0.00000000000E+00 -0.00000000000E+00 -0.88862721809E+01  0.88862721809E+01  0.00000000000E+00 0. -1.
         25    2    1    2    0    0 -0.23603417416E+01 -0.67377887418E+02  0.66652306814E+03  0.68148559799E+03  0.12499707589E+03 0.  0.
          5    1    3    3  501    0  0.45872037472E+02  0.11078034143E+02  0.29302471394E+03  0.29680037002E+03  0.10000000000E+00 0. -1.
         -5    1    3    3    0  501 -0.48232379213E+02 -0.78455921562E+02  0.37349835420E+03  0.38468522797E+03  0.10000000000E+00 0. -1.
          2    1    1    2  502    0  0.23603417416E+01  0.67377887418E+02  0.80737212014E+03  0.81018213465E+03  0.00000000000E+00 0. -1.
<mgrwt>
<rscale>  1 0.14201979E+03</rscale>
<asrwt>0</asrwt>
<pdfrwt beam="1">  1       21 0.13671200E-02 0.14201979E+03</pdfrwt>
<pdfrwt beam="2">  1        2 0.22812003E+00 0.14201979E+03</pdfrwt>
<totfact> 0.40559519E+05</totfact>
</mgrwt>
</event>
<event>
 6    2  0.1674964E-002  0.1412847E+03  0.7546771E-02  0.1211611E+00
          1   -1    0    0  503    0 -0.00000000000E+00  0.00000000000E+00  0.46239324159E+03  0.46239324159E+03  0.00000000000E+00 0.  1.
         21   -1    0    0  502  503  0.00000000000E+00 -0.00000000000E+00 -0.23648726674E+02  0.23648726674E+02  0.00000000000E+00 0.  1.
         25    2    1    2    0    0 -0.51090956006E+02  0.41544406403E+02  0.26641641634E+03  0.30156108295E+03  0.12500062545E+03 0.  0.
          5    1    3    3  501    0 -0.34630076743E+02 -0.28605141914E+02  0.29033171075E+02  0.53483000867E+02  0.10000000000E+00 0. -1.
         -5    1    3    3    0  501 -0.16460879263E+02  0.70149548318E+02  0.23738324527E+03  0.24807808208E+03  0.10000000000E+00 0. -1.
          1    1    1    2  502    0  0.51090956006E+02 -0.41544406403E+02  0.17232809857E+03  0.18448088531E+03  0.00000000000E+00 0.  1.
<mgrwt>
<rscale>  1 0.14128475E+03</rscale>
<asrwt>0</asrwt>
<pdfrwt beam="1">  1       21 0.36382660E-02 0.14128475E+03</pdfrwt>
<pdfrwt beam="2">  1        1 0.71137415E-01 0.14128475E+03</pdfrwt>
<totfact> 0.25069399E+05</totfact>
</mgrwt>
</event>
<event>
 6    2  0.1674964E-002  0.1282467E+03  0.7546771E-02  0.1230081E+00
         21   -1    0    0  502  503  0.00000000000E+00  0.00000000000E+00  0.70885938946E+02  0.70885938946E+02  0.00000000000E+00 0.  1.
          2   -1    0    0  503    0 -0.00000000000E+00 -0.00000000000E+00 -0.10581358940E+04  0.10581358940E+04  0.00000000000E+00 0.  1.
         25    2    1    2    0    0  0.28568894422E+02  0.23723768812E+01  0.12505901691E+02  0.12885505535E+03  0.12500167124E+03 0.  0.
          5    1    3    3  501    0  0.14870032944E+02 -0.58417692104E+00 -0.56506858264E+02  0.58433673283E+02  0.10000000000E+00 0. -1.
         -5    1    3    3    0  501  0.13698861479E+02  0.29565538022E+01  0.69012759956E+02  0.70421382072E+02  0.10000000000E+00 0. -1.
          2    1    1    2  502    0 -0.28568894422E+02 -0.23723768812E+01 -0.99975585677E+03  0.10001667776E+04  0.00000000000E+00 0.  1.
<mgrwt>
<rscale>  1 0.12824675E+03</rscale>
<asrwt>0</asrwt>
<pdfrwt beam="1">  1       21 0.10905530E-01 0.12824675E+03</pdfrwt>
<pdfrwt beam="2">  1        2 0.16279013E+00 0.12824675E+03</pdfrwt>
<totfact> 0.21749506E+04</totfact>
</mgrwt>
</event>
<event>
 6    2  0.1674964E-002  0.1259832E+03  0.7546771E-02  0.1233541E+00
          3   -1    0    0  503    0 -0.00000000000E+00  0.00000000000E+00  0.12774987264E+03  0.12774987264E+03  0.00000000000E+00 0. -1.
         21   -1    0    0  502  503  0.00000000000E+00 -0.00000000000E+00 -0.81968943261E+02  0.81968943261E+02  0.00000000000E+00 0. -1.
         25    2    1    2    0    0 -0.12157560329E+01 -0.15698471342E+02 -0.32306664223E+02  0.13005958957E+03  0.12499542480E+03 0.  0.
          5    1    3    3  501    0 -0.33320659050E+02 -0.86553826837E+01 -0.71230969946E+02  0.79114114091E+02  0.10000000000E+00 0.  1.
         -5    1    3    3    0  501  0.32104903018E+02 -0.70430886579E+01  0.38924305723E+02  0.50945475477E+02  0.10000000000E+00 0.  1.
          3    1    1    2  502    0  0.12157560329E+01  0.15698471342E+02  0.78087593599E+02  0.79659226328E+02  0.00000000000E+00 0. -1.
<mgrwt>
<rscale>  1 0.12598324E+03</rscale>
<asrwt>0</asrwt>
<pdfrwt beam="1">  1       21 0.12610607E-01 0.12598324E+03</pdfrwt>
<pdfrwt beam="2">  1        3 0.19653827E-01 0.12598324E+03</pdfrwt>
<totfact> 0.58942024E+04</totfact>
</mgrwt>
</event>
<event>
 6    2  0.1674964E-002  0.1313908E+03  0.7546771E-02  0.1225407E+00
         21   -1    0    0  502  503  0.00000000000E+00  0.00000000000E+00  0.10291503760E+04  0.10291503760E+04  0.00000000000E+00 0.  1.
          4   -1    0    0  503    0 -0.00000000000E+00 -0.00000000000E+00 -0.20961068264E+02  0.20961068264E+02  0.00000000000E+00 0.  1.
         25    2    1    2    0    0 -0.10382987059E+01 -0.40473788125E+02  0.10002632071E+04  0.10088557942E+04  0.12499729804E+03 0.  0.
          5    1    3    3  501    0 -0.51877289267E+02 -0.57792125912E+02  0.58219410690E+03  0.58735097775E+03  0.10000000000E+00 0.  1.
         -5    1    3    3    0  501  0.50838990561E+02  0.17318337787E+02  0.41806910019E+03  0.42150481649E+03  0.10000000000E+00 0.  1.
          4    1    1    2  502    0  0.10382987059E+01  0.40473788125E+02  0.79261006705E+01  0.41255650052E+02  0.00000000000E+00 0.  1.
<mgrwt>
<rscale>  1 0.13139075E+03</rscale>
<asrwt>0</asrwt>
<pdfrwt beam="1">  1       21 0.15833079E+00 0.13139075E+03</pdfrwt>
<pdfrwt beam="2">  1        4 0.32247805E-02 0.13139075E+03</pdfrwt>
<totfact> 0.52156008E+03</totfact>
</mgrwt>
</event>
<event>
 6    2  0.1674964E-002  0.1285281E+03  0.7546771E-02  0.1229656E+00
         21   -1    0    0  502  503  0.00000000000E+00  0.00000000000E+00  0.82079358413E+02  0.82079358413E+02  0.00000000000E+00 0.  1.
          1   -1    0    0  503    0 -0.00000000000E+00 -0.00000000000E+00 -0.41866084392E+03  0.41866084392E+03  0.00000000000E+00 0.  1.
         25    2    1    2    0    0  0.11612056457E+02 -0.27575744598E+02  0.30779901133E+02  0.13216232733E+03  0.12499686759E+03 0.  0.
          5    1    3    3  501    0  0.64314785999E+02 -0.25834327060E+02  0.37830012588E+02  0.78961534972E+02  0.10000000000E+00 0.  1.
         -5    1    3    3    0  501 -0.52702729543E+02 -0.17414175375E+01 -0.70501114548E+01  0.53200792361E+02  0.10000000000E+00 0.  1.
          1    1    1    2  502    0 -0.11612056457E+02  0.27575744598E+02 -0.36736138664E+03  0.36857787500E+03  0.00000000000E+00 0.  1.
<mgrwt>
<rscale>  1 0.12852812E+03</rscale>
<asrwt>0</asrwt>
<pdfrwt beam="1">  1       21 0.12627594E-01 0.12852812E+03</pdfrwt>
<pdfrwt beam="2">  1        1 0.64409358E-01 0.12852812E+03</pdfrwt>
<totfact> 0.33719707E+04</totfact>
</mgrwt>
</event>
<event>
 6    2  0.1674964E-002  0.1322861E+03  0.7546771E-02  0.1224102E+00
         21   -1    0    0  502  503  0.00000000000E+00  0.00000000000E+00  0.30924764186E+04  0.30924764186E+04  0.00000000000E+00 0.  1.
          2   -1    0    0  503    0 -0.00000000000E+00 -0.00000000000E+00 -0.47937586672E+01  0.47937586672E+01  0.00000000000E+00 0.  1.
         25    2    1    2    0    0 -0.21505621082E+02 -0.37593544989E+02  0.29493696001E+04  0.29523347818E+04  0.12499543575E+03 0.  0.
          5    1    3    3  501    0  0.36747670821E+02 -0.29085488937E+02  0.22511147611E+04  0.22516025481E+04  0.10000000000E+00 0.  1.
         -5    1    3    3    0  501 -0.58253291902E+02 -0.85080560522E+01  0.69825483902E+03  0.70073223364E+03  0.10000000000E+00 0.  1.
          2    1    1    2  502    0  0.21505621082E+02  0.37593544989E+02  0.13831305976E+03  0.14493539548E+03  0.00000000000E+00 0.  1.
<mgrwt>
<rscale>  1 0.13228615E+03</rscale>
<asrwt>0</asrwt>
<pdfrwt beam="1">  1       21 0.47576401E+00 0.13228615E+03</pdfrwt>
<pdfrwt beam="2">  1        2 0.73750380E-03 0.13228615E+03</pdfrwt>
<totfact> 0.78811638E+02</totfact>
</mgrwt>
</event>
<event>
 6    2  0.1674964E-002  0.1302714E+03  0.7546771E-02  0.1227054E+00
         21   -1    0    0  502  503  0.00000000000E+00  0.00000000000E+00  0.46980567262E+01  0.46980567262E+01  0.00000000000E+00 0. -1.
          1   -1    0    0  503    0 -0.00000000000E+00 -0.00000000000E+00 -0.15279876190E+04  0.15279876190E+04  0.00000000000E+00 0. -1.
         25    2    1    2    0    0 -0.16294668070E+02  0.32884671660E+02 -0.12849970508E+04  0.12915835420E+04  0.12499483069E+03 0.  0.
          5    1    3    3  501    0 -0.62771973703E+02  0.50262808122E+02 -0.83183142667E+03  0.83570940102E+03  0.10000000000E+00 0.  1.
         -5    1    3    3    0  501  0.46477305633E+02 -0.17378136462E+02 -0.45316562409E+03  0.45587414099E+03  0.10000000000E+00 0.  1.
          1    1    1    2  502    0  0.16294668070E+02 -0.32884671660E+02 -0.23829251150E+03  0.24110213370E+03  0.00000000000E+00 0. -1.
<mgrwt>
<rscale>  1 0.13027135E+03</rscale>
<asrwt>0</asrwt>
<pdfrwt beam="1">  1       21 0.72277752E-03 0.13027135E+03</pdfrwt>
<pdfrwt beam="2">  1        1 0.23507516E+00 0.13027135E+03</pdfrwt>
<totfact> 0.48332111E+05</totfact>
</mgrwt>
</event>
<event>
 6    2  0.1674964E-002  0.1262809E+03  0.7546771E-02  0.1233081E+00
         21   -1    0    0  502  503  0.00000000000E+00  0.00000000000E+00  0.49751591748E+02  0.49751591748E+02  0.00000000000E+00 0. -1.
          2   -1    0    0  503    0 -0.00000000000E+00 -0.00000000000E+00 -0.21964354089E+03  0.21964354089E+03  0.00000000000E+00 0. -1.
         25    2    1    2    0    0 -0.18075693272E+00  0.17938214686E+02 -0.31907621081E+02  0.13024957213E+03  0.12500017015E+03 0.  0.
          5    1    3    3  501    0 -0.53234972231E+02  0.26832357468E+02 -0.45228403561E+02  0.74830182175E+02  0.10000000000E+00 0. -1.
         -5    1    3    3    0  501  0.53054215299E+02 -0.88941427821E+01  0.13320782480E+02  0.55419389952E+02  0.10000000000E+00 0. -1.
          2    1    1    2  502    0  0.18075693272E+00 -0.17938214686E+02 -0.13798432806E+03  0.13914556051E+03  0.00000000000E+00 0. -1.
<mgrwt>
<rscale>  1 0.12628086E+03</rscale>
<asrwt>0</asrwt>
<pdfrwt beam="1">  1       21 0.76540911E-02 0.12628086E+03</pdfrwt>
<pdfrwt beam="2">  1        2 0.33791314E-01 0.12628086E+03</pdfrwt>
<totfact> 0.24085040E+05</totfact>
</mgrwt>
</event>
<event>
 6    2  0.1674964E-002  0.1313490E+03  0.7546771E-02  0.1225468E+00
         21   -1    0    0  502  503  0.00000000000E+00  0.00000000000E+00  0.86539713117E+02  0.86539713117E+02  0.00000000000E+00 0. -1.
          2   -1    0    0  503    0 -0.00000000000E+00 -0.00000000000E+00 -0.15537578873E+03  0.15537578873E+03  0.00000000000E+00 0. -1.
         25    2    1    2    0    0  0.13661310407E+02  0.37971402454E+02  0.30371467345E+02  0.13481463637E+03  0.12499640533E+03 0.  0.
          5    1    3    3  501    0  0.39508518464E+02  0.74411843018E+02  0.73890413325E+01  0.84573360725E+02  0.10000000000E+00 0.  1.
         -5    1    3    3    0  501 -0.25847208058E+02 -0.36440440564E+02  0.22982426012E+02  0.50241275644E+02  0.10000000000E+00 0.  1.
          2    1    1    2  502    0 -0.13661310407E+02 -0.37971402454E+02 -0.99207542958E+02  0.10710086548E+03  0.00000000000E+00 0. -1.
<mgrwt>
<rscale>  1 0.13134900E+03</rscale>
<asrwt>0</asrwt>
<pdfrwt beam="1">  1       21 0.13313802E-01 0.13134900E+03</pdfrwt>
<pdfrwt beam="2">  1        2 0.23903968E-01 0.13134900E+03</pdfrwt>
<totfact> 0.13340733E+05</totfact>
</mgrwt>
</event>
<event>
 6    2  0.1674964E-002  0.1274322E+03  0.7546771E-02  0.1231316E+00
          1   -1    0    0  503    0 -0.00000000000E+00  0.00000000000E+00  0.38233543287E+03  0.38233543287E+03  0.00000000000E+00 0.  1.
         21   -1    0    0  502  503  0.00000000000E+00 -0.00000000000E+00 -0.15397253339E+02  0.15397253339E+02  0.00000000000E+00 0.  1.
         25    2    1    2    0    0  0.44327603857E+01 -0.24384932912E+02  0.28648478993E+03  0.31354823268E+03  0.12499874014E+03 0.  0.
          5    1    3    3  501    0  0.40341382069E+02 -0.54440157070E+02  0.96730659806E+02  0.11810160183E+03  0.10000000000E+00 0.  1.
         -5    1    3    3    0  501 -0.35908621683E+02  0.30055224158E+02  0.18975413012E+03  0.19544663084E+03  0.10000000000E+00 0.  1.
          1    1    1    2  502    0 -0.44327603857E+01  0.24384932912E+02  0.80453389603E+02  0.84184453532E+02  0.00000000000E+00 0.  1.
<mgrwt>
<rscale>  1 0.12743218E+03</rscale>
<asrwt>0</asrwt>
<pdfrwt beam="1">  1       21 0.23688085E-02 0.12743218E+03</pdfrwt>
<pdfrwt beam="2">  1        1 0.58820829E-01 0.12743218E+03</pdfrwt>
<totfact> 0.64084287E+05</totfact>
</mgrwt>
</event>
<event>
 6    2  0.1674964E-002  0.1278000E+03  0.7546771E-02  0.1230757E+00
         21   -1    0    0  502  503  0.00000000000E+00  0.00000000000E+00  0.82454287792E+02  0.82454287792E+02  0.00000000000E+00 0. -1.
          2   -1    0    0  503    0 -0.00000000000E+00 -0.00000000000E+00 -0.60607984740E+03  0.60607984740E+03  0.00000000000E+00 0.  1.
         25    2    1    2    0    0  0.20026434251E+02  0.17518272567E+02  0.32423456939E+02  0.13184889491E+03  0.12499961035E+03 0.  0.
          5    1    3    3  501    0 -0.17281021543E+02  0.62553081702E+02  0.34169291020E+02  0.73342158305E+02  0.10000000000E+00 0.  1.
         -5    1    3    3    0  501  0.37307455794E+02 -0.45034809135E+02 -0.17458340812E+01  0.58506736606E+02  0.10000000000E+00 0.  1.
          2    1    1    2  502    0 -0.20026434251E+02 -0.17518272567E+02 -0.55604901655E+03  0.55668524028E+03  0.00000000000E+00 0.  1.
<mgrwt>
<rscale>  1 0.12780004E+03</rscale>
<asrwt>0</asrwt>
<pdfrwt beam="1">  1       21 0.12685274E-01 0.12780004E+03</pdfrwt>
<pdfrwt beam="2">  1        2 0.93243057E-01 0.12780004E+03</pdfrwt>
<totfact> 0.33458642E+04</totfact>
</mgrwt>
</event>
<event>
 6    2  0.1674964E-002  0.1287995E+03  0.7546771E-02  0.1229248E+00
         21   -1    0    0  502  503  0.00000000000E+00  0.00000000000E+00  0.93661069003E+01  0.93661069003E+01  0.00000000000E+00 0.  1.
          2   -1    0    0  503    0 -0.00000000000E+00 -0.00000000000E+00 -0.70096799510E+03  0.70096799510E+03  0.00000000000E+00 0.  1.
         25    2    1    2    0    0 -0.18352778774E+01 -0.30981546473E+02 -0.50485412163E+03  0.52102495593E+03  0.12500438436E+03 0.  0.
          5    1    3    3  501    0  0.55240644188E+02 -0.21417525266E+02 -0.36327478033E+03  0.36807446961E+03  0.10000000000E+00 0. -1.
         -5    1    3    3    0  501 -0.57075922066E+02 -0.95640212068E+01 -0.14157934131E+03  0.15295048632E+03  0.10000000000E+00 0. -1.
          2    1    1    2  502    0  0.18352778774E+01  0.30981546473E+02 -0.18674776657E+03  0.18930914607E+03  0.00000000000E+00 0.  1.
<mgrwt>
<rscale>  1 0.12879954E+03</rscale>
<asrwt>0</asrwt>
<pdfrwt beam="1">  1       21 0.14409391E-02 0.12879954E+03</pdfrwt>
<pdfrwt beam="2">  1        2 0.10784126E+00 0.12879954E+03</pdfrwt>
<totfact> 0.10756501E+06</totfact>
</mgrwt>
</event>
<event>
 6    2  0.1674964E-002  0.1617998E+03  0.7546771E-02  0.1186680E+00
         21   -1    0    0  502  503  0.00000000000E+00  0.00000000000E+00  0.19112741122E+02  0.19112741122E+02  0.00000000000E+00 0. -1.
          2   -1    0    0  503    0 -0.00000000000E+00 -0.00000000000E+00 -0.15954712094E+04  0.15954712094E+04  0.00000000000E+00 0.  1.
         25    2    1    2    0    0 -0.46553154732E+02  0.91584959493E+02 -0.36965055959E+03  0.40351046889E+03  0.12499664507E+03 0.  0.
          5    1    3    3  501    0 -0.42076541600E+02 -0.13840111868E+02 -0.19060497452E+03  0.19568405751E+03  0.10000000000E+00 0. -1.
         -5    1    3    3    0  501 -0.44766131327E+01  0.10542507136E+03 -0.17904558507E+03  0.20782641139E+03  0.10000000000E+00 0. -1.
          2    1    1    2  502    0  0.46553154732E+02 -0.91584959493E+02 -0.12067079086E+04  0.12110734816E+04  0.00000000000E+00 0.  1.
<mgrwt>
<rscale>  1 0.16179976E+03</rscale>
<asrwt>0</asrwt>
<pdfrwt beam="1">  1       21 0.29404226E-02 0.16179976E+03</pdfrwt>
<pdfrwt beam="2">  1        2 0.24545703E+00 0.16179976E+03</pdfrwt>
<totfact> 0.10256386E+05</totfact>
</mgrwt>
</event>
<event>
 6    2  0.1674964E-002  0.1345197E+03  0.7546771E-02  0.1220899E+00
         21   -1    0    0  502  503  0.00000000000E+00  0.00000000000E+00  0.15589667508E+02  0.15589667508E+02  0.00000000000E+00 0. -1.
          3   -1    0    0  503    0 -0.00000000000E+00 -0.00000000000E+00 -0.68904308819E+03  0.68904308819E+03  0.00000000000E+00 0. -1.
         25    2    1    2    0    0 -0.99639464099E+01 -0.48717560471E+02 -0.31184886368E+03  0.33962517143E+03  0.12499144917E+03 0.  0.
          5    1    3    3  501    0 -0.24366822331E+01 -0.82157292961E+02 -0.28340633457E+03  0.29508459581E+03  0.10000000000E+00 0. -1.
         -5    1    3    3    0  501 -0.75272641768E+01  0.33439732490E+02 -0.28442529106E+02  0.44540575624E+02  0.10000000000E+00 0. -1.
          3    1    1    2  502    0  0.99639464099E+01  0.48717560471E+02 -0.36160455701E+03  0.36500758427E+03  0.00000000000E+00 0. -1.
<mgrwt>
<rscale>  1 0.13451968E+03</rscale>
<asrwt>0</asrwt>
<pdfrwt beam="1">  1       21 0.23984112E-02 0.13451968E+03</pdfrwt>
<pdfrwt beam="2">  1        3 0.10600659E+00 0.13451968E+03</pdfrwt>
<totfact> 0.34804183E+04</totfact>
</mgrwt>
</event>
<event>
 6    2  0.1674964E-002  0.1323449E+03  0.7546771E-02  0.1224017E+00
          2   -1    0    0  503    0 -0.00000000000E+00  0.00000000000E+00  0.70151580242E+03  0.70151580242E+03  0.00000000000E+00 0.  1.
         21   -1    0    0  502  503  0.00000000000E+00 -0.00000000000E+00 -0.29511964578E+03  0.29511964578E+03  0.00000000000E+00 0.  1.
         25    2    1    2    0    0  0.43136437642E+02  0.54042312908E+01 -0.27955951673E+03  0.30930354599E+03  0.12500080879E+03 0.  0.
          5    1    3    3  501    0  0.61765824205E+02 -0.29628563848E+02 -0.25161174702E+03  0.26077068484E+03  0.10000000000E+00 0. -1.
         -5    1    3    3    0  501 -0.18629386564E+02  0.35032795139E+02 -0.27947769713E+02  0.48532861145E+02  0.10000000000E+00 0. -1.
          2    1    1    2  502    0 -0.43136437642E+02 -0.54042312908E+01  0.68595567337E+03  0.68733190221E+03  0.00000000000E+00 0.  1.
<mgrwt>
<rscale>  1 0.13234485E+03</rscale>
<asrwt>0</asrwt>
<pdfrwt beam="1">  1       21 0.45403023E-01 0.13234485E+03</pdfrwt>
<pdfrwt beam="2">  1        2 0.10792551E+00 0.13234485E+03</pdfrwt>
<totfact> 0.25299928E+03</totfact>
</mgrwt>
</event>
<event>
 6    2  0.1674964E-002  0.1263004E+03  0.7546771E-02  0.1233051E+00
         21   -1    0    0  502  503  0.00000000000E+00  0.00000000000E+00  0.20854472661E+01  0.20854472661E+01  0.00000000000E+00 0.  1.
          2   -1    0    0  503    0 -0.00000000000E+00 -0.00000000000E+00 -0.31901773536E+04  0.31901773536E+04  0.00000000000E+00 0.  1.
         25    2    1    2    0    0  0.18037597880E+02 -0.14956175529E+01 -0.19741847943E+04  0.19782207635E+04  0.12499678135E+03 0.  0.
          5    1    3    3  501    0  0.27253439180E+02 -0.15781763678E+02 -0.19378433746E+04  0.19380992669E+04  0.10000000000E+00 0.  1.
         -5    1    3    3    0  501 -0.92158413006E+01  0.14286146125E+02 -0.36341419693E+02  0.40121496573E+02  0.10000000000E+00 0.  1.
          2    1    1    2  502    0 -0.18037597880E+02  0.14956175529E+01 -0.12139071120E+04  0.12140420374E+04  0.00000000000E+00 0.  1.
<mgrwt>
<rscale>  1 0.12630038E+03</rscale>
<asrwt>0</asrwt>
<pdfrwt beam="1">  1       21 0.32083957E-03 0.12630038E+03</pdfrwt>
<pdfrwt beam="2">  1        2 0.49079418E+00 0.12630038E+03</pdfrwt>
<totfact> 0.47229385E+05</totfact>
</mgrwt>
</event>
<event>
 6    2  0.1674964E-002  0.1412962E+03  0.7546771E-02  0.1211595E+00
         21   -1    0    0  502  503  0.00000000000E+00  0.00000000000E+00  0.23694616705E+03  0.23694616705E+03  0.00000000000E+00 0. -1.
          4   -1    0    0  503    0 -0.00000000000E+00 -0.00000000000E+00 -0.48413262396E+02  0.48413262396E+02  0.00000000000E+00 0. -1.
         25    2    1    2    0    0  0.33442915254E+02 -0.56802870283E+02  0.92502145588E+02  0.16888238733E+03  0.12497847478E+03 0.  0.
          5    1    3    3  501    0 -0.36896222153E+02  0.45625398883E+01 -0.40802591292E+00  0.37179624320E+02  0.10000000000E+00 0. -1.
         -5    1    3    3    0  501  0.70339137407E+02 -0.61365410171E+02  0.92910171501E+02  0.13170276301E+03  0.10000000000E+00 0. -1.
          4    1    1    2  502    0 -0.33442915254E+02  0.56802870283E+02  0.96030759067E+02  0.11647704212E+03  0.00000000000E+00 0. -1.
<mgrwt>
<rscale>  1 0.14129619E+03</rscale>
<asrwt>0</asrwt>
<pdfrwt beam="1">  1       21 0.36453256E-01 0.14129619E+03</pdfrwt>
<pdfrwt beam="2">  1        4 0.74481943E-02 0.14129619E+03</pdfrwt>
<totfact> 0.36929078E+04</totfact>
</mgrwt>
</event>
<event>
 6    2  0.1674964E-002  0.1273810E+03  0.7546771E-02  0.1231394E+00
          1   -1    0    0  503    0 -0.00000000000E+00  0.00000000000E+00  0.39841093703E+03  0.39841093703E+03  0.00000000000E+00 0.  1.
         21   -1    0    0  502  503  0.00000000000E+00 -0.00000000000E+00 -0.23158984754E+02  0.23158984754E+02  0.00000000000E+00 0.  1.
         25    2    1    2    0    0  0.19091320905E+02 -0.15390302165E+02  0.15806799832E+03  0.20300594993E+03  0.12499833471E+03 0.  0.
          5    1    3    3  501    0  0.48889053889E+02  0.17351393127E+02  0.16134237108E+02  0.54328022610E+02  0.10000000000E+00 0. -1.
         -5    1    3    3    0  501 -0.29797732985E+02 -0.32741695292E+02  0.14193376121E+03  0.14867792732E+03  0.10000000000E+00 0. -1.
          1    1    1    2  502    0 -0.19091320905E+02  0.15390302165E+02  0.21718395395E+03  0.21856397184E+03  0.00000000000E+00 0.  1.
<mgrwt>
<rscale>  1 0.12738102E+03</rscale>
<asrwt>0</asrwt>
<pdfrwt beam="1">  1       21 0.35629210E-02 0.12738102E+03</pdfrwt>
<pdfrwt beam="2">  1        1 0.61293985E-01 0.12738102E+03</pdfrwt>
<totfact> 0.31190366E+05</totfact>
</mgrwt>
</event>
<event>
 6    2  0.1674964E-002  0.1502343E+03  0.7546771E-02  0.1200185E+00
          2   -1    0    0  503    0 -0.00000000000E+00  0.00000000000E+00  0.29714724200E+03  0.29714724200E+03  0.00000000000E+00 0. -1.
         21   -1    0    0  502  503  0.00000000000E+00 -0.00000000000E+00 -0.13662769453E+03  0.13662769453E+03  0.00000000000E+00 0.  1.
         25    2    1    2    0    0  0.76367085498E+02  0.33363544191E+02 -0.86306092189E+02  0.17326014957E+03  0.12500112021E+03 0.  0.
          5    1    3    3  501    0 -0.34721752325E+02  0.72419114170E+01 -0.13818983496E+02  0.38065990994E+02  0.10000000000E+00 0. -1.
         -5    1    3    3    0  501  0.11108883782E+03  0.26121632774E+02 -0.72487108692E+02  0.13519415858E+03  0.10000000000E+00 0. -1.
          2    1    1    2  502    0 -0.76367085498E+02 -0.33363544191E+02  0.24682563966E+03  0.26051478695E+03  0.00000000000E+00 0. -1.
<mgrwt>
<rscale>  1 0.15023428E+03</rscale>
<asrwt>0</asrwt>
<pdfrwt beam="1">  1       21 0.21019645E-01 0.15023428E+03</pdfrwt>
<pdfrwt beam="2">  1        2 0.45714960E-01 0.15023428E+03</pdfrwt>
<totfact> 0.28886005E+04</totfact>
</mgrwt>
</event>
<event>
 6    2  0.1674964E-002  0.1259865E+03  0.7546771E-02  0.1233536E+00
         21   -1    0    0  502  503  0.00000000000E+00  0.00000000000E+00  0.96392816521E+02  0.96392816521E+02  0.00000000000E+00 0. -1.
          2   -1    0    0  503    0 -0.00000000000E+00 -0.00000000000E+00 -0.50632321631E+03  0.50632321631E+03  0.00000000000E+00 0. -1.
         25    2    1    2    0    0 -0.13191583365E+02  0.87714494820E+01  0.55033811648E+02  0.13748203352E+03  0.12498653095E+03 0.  0.
          5    1    3    3  501    0 -0.23086694291E+02 -0.15628357014E+02  0.89710040273E+02  0.93942228641E+02  0.10000000000E+00 0.  1.
         -5    1    3    3    0  501  0.98951109251E+01  0.24399806496E+02 -0.34676228625E+02  0.43539804880E+02  0.10000000000E+00 0.  1.
          2    1    1    2  502    0  0.13191583365E+02 -0.87714494820E+01 -0.46496421143E+03  0.46523399931E+03  0.00000000000E+00 0. -1.
<mgrwt>
<rscale>  1 0.12598646E+03</rscale>
<asrwt>0</asrwt>
<pdfrwt beam="1">  1       21 0.14829664E-01 0.12598646E+03</pdfrwt>
<pdfrwt beam="2">  1        2 0.77895877E-01 0.12598646E+03</pdfrwt>
<totfact> 0.30925432E+04</totfact>
</mgrwt>
</event>
<event>
 6    2  0.1674964E-002  0.1409899E+03  0.7546771E-02  0.1212003E+00
         21   -1    0    0  502  503  0.00000000000E+00  0.00000000000E+00  0.28039516090E+03  0.28039516090E+03  0.00000000000E+00 0. -1.
          1   -1    0    0  503    0 -0.00000000000E+00 -0.00000000000E+00 -0.12762447081E+03  0.12762447081E+03  0.00000000000E+00 0. -1.
         25    2    1    2    0    0  0.32688765871E+02 -0.56436455217E+02  0.25230206186E+03  0.28902331723E+03  0.12499807437E+03 0.  0.
          5    1    3    3  501    0  0.48376382826E+02 -0.32650158225E+01  0.21910617594E+03  0.22440690960E+03  0.10000000000E+00 0.  1.
         -5    1    3    3    0  501 -0.15687616955E+02 -0.53171439395E+02  0.33195885918E+02  0.64616407629E+02  0.10000000000E+00 0.  1.
          1    1    1    2  502    0 -0.32688765871E+02  0.56436455217E+02 -0.99531371773E+02  0.11899631447E+03  0.00000000000E+00 0. -1.
<mgrwt>
<rscale>  1 0.14098988E+03</rscale>
<asrwt>0</asrwt>
<pdfrwt beam="1">  1       21 0.43137717E-01 0.14098988E+03</pdfrwt>
<pdfrwt beam="2">  1        1 0.19634534E-01 0.14098988E+03</pdfrwt>
<totfact> 0.14623960E+04</totfact>
</mgrwt>
</event>
<event>
 6    2  0.1674964E-002  0.1425390E+03  0.7546771E-02  0.1209953E+00
          2   -1    0    0  503    0 -0.00000000000E+00  0.00000000000E+00  0.26625387810E+02  0.26625387810E+02  0.00000000000E+00 0. -1.
         21   -1    0    0  502  503  0.00000000000E+00 -0.00000000000E+00 -0.42467633560E+03  0.42467633560E+03  0.00000000000E+00 0. -1.
         25    2    1    2    0    0 -0.66763258497E+02 -0.15326089415E+02 -0.29393496258E+03  0.32667283399E+03  0.12500062615E+03 0.  0.
          5    1    3    3  501    0  0.10373166980E+02  0.44002179419E+02 -0.90883795790E+02  0.10150698855E+03  0.10000000000E+00 0. -1.
         -5    1    3    3    0  501 -0.77136425478E+02 -0.59328268834E+02 -0.20305116679E+03  0.22516584544E+03  0.10000000000E+00 0. -1.
          2    1    1    2  502    0  0.66763258497E+02  0.15326089415E+02 -0.10411598521E+03  0.12462888942E+03  0.00000000000E+00 0. -1.
<mgrwt>
<rscale>  1 0.14253904E+03</rscale>
<asrwt>0</asrwt>
<pdfrwt beam="1">  1       21 0.65334824E-01 0.14253904E+03</pdfrwt>
<pdfrwt beam="2">  1        2 0.40962133E-02 0.14253904E+03</pdfrwt>
<totfact> 0.52676617E+04</totfact>
</mgrwt>
</event>
<event>
 6    2  0.1674964E-002  0.1391711E+03  0.7546771E-02  0.1214449E+00
         21   -1    0    0  502  503  0.00000000000E+00  0.00000000000E+00  0.78097109513E+01  0.78097109513E+01  0.00000000000E+00 0.  1.
          3   -1    0    0  503    0 -0.00000000000E+00 -0.00000000000E+00 -0.17653044786E+04  0.17653044786E+04  0.00000000000E+00 0.  1.
         25    2    1    2    0    0 -0.33345838311E+02  0.51295901364E+02 -0.69153423211E+03  0.70539930357E+03  0.12500147544E+03 0.  0.
          5    1    3    3  501    0 -0.13445449321E+01 -0.36251988721E+02 -0.96216451163E+02  0.10282815744E+03  0.10000000000E+00 0.  1.
         -5    1    3    3    0  501 -0.32001293379E+02  0.87547890085E+02 -0.59531778095E+03  0.60257114613E+03  0.10000000000E+00 0.  1.
          3    1    1    2  502    0  0.33345838311E+02 -0.51295901364E+02 -0.10659605355E+04  0.10677148860E+04  0.00000000000E+00 0.  1.
<mgrwt>
<rscale>  1 0.13917106E+03</rscale>
<asrwt>0</asrwt>
<pdfrwt beam="1">  1       21 0.12014929E-02 0.13917106E+03</pdfrwt>
<pdfrwt beam="2">  1        3 0.27158555E+00 0.13917106E+03</pdfrwt>
<totfact> 0.87768566E+03</totfact>
</mgrwt>
</event>
<event>
 6    2  0.1674964E-002  0.1275985E+03  0.7546771E-02  0.1231063E+00
         21   -1    0    0  502  503  0.00000000000E+00  0.00000000000E+00  0.82775364522E+03  0.82775364522E+03  0.00000000000E+00 0. -1.
          3   -1    0    0  503    0 -0.00000000000E+00 -0.00000000000E+00 -0.25202127321E+03  0.25202127321E+03  0.00000000000E+00 0.  1.
         25    2    1    2    0    0  0.54788312022E+01  0.25016925609E+02  0.82216879717E+03  0.83201137025E+03  0.12500210007E+03 0.  0.
          5    1    3    3  501    0 -0.55679292298E+02 -0.92746980365E+01  0.42000481216E+03  0.42378090548E+03  0.10000000000E+00 0.  1.
         -5    1    3    3    0  501  0.61158123501E+02  0.34291623645E+02  0.40216398502E+03  0.40823046477E+03  0.10000000000E+00 0.  1.
          3    1    1    2  502    0 -0.54788312022E+01 -0.25016925609E+02 -0.24643642517E+03  0.24776354818E+03  0.00000000000E+00 0.  1.
<mgrwt>
<rscale>  1 0.12759855E+03</rscale>
<asrwt>0</asrwt>
<pdfrwt beam="1">  1       21 0.12734671E+00 0.12759855E+03</pdfrwt>
<pdfrwt beam="2">  1        3 0.38772504E-01 0.12759855E+03</pdfrwt>
<totfact> 0.15243007E+02</totfact>
</mgrwt>
</event>
<event>
 6    2  0.1674964E-002  0.1370944E+03  0.7546771E-02  0.1217293E+00
          1   -1    0    0  503    0 -0.00000000000E+00  0.00000000000E+00  0.67888816132E+03  0.67888816132E+03  0.00000000000E+00 0. -1.
         21   -1    0    0  502  503  0.00000000000E+00 -0.00000000000E+00 -0.86950150117E+03  0.86950150117E+03  0.00000000000E+00 0. -1.
         25    2    1    2    0    0  0.54217142895E+02  0.15175680077E+02 -0.86291360155E+03  0.87373609084E+03  0.12500029139E+03 0.  0.
          5    1    3    3  501    0 -0.18731913949E+02  0.51790396946E+02 -0.31550983612E+03  0.32028049661E+03  0.10000000000E+00 0. -1.
         -5    1    3    3    0  501  0.72949056843E+02 -0.36614716869E+02 -0.54740376543E+03  0.55345559424E+03  0.10000000000E+00 0. -1.
          1    1    1    2  502    0 -0.54217142895E+02 -0.15175680077E+02  0.67230026170E+03  0.67465357165E+03  0.00000000000E+00 0. -1.
<mgrwt>
<rscale>  1 0.13709439E+03</rscale>
<asrwt>0</asrwt>
<pdfrwt beam="1">  1       21 0.13376946E+00 0.13709439E+03</pdfrwt>
<pdfrwt beam="2">  1        1 0.10444433E+00 0.13709439E+03</pdfrwt>
<totfact> 0.13943094E+02</totfact>
</mgrwt>
</event>
<event>
 6    2  0.1674964E-002  0.1281918E+03  0.7546771E-02  0.1230164E+00
          2   -1    0    0  503    0 -0.00000000000E+00  0.00000000000E+00  0.27733782577E+04  0.27733782577E+04  0.00000000000E+00 0.  1.
         21   -1    0    0  502  503  0.00000000000E+00 -0.00000000000E+00 -0.40252418047E+01  0.40252418047E+01  0.00000000000E+00 0.  1.
         25    2    1    2    0    0  0.39202175255E+01 -0.28144064922E+02  0.10473344720E+04  0.10551505210E+04  0.12500267678E+03 0.  0.
          5    1    3    3  501    0  0.19466174783E+02 -0.66296518309E+02  0.35928044515E+03  0.36586419416E+03  0.10000000000E+00 0.  1.
         -5    1    3    3    0  501 -0.15545957258E+02  0.38152453387E+02  0.68805402682E+03  0.68928632680E+03  0.10000000000E+00 0.  1.
          2    1    1    2  502    0 -0.39202175255E+01  0.28144064922E+02  0.17220185439E+04  0.17222529785E+04  0.00000000000E+00 0.  1.
<mgrwt>
<rscale>  1 0.12819175E+03</rscale>
<asrwt>0</asrwt>
<pdfrwt beam="1">  1       21 0.61927019E-03 0.12819175E+03</pdfrwt>
<pdfrwt beam="2">  1        2 0.42667205E+00 0.12819175E+03</pdfrwt>
<totfact> 0.29812070E+05</totfact>
</mgrwt>
</event>
<event>
 6    2  0.1674964E-002  0.1308422E+03  0.7546771E-02  0.1226211E+00
          2   -1    0    0  503    0 -0.00000000000E+00  0.00000000000E+00  0.24035677831E+04  0.24035677831E+04  0.00000000000E+00 0.  1.
         21   -1    0    0  502  503  0.00000000000E+00 -0.00000000000E+00 -0.30899033680E+02  0.30899033680E+02  0.00000000000E+00 0. -1.
         25    2    1    2    0    0  0.11796639517E+02  0.36806300606E+02  0.10852221516E+03  0.16999041084E+03  0.12500321646E+03 0.  0.
          5    1    3    3  501    0  0.11570708487E+02 -0.46201887300E+02  0.35035670105E+02  0.59127014677E+02  0.10000000000E+00 0.  1.
         -5    1    3    3    0  501  0.22593103059E+00  0.83008187906E+02  0.73486545055E+02  0.11086339616E+03  0.10000000000E+00 0.  1.
          2    1    1    2  502    0 -0.11796639517E+02 -0.36806300606E+02  0.22641465343E+04  0.22644764059E+04  0.00000000000E+00 0.  1.
<mgrwt>
<rscale>  1 0.13084215E+03</rscale>
<asrwt>0</asrwt>
<pdfrwt beam="1">  1       21 0.47536994E-02 0.13084215E+03</pdfrwt>
<pdfrwt beam="2">  1        2 0.36977951E+00 0.13084215E+03</pdfrwt>
<totfact> 0.17798361E+04</totfact>
</mgrwt>
</event>
<event>
 6    2  0.1674964E-002  0.1294316E+03  0.7546771E-02  0.1228302E+00
          2   -1    0    0  503    0 -0.00000000000E+00  0.00000000000E+00  0.51211184134E+03  0.51211184134E+03  0.00000000000E+00 0.  1.
         21   -1    0    0  502  503  0.00000000000E+00 -0.00000000000E+00 -0.13696686697E+02  0.13696686697E+02  0.00000000000E+00 0.  1.
         25    2    1    2    0    0 -0.32597687779E+02  0.81164127182E+01  0.33846273974E+03  0.36236661041E+03  0.12499619492E+03 0.  0.
          5    1    3    3  501    0 -0.68424932241E+02  0.41857433263E+02  0.20824585990E+03  0.22315995214E+03  0.10000000000E+00 0.  1.
         -5    1    3    3    0  501  0.35827244461E+02 -0.33741020545E+02  0.13021687983E+03  0.13920665827E+03  0.10000000000E+00 0.  1.
          2    1    1    2  502    0  0.32597687779E+02 -0.81164127182E+01  0.15995241490E+03  0.16344191763E+03  0.00000000000E+00 0.  1.
<mgrwt>
<rscale>  1 0.12943158E+03</rscale>
<asrwt>0</asrwt>
<pdfrwt beam="1">  1       21 0.21071830E-02 0.12943158E+03</pdfrwt>
<pdfrwt beam="2">  1        2 0.78786422E-01 0.12943158E+03</pdfrwt>
<totfact> 0.83548786E+05</totfact>
</mgrwt>
</event>
<event>
 6    2  0.1674964E-002  0.1364268E+03  0.7546771E-02  0.1218220E+00
         21   -1    0    0  502  503  0.00000000000E+00  0.00000000000E+00  0.10581647722E+02  0.10581647722E+02  0.00000000000E+00 0. -1.
          4   -1    0    0  503    0 -0.00000000000E+00 -0.00000000000E+00 -0.13185829543E+04  0.13185829543E+04  0.00000000000E+00 0. -1.
         25    2    1    2    0    0 -0.82931366564E+01  0.54012817336E+02 -0.47043825694E+03  0.48982079721E+03  0.12500439687E+03 0.  0.
          5    1    3    3  501    0 -0.63075179394E+02  0.13462458036E+02 -0.17189810833E+03  0.18359925293E+03  0.10000000000E+00 0.  1.
         -5    1    3    3    0  501  0.54782042738E+02  0.40550359300E+02 -0.29854014861E+03  0.30622154428E+03  0.10000000000E+00 0.  1.
          4    1    1    2  502    0  0.82931366564E+01 -0.54012817336E+02 -0.83756304969E+03  0.83934380486E+03  0.00000000000E+00 0. -1.
<mgrwt>
<rscale>  1 0.13642676E+03</rscale>
<asrwt>0</asrwt>
<pdfrwt beam="1">  1       21 0.16279462E-02 0.13642676E+03</pdfrwt>
<pdfrwt beam="2">  1        4 0.20285886E+00 0.13642676E+03</pdfrwt>
<totfact> 0.98468683E+03</totfact>
</mgrwt>
</event>
<event>
 6    2  0.1674964E-002  0.1261412E+03  0.7546771E-02  0.1233296E+00
         21   -1    0    0  502  503  0.00000000000E+00  0.00000000000E+00  0.29964956892E+01  0.29964956892E+01  0.00000000000E+00 0. -1.
          2   -1    0    0  503    0 -0.00000000000E+00 -0.00000000000E+00 -0.19255756872E+04  0.19255756872E+04  0.00000000000E+00 0. -1.
         25    2    1    2    0    0  0.11247964397E+02  0.12697251112E+02 -0.13869247893E+04  0.13926492636E+04  0.12499545248E+03 0.  0.
          5    1    3    3  501    0 -0.20800348266E+02  0.38143080453E+02 -0.12202944394E+04  0.12210675976E+04  0.10000000000E+00 0.  1.
         -5    1    3    3    0  501  0.32048312663E+02 -0.25445829341E+02 -0.16663034991E+03  0.17158166594E+03  0.10000000000E+00 0.  1.
          2    1    1    2  502    0 -0.11247964397E+02 -0.12697251112E+02 -0.53565440213E+03  0.53592291928E+03  0.00000000000E+00 0. -1.
<mgrwt>
<rscale>  1 0.12614119E+03</rscale>
<asrwt>0</asrwt>
<pdfrwt beam="1">  1       21 0.46099865E-03 0.12614119E+03</pdfrwt>
<pdfrwt beam="2">  1        2 0.29624286E+00 0.12614119E+03</pdfrwt>
<totfact> 0.13140022E+06</totfact>
</mgrwt>
</event>
<event>
 6    2  0.1674964E-002  0.1776469E+03  0.7546771E-02  0.1170100E+00
          2   -1    0    0  503    0 -0.00000000000E+00  0.00000000000E+00  0.28452849014E+04  0.28452849014E+04  0.00000000000E+00 0. -1.
         21   -1    0    0  502  503  0.00000000000E+00 -0.00000000000E+00 -0.98743901303E+02  0.98743901303E+02  0.00000000000E+00 0.  1.
         25    2    1    2    0    0 -0.90859438425E+02 -0.87627643489E+02 -0.16219779212E+02  0.17838580963E+03  0.12499749751E+03 0.  0.
          5    1    3    3  501    0 -0.10935131821E+02  0.31977210737E+02 -0.30183016688E+01  0.33929916879E+02  0.10000000000E+00 0. -1.
         -5    1    3    3    0  501 -0.79924306604E+02 -0.11960485423E+03 -0.13201477543E+02  0.14445589275E+03  0.10000000000E+00 0. -1.
          2    1    1    2  502    0  0.90859438425E+02  0.87627643489E+02  0.27627607793E+04  0.27656429931E+04  0.00000000000E+00 0. -1.
<mgrwt>
<rscale>  1 0.17764689E+03</rscale>
<asrwt>0</asrwt>
<pdfrwt beam="1">  1       21 0.15191372E-01 0.17764689E+03</pdfrwt>
<pdfrwt beam="2">  1        2 0.43773608E+00 0.17764689E+03</pdfrwt>
<totfact> 0.13088220E+03</totfact>
</mgrwt>
</event>
<event>
 6    2  0.1674964E-002  0.1752417E+03  0.7546771E-02  0.1172489E+00
          2   -1    0    0  503    0 -0.00000000000E+00  0.00000000000E+00  0.15060625140E+04  0.15060625140E+04  0.00000000000E+00 0. -1.
         21   -1    0    0  502  503  0.00000000000E+00 -0.00000000000E+00 -0.16190304185E+02  0.16190304185E+02  0.00000000000E+00 0. -1.
         25    2    1    2    0    0  0.12024859230E+03 -0.25005078281E+02  0.64026664357E+03  0.66381551932E+03  0.12499876371E+03 0.  0.
          5    1    3    3  501    0  0.38160342806E+02 -0.69677731155E+02  0.34878441907E+03  0.35771745689E+03  0.10000000000E+00 0.  1.
         -5    1    3    3    0  501  0.82088249496E+02  0.44672652873E+02  0.29148222450E+03  0.30609806242E+03  0.10000000000E+00 0.  1.
          2    1    1    2  502    0 -0.12024859230E+03  0.25005078281E+02  0.84960556628E+03  0.85843729890E+03  0.00000000000E+00 0. -1.
<mgrwt>
<rscale>  1 0.17524174E+03</rscale>
<asrwt>0</asrwt>
<pdfrwt beam="1">  1       21 0.24908172E-02 0.17524174E+03</pdfrwt>
<pdfrwt beam="2">  1        2 0.23170181E+00 0.17524174E+03</pdfrwt>
<totfact> 0.14988178E+05</totfact>
</mgrwt>
</event>
<event>
 6    2  0.1674964E-002  0.1538500E+03  0.7546771E-02  0.1195820E+00
         21   -1    0    0  502  503  0.00000000000E+00  0.00000000000E+00  0.38214719060E+02  0.38214719060E+02  0.00000000000E+00 0. -1.
          2   -1    0    0  503    0 -0.00000000000E+00 -0.00000000000E+00 -0.23927402818E+04  0.23927402818E+04  0.00000000000E+00 0.  1.
         25    2    1    2    0    0  0.80609303134E+02 -0.39322418040E+02 -0.12126834138E+03  0.19589752306E+03  0.12500286640E+03 0.  0.
          5    1    3    3  501    0  0.48007376732E+02  0.43400506972E+02 -0.56248953319E+02  0.85745361249E+02  0.10000000000E+00 0.  1.
         -5    1    3    3    0  501  0.32601926402E+02 -0.82722925012E+02 -0.65019388058E+02  0.11015216181E+03  0.10000000000E+00 0.  1.
          2    1    1    2  502    0 -0.80609303134E+02  0.39322418040E+02 -0.22332572213E+04  0.22350574778E+04  0.00000000000E+00 0.  1.
<mgrwt>
<rscale>  1 0.15385002E+03</rscale>
<asrwt>0</asrwt>
<pdfrwt beam="1">  1       21 0.58791840E-02 0.15385002E+03</pdfrwt>
<pdfrwt beam="2">  1        2 0.36811411E+00 0.15385002E+03</pdfrwt>
<totfact> 0.12454865E+04</totfact>
</mgrwt>
</event>
<event>
 6    2  0.1674964E-002  0.1556236E+03  0.7546771E-02  0.1193728E+00
         21   -1    0    0  502  503  0.00000000000E+00  0.00000000000E+00  0.97188155110E+01  0.97188155110E+01  0.00000000000E+00 0.  1.
          2   -1    0    0  503    0 -0.00000000000E+00 -0.00000000000E+00 -0.16711614903E+04  0.16711614903E+04  0.00000000000E+00 0.  1.
         25    2    1    2    0    0 -0.58829359792E+02  0.71630107524E+02 -0.12142683669E+04  0.12242003003E+04  0.12500776900E+03 0.  0.
          5    1    3    3  501    0 -0.42370136072E+02  0.12790307720E+02 -0.10105066722E+04  0.10114754396E+04  0.10000000000E+00 0.  1.
         -5    1    3    3    0  501 -0.16459223719E+02  0.58839799804E+02 -0.20376169477E+03  0.21272486066E+03  0.10000000000E+00 0.  1.
          2    1    1    2  502    0  0.58829359792E+02 -0.71630107524E+02 -0.44717430787E+03  0.45668000558E+03  0.00000000000E+00 0.  1.
<mgrwt>
<rscale>  1 0.15562361E+03</rscale>
<asrwt>0</asrwt>
<pdfrwt beam="1">  1       21 0.14952037E-02 0.15562361E+03</pdfrwt>
<pdfrwt beam="2">  1        2 0.25710155E+00 0.15562361E+03</pdfrwt>
<totfact> 0.28113169E+05</totfact>
</mgrwt>
</event>
<event>
 6    2  0.1674964E-002  0.1292332E+03  0.7546771E-02  0.1228598E+00
         21   -1    0    0  502  503  0.00000000000E+00  0.00000000000E+00  0.16842170975E+02  0.16842170975E+02  0.00000000000E+00 0.  1.
          4   -1    0    0  503    0 -0.00000000000E+00 -0.00000000000E+00 -0.47887418309E+03  0.47887418309E+03  0.00000000000E+00 0.  1.
         25    2    1    2    0    0 -0.14674836514E+01  0.32793045826E+02 -0.25272136690E+03  0.28384732952E+03  0.12499471918E+03 0.  0.
          5    1    3    3  501    0 -0.12632515059E+02  0.64151378804E+02 -0.61539159778E+02  0.89788963828E+02  0.10000000000E+00 0. -1.
         -5    1    3    3    0  501  0.11165031407E+02 -0.31358332978E+02 -0.19118220712E+03  0.19405836569E+03  0.10000000000E+00 0. -1.
          4    1    1    2  502    0  0.14674836514E+01 -0.32793045826E+02 -0.20931064521E+03  0.21186902455E+03  0.00000000000E+00 0.  1.
<mgrwt>
<rscale>  1 0.12923319E+03</rscale>
<asrwt>0</asrwt>
<pdfrwt beam="1">  1       21 0.25911030E-02 0.12923319E+03</pdfrwt>
<pdfrwt beam="2">  1        4 0.73672958E-01 0.12923319E+03</pdfrwt>
<totfact> 0.55061743E+04</totfact>
</mgrwt>
</event>
<event>
 6    2  0.1674964E-002  0.1266772E+03  0.7546771E-02  0.1232471E+00
          3   -1    0    0  503    0 -0.00000000000E+00  0.00000000000E+00  0.52200370766E+03  0.52200370766E+03  0.00000000000E+00 0. -1.
         21   -1    0    0  502  503  0.00000000000E+00 -0.00000000000E+00 -0.50613285892E+02  0.50613285892E+02  0.00000000000E+00 0. -1.
         25    2    1    2    0    0 -0.16964225482E+02  0.11567481301E+02  0.29263195250E+02  0.13001324752E+03  0.12500207345E+03 0.  0.
          5    1    3    3  501    0 -0.47984988319E+02  0.31203217851E+02  0.59418562681E+02  0.82503184783E+02  0.10000000000E+00 0. -1.
         -5    1    3    3    0  501  0.31020762837E+02 -0.19635736550E+02 -0.30155367431E+02  0.47510062741E+02  0.10000000000E+00 0. -1.
          3    1    1    2  502    0  0.16964225482E+02 -0.11567481301E+02  0.44212722652E+03  0.44260374603E+03  0.00000000000E+00 0. -1.
<mgrwt>
<rscale>  1 0.12667719E+03</rscale>
<asrwt>0</asrwt>
<pdfrwt beam="1">  1       21 0.77866597E-02 0.12667719E+03</pdfrwt>
<pdfrwt beam="2">  1        3 0.80308259E-01 0.12667719E+03</pdfrwt>
<totfact> 0.90004458E+03</totfact>
</mgrwt>
</event>
<event>
 6    2  0.1674964E-002  0.1710245E+03  0.7546771E-02  0.1176784E+00
          2   -1    0    0  503    0 -0.00000000000E+00  0.00000000000E+00  0.12945046194E+04  0.12945046194E+04  0.00000000000E+00 0. -1.
         21   -1    0    0  502  503  0.00000000000E+00 -0.00000000000E+00 -0.16186254789E+02  0.16186254789E+02  0.00000000000E+00 0. -1.
         25    2    1    2    0    0 -0.88700937385E+02  0.75870854589E+02  0.82912567738E+03  0.84658063607E+03  0.12500056640E+03 0.  0.
          5    1    3    3  501    0  0.78600300222E+01  0.74026657283E+02  0.35840076327E+03  0.36605032875E+03  0.10000000000E+00 0.  1.
         -5    1    3    3    0  501 -0.96560967408E+02  0.18441973056E+01  0.47072491411E+03  0.48053030732E+03  0.10000000000E+00 0.  1.
          2    1    1    2  502    0  0.88700937385E+02 -0.75870854589E+02  0.44919268722E+03  0.46411023812E+03  0.00000000000E+00 0. -1.
<mgrwt>
<rscale>  1 0.17102451E+03</rscale>
<asrwt>0</asrwt>
<pdfrwt beam="1">  1       21 0.24901941E-02 0.17102451E+03</pdfrwt>
<pdfrwt beam="2">  1        2 0.19915448E+00 0.17102451E+03</pdfrwt>
<totfact> 0.19456539E+05</totfact>
</mgrwt>
</event>
<event>
 6    2  0.1674964E-002  0.1358922E+03  0.7546771E-02  0.1218966E+00
         21   -1    0    0  502  503  0.00000000000E+00  0.00000000000E+00  0.23403891119E+02  0.23403891119E+02  0.00000000000E+00 0.  1.
          2   -1    0    0  503    0 -0.00000000000E+00 -0.00000000000E+00 -0.69966278214E+03  0.69966278214E+03  0.00000000000E+00 0. -1.
         25    2    1    2    0    0  0.53311056074E+02 -0.37304408035E+00 -0.18835694861E+03  0.23226068993E+03  0.12499792053E+03 0.  0.
          5    1    3    3  501    0  0.87735719668E+02  0.89461069689E+00 -0.17413802824E+03  0.19499338376E+03  0.10000000000E+00 0.  1.
         -5    1    3    3    0  501 -0.34424663594E+02 -0.12676547772E+01 -0.14218920372E+02  0.37267306164E+02  0.10000000000E+00 0.  1.
          2    1    1    2  502    0 -0.53311056074E+02  0.37304408035E+00 -0.48790194242E+03  0.49080598333E+03  0.00000000000E+00 0. -1.
<mgrwt>
<rscale>  1 0.13589219E+03</rscale>
<asrwt>0</asrwt>
<pdfrwt beam="1">  1       21 0.36005992E-02 0.13589219E+03</pdfrwt>
<pdfrwt beam="2">  1        2 0.10764041E+00 0.13589219E+03</pdfrwt>
<totfact> 0.24452550E+05</totfact>
</mgrwt>
</event>
<event>
 6    2  0.1674964E-002  0.1369374E+03  0.7546771E-02  0.1217510E+00
         21   -1    0    0  502  503  0.00000000000E+00  0.00000000000E+00  0.31325420015E+02  0.31325420015E+02  0.00000000000E+00 0. -1.
          1   -1    0    0  503    0 -0.00000000000E+00 -0.00000000000E+00 -0.98796678726E+03  0.98796678726E+03  0.00000000000E+00 0. -1.
         25    2    1    2    0    0  0.35273308991E+01  0.55803264011E+02 -0.12388274646E+03  0.18465853504E+03  0.12500157341E+03 0.  0.
          5    1    3    3  501    0 -0.39631474676E+02  0.57981894277E+02 -0.12275951945E+03  0.14143006563E+03  0.10000000000E+00 0. -1.
         -5    1    3    3    0  501  0.43158805576E+02 -0.21786302654E+01 -0.11232270108E+01  0.43228469409E+02  0.10000000000E+00 0. -1.
          1    1    1    2  502    0 -0.35273308991E+01 -0.55803264011E+02 -0.83275862079E+03  0.83463367224E+03  0.00000000000E+00 0. -1.
<mgrwt>
<rscale>  1 0.13693736E+03</rscale>
<asrwt>0</asrwt>
<pdfrwt beam="1">  1       21 0.48192953E-02 0.13693736E+03</pdfrwt>
<pdfrwt beam="2">  1        1 0.15199489E+00 0.13693736E+03</pdfrwt>
<totfact> 0.52702337E+04</totfact>
</mgrwt>
</event>
<event>
 6    2  0.1674964E-002  0.1319400E+03  0.7546771E-02  0.1224605E+00
          1   -1    0    0  503    0 -0.00000000000E+00  0.00000000000E+00  0.53465746006E+03  0.53465746006E+03  0.00000000000E+00 0.  1.
         21   -1    0    0  502  503  0.00000000000E+00 -0.00000000000E+00 -0.47227829785E+02  0.47227829785E+02  0.00000000000E+00 0.  1.
         25    2    1    2    0    0  0.22905399067E+02 -0.35476185570E+02  0.47952131916E+02  0.14038366061E+03  0.12499979265E+03 0.  0.
          5    1    3    3  501    0  0.68392180348E+02 -0.73512372550E+01  0.34961673291E+00  0.68787086389E+02  0.10000000000E+00 0. -1.
         -5    1    3    3    0  501 -0.45486781282E+02 -0.28124948315E+02  0.47602515183E+02  0.71596574226E+02  0.10000000000E+00 0. -1.
          1    1    1    2  502    0 -0.22905399067E+02  0.35476185570E+02  0.43947749836E+03  0.44150162923E+03  0.00000000000E+00 0.  1.
<mgrwt>
<rscale>  1 0.13194001E+03</rscale>
<asrwt>0</asrwt>
<pdfrwt beam="1">  1       21 0.72658203E-02 0.13194001E+03</pdfrwt>
<pdfrwt beam="2">  1        1 0.82254990E-01 0.13194001E+03</pdfrwt>
<totfact> 0.64547129E+04</totfact>
</mgrwt>
</event>
<event>
 6    2  0.1674964E-002  0.1261631E+03  0.7546771E-02  0.1233263E+00
         21   -1    0    0  502  503  0.00000000000E+00  0.00000000000E+00  0.10885065118E+03  0.10885065118E+03  0.00000000000E+00 0.  1.
          2   -1    0    0  503    0 -0.00000000000E+00 -0.00000000000E+00 -0.54999801059E+03  0.54999801059E+03  0.00000000000E+00 0. -1.
         25    2    1    2    0    0 -0.10930730545E+02  0.13185884259E+02  0.72102524401E+02  0.14531308205E+03  0.12499507740E+03 0.  0.
          5    1    3    3  501    0  0.35018476952E+02  0.32555663165E+02  0.81576155131E+02  0.94556036392E+02  0.10000000000E+00 0.  1.
         -5    1    3    3    0  501 -0.45949207497E+02 -0.19369778906E+02 -0.94736307298E+01  0.50757045656E+02  0.10000000000E+00 0.  1.
          2    1    1    2  502    0  0.10930730545E+02 -0.13185884259E+02 -0.51324988381E+03  0.51353557973E+03  0.00000000000E+00 0. -1.
<mgrwt>
<rscale>  1 0.12616306E+03</rscale>
<asrwt>0</asrwt>
<pdfrwt beam="1">  1       21 0.16746254E-01 0.12616306E+03</pdfrwt>
<pdfrwt beam="2">  1        2 0.84615079E-01 0.12616306E+03</pdfrwt>
<totfact> 0.22652611E+04</totfact>
</mgrwt>
</event>
<event>
 6    2  0.1674964E-002  0.1288159E+03  0.7546771E-02  0.1229223E+00
          2   -1    0    0  503    0 -0.00000000000E+00  0.00000000000E+00  0.95487505692E+03  0.95487505692E+03  0.00000000000E+00 0. -1.
         21   -1    0    0  502  503  0.00000000000E+00 -0.00000000000E+00 -0.19846616955E+02  0.19846616955E+02  0.00000000000E+00 0. -1.
         25    2    1    2    0    0  0.23187896950E+02  0.20764633592E+02  0.19299567131E+03  0.23203635806E+03  0.12499877497E+03 0.  0.
          5    1    3    3  501    0 -0.26327302136E+02 -0.19998816381E+02  0.50456131890E+01  0.33444696244E+02  0.10000000000E+00 0. -1.
         -5    1    3    3    0  501  0.49515199086E+02  0.40763449973E+02  0.18795005812E+03  0.19859166182E+03  0.10000000000E+00 0. -1.
          2    1    1    2  502    0 -0.23187896950E+02 -0.20764633592E+02  0.74203276865E+03  0.74268531582E+03  0.00000000000E+00 0. -1.
<mgrwt>
<rscale>  1 0.12881592E+03</rscale>
<asrwt>0</asrwt>
<pdfrwt beam="1">  1       21 0.30533264E-02 0.12881592E+03</pdfrwt>
<pdfrwt beam="2">  1        2 0.14690382E+00 0.12881592E+03</pdfrwt>
<totfact> 0.21667883E+05</totfact>
</mgrwt>
</event>
<event>
 6    2  0.1674964E-002  0.1387629E+03  0.7546771E-02  0.1215003E+00
         21   -1    0    0  502  503  0.00000000000E+00  0.00000000000E+00  0.13587532754E+03  0.13587532754E+03  0.00000000000E+00 0.  1.
          3   -1    0    0  503    0 -0.00000000000E+00 -0.00000000000E+00 -0.19372788115E+03  0.19372788115E+03  0.00000000000E+00 0.  1.
         25    2    1    2    0    0 -0.58767022445E+02 -0.13260249088E+02  0.93081125457E+02  0.16709052423E+03  0.12500300091E+03 0.  0.
          5    1    3    3  501    0  0.26989596862E+02 -0.37920229244E+02  0.48935459897E+02  0.67535704335E+02  0.10000000000E+00 0. -1.
         -5    1    3    3    0  501 -0.85756619307E+02  0.24659980156E+02  0.44145665559E+02  0.99554819893E+02  0.10000000000E+00 0. -1.
          3    1    1    2  502    0  0.58767022445E+02  0.13260249088E+02 -0.15093367907E+03  0.16251268446E+03  0.00000000000E+00 0.  1.
<mgrwt>
<rscale>  1 0.13876292E+03</rscale>
<asrwt>0</asrwt>
<pdfrwt beam="1">  1       21 0.20903897E-01 0.13876292E+03</pdfrwt>
<pdfrwt beam="2">  1        3 0.29804289E-01 0.13876292E+03</pdfrwt>
<totfact> 0.11211199E+04</totfact>
</mgrwt>
</event>
<event>
 6    2  0.1674964E-002  0.1324034E+03  0.7546771E-02  0.1223933E+00
         21   -1    0    0  502  503  0.00000000000E+00  0.00000000000E+00  0.22345632523E+03  0.22345632523E+03  0.00000000000E+00 0. -1.
          2   -1    0    0  503    0 -0.00000000000E+00 -0.00000000000E+00 -0.74555768843E+02  0.74555768843E+02  0.00000000000E+00 0. -1.
         25    2    1    2    0    0  0.43061343198E+02  0.71486547526E+01  0.19424073748E+03  0.23507470801E+03  0.12500108682E+03 0.  0.
          5    1    3    3  501    0  0.49640510074E+02  0.57074085785E+02  0.79320563641E+02  0.10960562634E+03  0.10000000000E+00 0. -1.
         -5    1    3    3    0  501 -0.65791668761E+01 -0.49925431033E+02  0.11492017384E+03  0.12546908168E+03  0.10000000000E+00 0. -1.
          2    1    1    2  502    0 -0.43061343198E+02 -0.71486547526E+01 -0.45340181093E+02  0.62937386062E+02  0.00000000000E+00 0. -1.
<mgrwt>
<rscale>  1 0.13240338E+03</rscale>
<asrwt>0</asrwt>
<pdfrwt beam="1">  1       21 0.34377896E-01 0.13240338E+03</pdfrwt>
<pdfrwt beam="2">  1        2 0.11470118E-01 0.13240338E+03</pdfrwt>
<totfact> 0.53130399E+04</totfact>
</mgrwt>
</event>
<event>
 6    2  0.1674964E-002  0.1522772E+03  0.7546771E-02  0.1197702E+00
         21   -1    0    0  502  503  0.00000000000E+00  0.00000000000E+00  0.98972963749E+02  0.98972963749E+02  0.00000000000E+00 0. -1.
          3   -1    0    0  503    0 -0.00000000000E+00 -0.00000000000E+00 -0.70699947531E+03  0.70699947531E+03  0.00000000000E+00 0. -1.
         25    2    1    2    0    0  0.24258239552E+02 -0.83512762102E+02  0.35693606303E+02  0.15640455672E+03  0.12500203283E+03 0.  0.
          5    1    3    3  501    0 -0.45398826172E+02 -0.43756592290E+02  0.42302278231E+02  0.75928818838E+02  0.10000000000E+00 0.  1.
         -5    1    3    3    0  501  0.69657065724E+02 -0.39756169812E+02 -0.66086719285E+01  0.80475737884E+02  0.10000000000E+00 0.  1.
          3    1    1    2  502    0 -0.24258239552E+02  0.83512762102E+02 -0.64372011786E+03  0.64956788233E+03  0.00000000000E+00 0. -1.
<mgrwt>
<rscale>  1 0.15227722E+03</rscale>
<asrwt>0</asrwt>
<pdfrwt beam="1">  1       21 0.15226610E-01 0.15227722E+03</pdfrwt>
<pdfrwt beam="2">  1        3 0.10876915E+00 0.15227722E+03</pdfrwt>
<totfact> 0.14080968E+03</totfact>
</mgrwt>
</event>
<event>
 6    2  0.1674964E-002  0.2006502E+03  0.7546771E-02  0.1149192E+00
          2   -1    0    0  503    0 -0.00000000000E+00  0.00000000000E+00  0.10241974367E+04  0.10241974367E+04  0.00000000000E+00 0. -1.
         21   -1    0    0  502  503  0.00000000000E+00 -0.00000000000E+00 -0.47758022400E+02  0.47758022400E+02  0.00000000000E+00 0. -1.
         25    2    1    2    0    0 -0.15611826778E+03 -0.16149818039E+02  0.21330078445E+03  0.29284423564E+03  0.12500716595E+03 0.  0.
          5    1    3    3  501    0 -0.13212380015E+03 -0.22747393290E+02  0.22759415916E+03  0.26414627340E+03  0.10000000000E+00 0.  1.
         -5    1    3    3    0  501 -0.23994467632E+02  0.65975752507E+01 -0.14293374706E+02  0.28697962238E+02  0.10000000000E+00 0.  1.
          2    1    1    2  502    0  0.15611826778E+03  0.16149818039E+02  0.76313862980E+03  0.77911122341E+03  0.00000000000E+00 0. -1.
<mgrwt>
<rscale>  1 0.20065025E+03</rscale>
<asrwt>0</asrwt>
<pdfrwt beam="1">  1       21 0.73473888E-02 0.20065025E+03</pdfrwt>
<pdfrwt beam="2">  1        2 0.15756882E+00 0.20065025E+03</pdfrwt>
<totfact> 0.44863590E+04</totfact>
</mgrwt>
</event>
<event>
 6    2  0.1674964E-002  0.1379697E+03  0.7546771E-02  0.1216087E+00
          2   -1    0    0  503    0 -0.00000000000E+00  0.00000000000E+00  0.98508730240E+03  0.98508730240E+03  0.00000000000E+00 0.  1.
         21   -1    0    0  502  503  0.00000000000E+00 -0.00000000000E+00 -0.76542634387E+02  0.76542634387E+02  0.00000000000E+00 0. -1.
         25    2    1    2    0    0  0.52808397777E+02  0.24935590410E+02 -0.12684463749E+02  0.13855159572E+03  0.12500055404E+03 0.  0.
          5    1    3    3  501    0  0.93210605401E+02  0.24118996946E+02 -0.28337342405E+00  0.96281012009E+02  0.10000000000E+00 0. -1.
         -5    1    3    3    0  501 -0.40402207624E+02  0.81659346451E+00 -0.12401090325E+02  0.42270583708E+02  0.10000000000E+00 0. -1.
          2    1    1    2  502    0 -0.52808397777E+02 -0.24935590410E+02  0.92122913176E+03  0.92307834107E+03  0.00000000000E+00 0.  1.
<mgrwt>
<rscale>  1 0.13796974E+03</rscale>
<asrwt>0</asrwt>
<pdfrwt beam="1">  1       21 0.11775791E-01 0.13796974E+03</pdfrwt>
<pdfrwt beam="2">  1        2 0.15155188E+00 0.13796974E+03</pdfrwt>
<totfact> 0.20932873E+04</totfact>
</mgrwt>
</event>
<event>
 6    2  0.1674964E-002  0.1596865E+03  0.7546771E-02  0.1189051E+00
         21   -1    0    0  502  503  0.00000000000E+00  0.00000000000E+00  0.57930372664E+02  0.57930372664E+02  0.00000000000E+00 0.  1.
          2   -1    0    0  503    0 -0.00000000000E+00 -0.00000000000E+00 -0.89556555423E+03  0.89556555423E+03  0.00000000000E+00 0. -1.
         25    2    1    2    0    0  0.58893072763E+01 -0.99200585772E+02 -0.61650607745E+02  0.17117406285E+03  0.12499728877E+03 0.  0.
          5    1    3    3  501    0 -0.20294515629E+01 -0.10634849013E+02 -0.79707971660E+02  0.80439974101E+02  0.10000000000E+00 0. -1.
         -5    1    3    3    0  501  0.79187588392E+01 -0.88565736759E+02  0.18057363915E+02  0.90734088747E+02  0.10000000000E+00 0. -1.
          2    1    1    2  502    0 -0.58893072763E+01  0.99200585772E+02 -0.77598457382E+03  0.78232186405E+03  0.00000000000E+00 0. -1.
<mgrwt>
<rscale>  1 0.15968645E+03</rscale>
<asrwt>0</asrwt>
<pdfrwt beam="1">  1       21 0.89123656E-02 0.15968645E+03</pdfrwt>
<pdfrwt beam="2">  1        2 0.13777931E+00 0.15968645E+03</pdfrwt>
<totfact> 0.38697790E+04</totfact>
</mgrwt>
</event>
<event>
 6    2  0.1674964E-002  0.1272889E+03  0.7546771E-02  0.1231535E+00
         21   -1    0    0  502  503  0.00000000000E+00  0.00000000000E+00  0.32417199560E+01  0.32417199560E+01  0.00000000000E+00 0. -1.
          2   -1    0    0  503    0 -0.00000000000E+00 -0.00000000000E+00 -0.20267804773E+04  0.20267804773E+04  0.00000000000E+00 0. -1.
         25    2    1    2    0    0 -0.12163418091E+02 -0.20716412213E+02 -0.13324810831E+04  0.13385470874E+04  0.12500139913E+03 0.  0.
          5    1    3    3  501    0  0.49870874098E+02  0.12821371574E+02 -0.75933319070E+03  0.76107712891E+03  0.10000000000E+00 0. -1.
         -5    1    3    3    0  501 -0.62034292189E+02 -0.33537783786E+02 -0.57314789244E+03  0.57746995849E+03  0.10000000000E+00 0. -1.
          2    1    1    2  502    0  0.12163418091E+02  0.20716412213E+02 -0.69105767421E+03  0.69147510986E+03  0.00000000000E+00 0. -1.
<mgrwt>
<rscale>  1 0.12728892E+03</rscale>
<asrwt>0</asrwt>
<pdfrwt beam="1">  1       21 0.49872492E-03 0.12728892E+03</pdfrwt>
<pdfrwt beam="2">  1        2 0.31181315E+00 0.12728892E+03</pdfrwt>
<totfact> 0.10338320E+06</totfact>
</mgrwt>
</event>
<event>
 6    2  0.1674964E-002  0.1297831E+03  0.7546771E-02  0.1227778E+00
         21   -1    0    0  502  503  0.00000000000E+00  0.00000000000E+00  0.54909557972E+01  0.54909557972E+01  0.00000000000E+00 0.  1.
          2   -1    0    0  503    0 -0.00000000000E+00 -0.00000000000E+00 -0.25607250227E+04  0.25607250227E+04  0.00000000000E+00 0. -1.
         25    2    1    2    0    0 -0.20599282020E+02 -0.28158671204E+02 -0.78636473775E+03  0.79700260957E+03  0.12500567066E+03 0.  0.
          5    1    3    3  501    0  0.46682264920E+02 -0.39795454088E+02 -0.39193864242E+03  0.39670999666E+03  0.10000000000E+00 0.  1.
         -5    1    3    3    0  501 -0.67281546940E+02  0.11636782884E+02 -0.39442609533E+03  0.40029261291E+03  0.10000000000E+00 0.  1.
          2    1    1    2  502    0  0.20599282020E+02  0.28158671204E+02 -0.17688693292E+04  0.17692133690E+04  0.00000000000E+00 0. -1.
<mgrwt>
<rscale>  1 0.12978312E+03</rscale>
<asrwt>0</asrwt>
<pdfrwt beam="1">  1       21 0.84476060E-03 0.12978312E+03</pdfrwt>
<pdfrwt beam="2">  1        2 0.39395855E+00 0.12978312E+03</pdfrwt>
<totfact> 0.23980645E+05</totfact>
</mgrwt>
</event>
<event>
 6    2  0.1674964E-002  0.1270195E+03  0.7546771E-02  0.1231946E+00
          4   -1    0    0  503    0 -0.00000000000E+00  0.00000000000E+00  0.32775864053E+02  0.32775864053E+02  0.00000000000E+00 0. -1.
         21   -1    0    0  502  503  0.00000000000E+00 -0.00000000000E+00 -0.18891947855E+03  0.18891947855E+03  0.00000000000E+00 0. -1.
         25    2    1    2    0    0 -0.15983946810E+02 -0.15930244120E+02 -0.15308928902E+03  0.19892281228E+03  0.12499878239E+03 0.  0.
          5    1    3    3  501    0  0.49372267522E+02  0.15786586171E+02 -0.83773929485E+02  0.98513544066E+02  0.10000000000E+00 0. -1.
         -5    1    3    3    0  501 -0.65356214332E+02 -0.31716830291E+02 -0.69315359530E+02  0.10040926821E+03  0.10000000000E+00 0. -1.
          4    1    1    2  502    0  0.15983946810E+02  0.15930244120E+02 -0.30543254807E+01  0.22772530327E+02  0.00000000000E+00 0. -1.
<mgrwt>
<rscale>  1 0.12701951E+03</rscale>
<asrwt>0</asrwt>
<pdfrwt beam="1">  1       21 0.29064534E-01 0.12701951E+03</pdfrwt>
<pdfrwt beam="2">  1        4 0.50424408E-02 0.12701951E+03</pdfrwt>
<totfact> 0.10700743E+05</totfact>
</mgrwt>
</event>
<event>
 6    2  0.1674964E-002  0.1393118E+03  0.7546771E-02  0.1214258E+00
         21   -1    0    0  502  503  0.00000000000E+00  0.00000000000E+00  0.20606411173E+02  0.20606411173E+02  0.00000000000E+00 0.  1.
          2   -1    0    0  503    0 -0.00000000000E+00 -0.00000000000E+00 -0.90846764331E+03  0.90846764331E+03  0.00000000000E+00 0.  1.
         25    2    1    2    0    0  0.33181603505E+02  0.51790945116E+02 -0.83908938587E+03  0.85057555899E+03  0.12499785299E+03 0.  0.
          5    1    3    3  501    0  0.53360428789E+02  0.61224432124E+02 -0.80937247596E+03  0.81343689447E+03  0.10000000000E+00 0. -1.
         -5    1    3    3    0  501 -0.20178825285E+02 -0.94334870078E+01 -0.29716909917E+02  0.37138664515E+02  0.10000000000E+00 0. -1.
          2    1    1    2  502    0 -0.33181603505E+02 -0.51790945116E+02 -0.48771846261E+02  0.78498495494E+02  0.00000000000E+00 0.  1.
<mgrwt>
<rscale>  1 0.13931182E+03</rscale>
<asrwt>0</asrwt>
<pdfrwt beam="1">  1       21 0.31702181E-02 0.13931182E+03</pdfrwt>
<pdfrwt beam="2">  1        2 0.13976421E+00 0.13931182E+03</pdfrwt>
<totfact> 0.21813960E+05</totfact>
</mgrwt>
</event>
<event>
 6    2  0.1674964E-002  0.1278334E+03  0.7546771E-02  0.1230706E+00
          4   -1    0    0  503    0 -0.00000000000E+00  0.00000000000E+00  0.83580068162E+02  0.83580068162E+02  0.00000000000E+00 0. -1.
         21   -1    0    0  502  503  0.00000000000E+00 -0.00000000000E+00 -0.36340988191E+03  0.36340988191E+03  0.00000000000E+00 0. -1.
         25    2    1    2    0    0 -0.16315922681E+02  0.21228607902E+02 -0.34961081567E+03  0.37224872079E+03  0.12499809828E+03 0.  0.
          5    1    3    3  501    0 -0.34000755212E+02  0.68502414590E+02 -0.23150533503E+03  0.24381009476E+03  0.10000000000E+00 0. -1.
         -5    1    3    3    0  501  0.17684832531E+02 -0.47273806688E+02 -0.11810548063E+03  0.12843862603E+03  0.10000000000E+00 0. -1.
          4    1    1    2  502    0  0.16315922681E+02 -0.21228607902E+02  0.69781001916E+02  0.74741229284E+02  0.00000000000E+00 0. -1.
<mgrwt>
<rscale>  1 0.12783344E+03</rscale>
<asrwt>0</asrwt>
<pdfrwt beam="1">  1       21 0.55909212E-01 0.12783344E+03</pdfrwt>
<pdfrwt beam="2">  1        4 0.12858472E-01 0.12783344E+03</pdfrwt>
<totfact> 0.61174475E+03</totfact>
</mgrwt>
</event>
<event>
 6    2  0.1674964E-002  0.2021819E+03  0.7546771E-02  0.1147911E+00
          2   -1    0    0  503    0 -0.00000000000E+00  0.00000000000E+00  0.10357621368E+04  0.10357621368E+04  0.00000000000E+00 0. -1.
         21   -1    0    0  502  503  0.00000000000E+00 -0.00000000000E+00 -0.60649156924E+02  0.60649156924E+02  0.00000000000E+00 0. -1.
         25    2    1    2    0    0  0.11831822530E+03 -0.10607912548E+03  0.13905389770E+03  0.24538440097E+03  0.12500213787E+03 0.  0.
          5    1    3    3  501    0  0.43538038849E+02 -0.60357058882E+01  0.10811229358E+03  0.11670590643E+03  0.10000000000E+00 0.  1.
         -5    1    3    3    0  501  0.74780186453E+02 -0.10004341960E+03  0.30941604114E+02  0.12867849453E+03  0.10000000000E+00 0.  1.
          2    1    1    2  502    0 -0.11831822530E+03  0.10607912548E+03  0.83605908216E+03  0.85102689274E+03  0.00000000000E+00 0. -1.
<mgrwt>
<rscale>  1 0.20218189E+03</rscale>
<asrwt>0</asrwt>
<pdfrwt beam="1">  1       21 0.93306404E-02 0.20218189E+03</pdfrwt>
<pdfrwt beam="2">  1        2 0.15934801E+00 0.20218189E+03</pdfrwt>
<totfact> 0.29080676E+04</totfact>
</mgrwt>
</event>
<event>
 6    2  0.1674964E-002  0.1496714E+03  0.7546771E-02  0.1200877E+00
         21   -1    0    0  502  503  0.00000000000E+00  0.00000000000E+00  0.16449437540E+02  0.16449437540E+02  0.00000000000E+00 0. -1.
          2   -1    0    0  503    0 -0.00000000000E+00 -0.00000000000E+00 -0.10253868505E+04  0.10253868505E+04  0.00000000000E+00 0. -1.
         25    2    1    2    0    0 -0.64918040667E+02  0.50624777531E+02 -0.39502920352E+03  0.42243293826E+03  0.12499718232E+03 0.  0.
          5    1    3    3  501    0 -0.72849571475E+02  0.72415074904E+02 -0.18905616886E+03  0.21515865802E+03  0.10000000000E+00 0.  1.
         -5    1    3    3    0  501  0.79315308077E+01 -0.21790297373E+02 -0.20597303467E+03  0.20727428024E+03  0.10000000000E+00 0.  1.
          2    1    1    2  502    0  0.64918040667E+02 -0.50624777531E+02 -0.61390820945E+03  0.61940334980E+03  0.00000000000E+00 0. -1.
<mgrwt>
<rscale>  1 0.14967136E+03</rscale>
<asrwt>0</asrwt>
<pdfrwt beam="1">  1       21 0.25306823E-02 0.14967136E+03</pdfrwt>
<pdfrwt beam="2">  1        2 0.15775185E+00 0.14967136E+03</pdfrwt>
<totfact> 0.26848449E+05</totfact>
</mgrwt>
</event>
<event>
 6    2  0.1674964E-002  0.1281662E+03  0.7546771E-02  0.1230202E+00
          2   -1    0    0  503    0 -0.00000000000E+00  0.00000000000E+00  0.11624844938E+02  0.11624844938E+02  0.00000000000E+00 0. -1.
         21   -1    0    0  502  503  0.00000000000E+00 -0.00000000000E+00 -0.79026889008E+03  0.79026889008E+03  0.00000000000E+00 0. -1.
         25    2    1    2    0    0  0.14596499413E+02 -0.24252676149E+02 -0.75257954347E+03  0.76341506115E+03  0.12500134495E+03 0.  0.
          5    1    3    3  501    0  0.52463708689E+02 -0.34449494671E+02 -0.20402644091E+03  0.21346195680E+03  0.10000000000E+00 0. -1.
         -5    1    3    3    0  501 -0.37867209276E+02  0.10196818522E+02 -0.54855310256E+03  0.54995310434E+03  0.10000000000E+00 0. -1.
          2    1    1    2  502    0 -0.14596499413E+02  0.24252676149E+02 -0.26064501668E+02  0.38478673869E+02  0.00000000000E+00 0. -1.
<mgrwt>
<rscale>  1 0.12816624E+03</rscale>
<asrwt>0</asrwt>
<pdfrwt beam="1">  1       21 0.12157987E+00 0.12816624E+03</pdfrwt>
<pdfrwt beam="2">  1        2 0.17884370E-02 0.12816624E+03</pdfrwt>
<totfact> 0.38725887E+04</totfact>
</mgrwt>
</event>
<event>
 6    2  0.1674964E-002  0.1277348E+03  0.7546771E-02  0.1230856E+00
          2   -1    0    0  503    0 -0.00000000000E+00  0.00000000000E+00  0.10268033824E+04  0.10268033824E+04  0.00000000000E+00 0. -1.
         21   -1    0    0  502  503  0.00000000000E+00 -0.00000000000E+00 -0.92199759976E+01  0.92199759976E+01  0.00000000000E+00 0.  1.
         25    2    1    2    0    0 -0.90381496065E+01 -0.24705545334E+02  0.44857735638E+03  0.46640950930E+03  0.12499653432E+03 0.  0.
          5    1    3    3  501    0 -0.48881185340E+02 -0.55577750360E+02  0.31654932037E+03  0.32508727881E+03  0.10000000000E+00 0.  1.
         -5    1    3    3    0  501  0.39843035734E+02  0.30872205026E+02  0.13202803601E+03  0.14132223050E+03  0.10000000000E+00 0.  1.
          2    1    1    2  502    0  0.90381496065E+01  0.24705545334E+02  0.56900605005E+03  0.56961384912E+03  0.00000000000E+00 0. -1.
<mgrwt>
<rscale>  1 0.12773483E+03</rscale>
<asrwt>0</asrwt>
<pdfrwt beam="1">  1       21 0.14184587E-02 0.12773483E+03</pdfrwt>
<pdfrwt beam="2">  1        2 0.15796966E+00 0.12773483E+03</pdfrwt>
<totfact> 0.67724897E+05</totfact>
</mgrwt>
</event>
<event>
 6    2  0.1674964E-002  0.1331019E+03  0.7546771E-02  0.1222924E+00
          1   -1    0    0  503    0 -0.00000000000E+00  0.00000000000E+00  0.25182536896E+04  0.25182536896E+04  0.00000000000E+00 0.  1.
         21   -1    0    0  502  503  0.00000000000E+00 -0.00000000000E+00 -0.46809200178E+01  0.46809200178E+01  0.00000000000E+00 0.  1.
         25    2    1    2    0    0  0.20062996891E+02 -0.41089752658E+02  0.10181989316E+04  0.10268618150E+04  0.12500092431E+03 0.  0.
          5    1    3    3  501    0  0.61913078286E+02 -0.72100978108E+01  0.78748179264E+03  0.78994480726E+03  0.10000000000E+00 0. -1.
         -5    1    3    3    0  501 -0.41850081395E+02 -0.33879654847E+02  0.23071713898E+03  0.23691700771E+03  0.10000000000E+00 0. -1.
          1    1    1    2  502    0 -0.20062996891E+02  0.41089752658E+02  0.14953738380E+04  0.14960727947E+04  0.00000000000E+00 0.  1.
<mgrwt>
<rscale>  1 0.13310193E+03</rscale>
<asrwt>0</asrwt>
<pdfrwt beam="1">  1       21 0.72014355E-03 0.13310193E+03</pdfrwt>
<pdfrwt beam="2">  1        1 0.38742256E+00 0.13310193E+03</pdfrwt>
<totfact> 0.11304606E+05</totfact>
</mgrwt>
</event>
<event>
 6    2  0.1674964E-002  0.1518451E+03  0.7546771E-02  0.1198224E+00
          2   -1    0    0  503    0 -0.00000000000E+00  0.00000000000E+00  0.33495410269E+04  0.33495410269E+04  0.00000000000E+00 0. -1.
         21   -1    0    0  502  503  0.00000000000E+00 -0.00000000000E+00 -0.12579673515E+03  0.12579673515E+03  0.00000000000E+00 0. -1.
         25    2    1    2    0    0 -0.69865614346E+02  0.50492119383E+02 -0.79206852506E+02  0.17126195791E+03  0.12500509812E+03 0.  0.
          5    1    3    3  501    0 -0.31361010251E+02  0.34330129802E+02  0.29325358460E+02  0.54973242809E+02  0.10000000000E+00 0.  1.
         -5    1    3    3    0  501 -0.38504604095E+02  0.16161989581E+02 -0.10853221097E+03  0.11628871511E+03  0.10000000000E+00 0.  1.
          2    1    1    2  502    0  0.69865614346E+02 -0.50492119383E+02  0.33029511443E+04  0.33040758042E+04  0.00000000000E+00 0. -1.
<mgrwt>
<rscale>  1 0.15184509E+03</rscale>
<asrwt>0</asrwt>
<pdfrwt beam="1">  1       21 0.19353346E-01 0.15184509E+03</pdfrwt>
<pdfrwt beam="2">  1        2 0.51531394E+00 0.15184509E+03</pdfrwt>
<totfact> 0.43141650E+02</totfact>
</mgrwt>
</event>
<event>
 6    2  0.1674964E-002  0.2288144E+03  0.7546771E-02  0.1127477E+00
         21   -1    0    0  502  503  0.00000000000E+00  0.00000000000E+00  0.14788757446E+03  0.14788757446E+03  0.00000000000E+00 0. -1.
          1   -1    0    0  503    0 -0.00000000000E+00 -0.00000000000E+00 -0.73826181827E+03  0.73826181827E+03  0.00000000000E+00 0.  1.
         25    2    1    2    0    0  0.39033230938E+02  0.18763306426E+03  0.35534103578E+02  0.23155713854E+03  0.12500510377E+03 0.  0.
          5    1    3    3  501    0  0.51227179675E+01  0.17923668827E+03 -0.32758879533E+01  0.17933982855E+03  0.10000000000E+00 0.  1.
         -5    1    3    3    0  501  0.33910512971E+02  0.83963759903E+01  0.38809991531E+02  0.52217309988E+02  0.10000000000E+00 0.  1.
          1    1    1    2  502    0 -0.39033230938E+02 -0.18763306426E+03 -0.62590834739E+03  0.65459225420E+03  0.00000000000E+00 0.  1.
<mgrwt>
<rscale>  1 0.22881441E+03</rscale>
<asrwt>0</asrwt>
<pdfrwt beam="1">  1       21 0.22751935E-01 0.22881441E+03</pdfrwt>
<pdfrwt beam="2">  1        1 0.11357874E+00 0.22881441E+03</pdfrwt>
<totfact> 0.52008690E+03</totfact>
</mgrwt>
</event>
<event>
 6    2  0.1674964E-002  0.1261032E+03  0.7546771E-02  0.1233355E+00
         21   -1    0    0  502  503  0.00000000000E+00  0.00000000000E+00  0.16260806138E+02  0.16260806138E+02  0.00000000000E+00 0. -1.
          2   -1    0    0  503    0 -0.00000000000E+00 -0.00000000000E+00 -0.58866228555E+03  0.58866228555E+03  0.00000000000E+00 0. -1.
         25    2    1    2    0    0 -0.73582590222E+01  0.14906109263E+02 -0.23150903650E+03  0.26362557674E+03  0.12500269863E+03 0.  0.
          5    1    3    3  501    0 -0.33620660316E+02 -0.47434808606E+02 -0.97769013780E+02  0.11375060406E+03  0.10000000000E+00 0.  1.
         -5    1    3    3    0  501  0.26262401294E+02  0.62340917868E+02 -0.13374002272E+03  0.14987497269E+03  0.10000000000E+00 0.  1.
          2    1    1    2  502    0  0.73582590222E+01 -0.14906109263E+02 -0.34089244291E+03  0.34129751494E+03  0.00000000000E+00 0. -1.
<mgrwt>
<rscale>  1 0.12610317E+03</rscale>
<asrwt>0</asrwt>
<pdfrwt beam="1">  1       21 0.25016626E-02 0.12610317E+03</pdfrwt>
<pdfrwt beam="2">  1        2 0.90563426E-01 0.12610317E+03</pdfrwt>
<totfact> 0.54058092E+05</totfact>
</mgrwt>
</event>
<event>
 6    2  0.1674964E-002  0.1279883E+03  0.7546771E-02  0.1230472E+00
         21   -1    0    0  502  503  0.00000000000E+00  0.00000000000E+00  0.13515307728E+02  0.13515307728E+02  0.00000000000E+00 0.  1.
          2   -1    0    0  503    0 -0.00000000000E+00 -0.00000000000E+00 -0.79628477432E+03  0.79628477432E+03  0.00000000000E+00 0.  1.
         25    2    1    2    0    0 -0.88946791243E+01  0.25966984834E+02 -0.29885967478E+03  0.32511246489E+03  0.12501043955E+03 0.  0.
          5    1    3    3  501    0  0.25218990217E+02  0.68091150618E+02 -0.19244111311E+03  0.20568421008E+03  0.10000000000E+00 0.  1.
         -5    1    3    3    0  501 -0.34113669341E+02 -0.42124165784E+02 -0.10641856167E+03  0.11942825481E+03  0.10000000000E+00 0.  1.
          2    1    1    2  502    0  0.88946791243E+01 -0.25966984834E+02 -0.48390979181E+03  0.48468761715E+03  0.00000000000E+00 0.  1.
<mgrwt>
<rscale>  1 0.12798832E+03</rscale>
<asrwt>0</asrwt>
<pdfrwt beam="1">  1       21 0.20792781E-02 0.12798832E+03</pdfrwt>
<pdfrwt beam="2">  1        2 0.12250535E+00 0.12798832E+03</pdfrwt>
<totfact> 0.51149889E+05</totfact>
</mgrwt>
</event>
<event>
 6    2  0.1674964E-002  0.1361968E+03  0.7546771E-02  0.1218540E+00
         21   -1    0    0  502  503  0.00000000000E+00  0.00000000000E+00  0.12238816272E+02  0.12238816272E+02  0.00000000000E+00 0. -1.
          2   -1    0    0  503    0 -0.00000000000E+00 -0.00000000000E+00 -0.22302283414E+04  0.22302283414E+04  0.00000000000E+00 0. -1.
         25    2    1    2    0    0 -0.60831719372E+01  0.53738027430E+02 -0.37979356678E+03  0.40347581406E+03  0.12499919438E+03 0.  0.
          5    1    3    3  501    0  0.78131341527E+01 -0.40234088296E+02 -0.12516282662E+03  0.13170258195E+03  0.10000000000E+00 0. -1.
         -5    1    3    3    0  501 -0.13896306090E+02  0.93972115726E+02 -0.25463074016E+03  0.27177323211E+03  0.10000000000E+00 0. -1.
          2    1    1    2  502    0  0.60831719372E+01 -0.53738027430E+02 -0.18381959583E+04  0.18389913436E+04  0.00000000000E+00 0. -1.
<mgrwt>
<rscale>  1 0.13619684E+03</rscale>
<asrwt>0</asrwt>
<pdfrwt beam="1">  1       21 0.18828958E-02 0.13619684E+03</pdfrwt>
<pdfrwt beam="2">  1        2 0.34311186E+00 0.13619684E+03</pdfrwt>
<totfact> 0.10015819E+05</totfact>
</mgrwt>
</event>
<event>
 6    2  0.1674964E-002  0.1265506E+03  0.7546771E-02  0.1232666E+00
          1   -1    0    0  503    0 -0.00000000000E+00  0.00000000000E+00  0.75625117615E+02  0.75625117615E+02  0.00000000000E+00 0. -1.
         21   -1    0    0  502  503  0.00000000000E+00 -0.00000000000E+00 -0.15367250795E+03  0.15367250795E+03  0.00000000000E+00 0.  1.
         25    2    1    2    0    0 -0.19455179247E+02  0.36514773866E+01 -0.12528701256E+03  0.17807830114E+03  0.12499283393E+03 0.  0.
          5    1    3    3  501    0  0.28970663274E+02 -0.31910947786E+02 -0.10687619829E+03  0.11523948837E+03  0.10000000000E+00 0. -1.
         -5    1    3    3    0  501 -0.48425842521E+02  0.35562425172E+02 -0.18410814271E+02  0.62838812768E+02  0.10000000000E+00 0. -1.
          1    1    1    2  502    0  0.19455179247E+02 -0.36514773866E+01  0.47239622225E+02  0.51219324426E+02  0.00000000000E+00 0. -1.
<mgrwt>
<rscale>  1 0.12655057E+03</rscale>
<asrwt>0</asrwt>
<pdfrwt beam="1">  1       21 0.23641924E-01 0.12655057E+03</pdfrwt>
<pdfrwt beam="2">  1        1 0.11634634E-01 0.12655057E+03</pdfrwt>
<totfact> 0.92633836E+04</totfact>
</mgrwt>
</event>
<event>
 6    2  0.1674964E-002  0.1602723E+03  0.7546771E-02  0.1188390E+00
          4   -1    0    0  503    0 -0.00000000000E+00  0.00000000000E+00  0.61270956042E+02  0.61270956042E+02  0.00000000000E+00 0.  1.
         21   -1    0    0  502  503  0.00000000000E+00 -0.00000000000E+00 -0.27775468542E+03  0.27775468542E+03  0.00000000000E+00 0.  1.
         25    2    1    2    0    0 -0.94972965236E+02  0.32271645022E+02 -0.14138263455E+03  0.21372002450E+03  0.12500350524E+03 0.  0.
          5    1    3    3  501    0 -0.46377436466E+00  0.52546495901E+02 -0.90086629132E+02  0.10429266545E+03  0.10000000000E+00 0. -1.
         -5    1    3    3    0  501 -0.94509190871E+02 -0.20274850879E+02 -0.51296005422E+02  0.10942735905E+03  0.10000000000E+00 0. -1.
          4    1    1    2  502    0  0.94972965236E+02 -0.32271645022E+02 -0.75101094828E+02  0.12530561696E+03  0.00000000000E+00 0.  1.
<mgrwt>
<rscale>  1 0.16027227E+03</rscale>
<asrwt>0</asrwt>
<pdfrwt beam="1">  1       21 0.42731489E-01 0.16027227E+03</pdfrwt>
<pdfrwt beam="2">  1        4 0.94263011E-02 0.16027227E+03</pdfrwt>
<totfact> 0.18351738E+04</totfact>
</mgrwt>
</event>
<event>
 6    2  0.1674964E-002  0.1632467E+03  0.7546771E-02  0.1185079E+00
          2   -1    0    0  503    0 -0.00000000000E+00  0.00000000000E+00  0.22704175596E+04  0.22704175596E+04  0.00000000000E+00 0.  1.
         21   -1    0    0  502  503  0.00000000000E+00 -0.00000000000E+00 -0.26437412197E+02  0.26437412197E+02  0.00000000000E+00 0.  1.
         25    2    1    2    0    0  0.10449069239E+03 -0.10269166825E+02  0.24076677326E+03  0.29089196542E+03  0.12500294341E+03 0.  0.
          5    1    3    3  501    0 -0.60563720189E+01 -0.28549953749E+02  0.13036356904E+03  0.13359060459E+03  0.10000000000E+00 0. -1.
         -5    1    3    3    0  501  0.11054706441E+03  0.18280786923E+02  0.11040320422E+03  0.15730136083E+03  0.10000000000E+00 0. -1.
          2    1    1    2  502    0 -0.10449069239E+03  0.10269166825E+02  0.20032133741E+04  0.20059630064E+04  0.00000000000E+00 0.  1.
<mgrwt>
<rscale>  1 0.16324673E+03</rscale>
<asrwt>0</asrwt>
<pdfrwt beam="1">  1       21 0.40672960E-02 0.16324673E+03</pdfrwt>
<pdfrwt beam="2">  1        2 0.34929486E+00 0.16324673E+03</pdfrwt>
<totfact> 0.26784329E+04</totfact>
</mgrwt>
</event>
<event>
 6    2  0.1674964E-002  0.1263342E+03  0.7546771E-02  0.1232999E+00
          2   -1    0    0  503    0 -0.00000000000E+00  0.00000000000E+00  0.36553965874E+03  0.36553965874E+03  0.00000000000E+00 0. -1.
         21   -1    0    0  502  503  0.00000000000E+00 -0.00000000000E+00 -0.35912074785E+02  0.35912074785E+02  0.00000000000E+00 0.  1.
         25    2    1    2    0    0 -0.78662360014E+01  0.16539061563E+02  0.76559150161E+02  0.14772146255E+03  0.12499963519E+03 0.  0.
          5    1    3    3  501    0 -0.53765846762E+02 -0.21995656710E+01 -0.30937752026E+01  0.53899775623E+02  0.10000000000E+00 0.  1.
         -5    1    3    3    0  501  0.45899610761E+02  0.18738627234E+02  0.79652925363E+02  0.93821686926E+02  0.10000000000E+00 0.  1.
          2    1    1    2  502    0  0.78662360014E+01 -0.16539061563E+02  0.25306843380E+03  0.25373027098E+03  0.00000000000E+00 0. -1.
<mgrwt>
<rscale>  1 0.12633419E+03</rscale>
<asrwt>0</asrwt>
<pdfrwt beam="1">  1       21 0.55249348E-02 0.12633419E+03</pdfrwt>
<pdfrwt beam="2">  1        2 0.56236868E-01 0.12633419E+03</pdfrwt>
<totfact> 0.24443137E+05</totfact>
</mgrwt>
</event>
<event>
 6    2  0.1674964E-002  0.1685154E+03  0.7546771E-02  0.1179405E+00
         21   -1    0    0  502  503  0.00000000000E+00  0.00000000000E+00  0.44216107197E+03  0.44216107197E+03  0.00000000000E+00 0.  1.
          2   -1    0    0  503    0 -0.00000000000E+00 -0.00000000000E+00 -0.60103541660E+03  0.60103541660E+03  0.00000000000E+00 0. -1.
         25    2    1    2    0    0  0.10231286554E+02 -0.11254086891E+03  0.42044490584E+03  0.45295846848E+03  0.12500931531E+03 0.  0.
          5    1    3    3  501    0 -0.34489716948E+02 -0.10096258383E+03  0.18978849046E+03  0.21772153090E+03  0.10000000000E+00 0.  1.
         -5    1    3    3    0  501  0.44721003501E+02 -0.11578285081E+02  0.23065641539E+03  0.23523693757E+03  0.10000000000E+00 0.  1.
          2    1    1    2  502    0 -0.10231286554E+02  0.11254086891E+03 -0.57931925047E+03  0.59023802009E+03  0.00000000000E+00 0. -1.
<mgrwt>
<rscale>  1 0.16851545E+03</rscale>
<asrwt>0</asrwt>
<pdfrwt beam="1">  1       21 0.68024780E-01 0.16851545E+03</pdfrwt>
<pdfrwt beam="2">  1        2 0.92466987E-01 0.16851545E+03</pdfrwt>
<totfact> 0.12658635E+03</totfact>
</mgrwt>
</event>
<event>
 6    2  0.1674964E-002  0.1259219E+03  0.7546771E-02  0.1233636E+00
         21   -1    0    0  502  503  0.00000000000E+00  0.00000000000E+00  0.26326888186E+02  0.26326888186E+02  0.00000000000E+00 0. -1.
          2   -1    0    0  503    0 -0.00000000000E+00 -0.00000000000E+00 -0.40970925161E+03  0.40970925161E+03  0.00000000000E+00 0.  1.
         25    2    1    2    0    0  0.95289045971E+01  0.12096768771E+02 -0.12580125758E+03  0.17799513932E+03  0.12497672334E+03 0.  0.
          5    1    3    3  501    0  0.64109350138E+02  0.17205936271E+02 -0.92505585169E+02  0.11385669197E+03  0.10000000000E+00 0. -1.
         -5    1    3    3    0  501 -0.54580445541E+02 -0.51091675003E+01 -0.33295672411E+02  0.64138447357E+02  0.10000000000E+00 0. -1.
          2    1    1    2  502    0 -0.95289045971E+01 -0.12096768771E+02 -0.25758110584E+03  0.25804100047E+03  0.00000000000E+00 0.  1.
<mgrwt>
<rscale>  1 0.12592185E+03</rscale>
<asrwt>0</asrwt>
<pdfrwt beam="1">  1       21 0.40502909E-02 0.12592185E+03</pdfrwt>
<pdfrwt beam="2">  1        2 0.63032187E-01 0.12592185E+03</pdfrwt>
<totfact> 0.36400269E+05</totfact>
</mgrwt>
</event>
<event>
 6    2  0.1674964E-002  0.2090581E+03  0.7546771E-02  0.1142314E+00
          2   -1    0    0  503    0 -0.00000000000E+00  0.00000000000E+00  0.14106701219E+04  0.14106701219E+04  0.00000000000E+00 0.  1.
         21   -1    0    0  502  503  0.00000000000E+00 -0.00000000000E+00 -0.28094285745E+02  0.28094285745E+02  0.00000000000E+00 0. -1.
         25    2    1    2    0    0 -0.11932078266E+03 -0.11765870350E+03  0.52737374716E+03  0.56729918591E+03  0.12499710976E+03 0.  0.
          5    1    3    3  501    0  0.17396779772E+02 -0.45325241619E+02  0.76229844685E+02  0.90377124843E+02  0.10000000000E+00 0. -1.
         -5    1    3    3    0  501 -0.13671756244E+03 -0.72333461880E+02  0.45114390248E+03  0.47692206106E+03  0.10000000000E+00 0. -1.
          2    1    1    2  502    0  0.11932078266E+03  0.11765870350E+03  0.85520208901E+03  0.87146522176E+03  0.00000000000E+00 0.  1.
<mgrwt>
<rscale>  1 0.20905812E+03</rscale>
<asrwt>0</asrwt>
<pdfrwt beam="1">  1       21 0.43221989E-02 0.20905812E+03</pdfrwt>
<pdfrwt beam="2">  1        2 0.21702612E+00 0.20905812E+03</pdfrwt>
<totfact> 0.67205399E+04</totfact>
</mgrwt>
</event>
<event>
 6    2  0.1674964E-002  0.1282895E+03  0.7546771E-02  0.1230016E+00
         21   -1    0    0  502  503  0.00000000000E+00  0.00000000000E+00  0.87201736144E+02  0.87201736144E+02  0.00000000000E+00 0. -1.
          2   -1    0    0  503    0 -0.00000000000E+00 -0.00000000000E+00 -0.11169350851E+04  0.11169350851E+04  0.00000000000E+00 0. -1.
         25    2    1    2    0    0  0.24418913671E+02  0.15412278778E+02  0.39716914749E+02  0.13429679198E+03  0.12499749332E+03 0.  0.
          5    1    3    3  501    0  0.19679945289E+02 -0.54034343413E+02  0.89770434939E+01  0.58203159919E+02  0.10000000000E+00 0.  1.
         -5    1    3    3    0  501  0.47389683816E+01  0.69446622192E+02  0.30739871255E+02  0.76093632059E+02  0.10000000000E+00 0.  1.
          2    1    1    2  502    0 -0.24418913671E+02 -0.15412278778E+02 -0.10694502637E+04  0.10698400293E+04  0.00000000000E+00 0. -1.
<mgrwt>
<rscale>  1 0.12828950E+03</rscale>
<asrwt>0</asrwt>
<pdfrwt beam="1">  1       21 0.13415652E-01 0.12828950E+03</pdfrwt>
<pdfrwt beam="2">  1        2 0.17183616E+00 0.12828950E+03</pdfrwt>
<totfact> 0.13939399E+04</totfact>
</mgrwt>
</event>
<event>
 6    2  0.1674964E-002  0.1352159E+03  0.7546771E-02  0.1219915E+00
         21   -1    0    0  502  503  0.00000000000E+00  0.00000000000E+00  0.53202833101E+03  0.53202833101E+03  0.00000000000E+00 0.  1.
          4   -1    0    0  503    0 -0.00000000000E+00 -0.00000000000E+00 -0.25350979953E+02  0.25350979953E+02  0.00000000000E+00 0.  1.
         25    2    1    2    0    0  0.37300369161E+02  0.35605008767E+02  0.48125037881E+03  0.49988526687E+03  0.12499727491E+03 0.  0.
          5    1    3    3  501    0  0.51425145241E+02  0.76353878520E+02  0.33270401512E+03  0.34520491306E+03  0.10000000000E+00 0.  1.
         -5    1    3    3    0  501 -0.14124776080E+02 -0.40748869753E+02  0.14854636369E+03  0.15468035380E+03  0.10000000000E+00 0.  1.
          4    1    1    2  502    0 -0.37300369161E+02 -0.35605008767E+02  0.25426972242E+02  0.57494044094E+02  0.00000000000E+00 0.  1.
<mgrwt>
<rscale>  1 0.13521595E+03</rscale>
<asrwt>0</asrwt>
<pdfrwt beam="1">  1       21 0.81850504E-01 0.13521595E+03</pdfrwt>
<pdfrwt beam="2">  1        4 0.39001512E-02 0.13521595E+03</pdfrwt>
<totfact> 0.19122196E+04</totfact>
</mgrwt>
</event>
<event>
 6    2  0.1674964E-002  0.1277935E+03  0.7546771E-02  0.1230767E+00
          2   -1    0    0  503    0 -0.00000000000E+00  0.00000000000E+00  0.34920773382E+03  0.34920773382E+03  0.00000000000E+00 0.  1.
         21   -1    0    0  502  503  0.00000000000E+00 -0.00000000000E+00 -0.10095523906E+03  0.10095523906E+03  0.00000000000E+00 0. -1.
         25    2    1    2    0    0  0.61341676957E+01  0.25877026851E+02 -0.59709659439E+02  0.14105467964E+03  0.12499572267E+03 0.  0.
          5    1    3    3  501    0 -0.58621605835E+02  0.31735413515E+01 -0.21551252618E+02  0.62538232505E+02  0.10000000000E+00 0.  1.
         -5    1    3    3    0  501  0.64755773531E+02  0.22703485499E+02 -0.38158406820E+02  0.78516447134E+02  0.10000000000E+00 0.  1.
          2    1    1    2  502    0 -0.61341676957E+01 -0.25877026851E+02  0.30796215419E+03  0.30910829324E+03  0.00000000000E+00 0.  1.
<mgrwt>
<rscale>  1 0.12779350E+03</rscale>
<asrwt>0</asrwt>
<pdfrwt beam="1">  1       21 0.15531575E-01 0.12779350E+03</pdfrwt>
<pdfrwt beam="2">  1        2 0.53724266E-01 0.12779350E+03</pdfrwt>
<totfact> 0.42395447E+04</totfact>
</mgrwt>
</event>
<event>
 6    2  0.1674964E-002  0.1679572E+03  0.7546771E-02  0.1179995E+00
         21   -1    0    0  502  503  0.00000000000E+00  0.00000000000E+00  0.11393575486E+03  0.11393575486E+03  0.00000000000E+00 0.  1.
          2   -1    0    0  503    0 -0.00000000000E+00 -0.00000000000E+00 -0.45213957223E+03  0.45213957223E+03  0.00000000000E+00 0. -1.
         25    2    1    2    0    0 -0.96618983860E+01  0.11176739512E+03  0.39098612770E+02  0.17244805837E+03  0.12499731365E+03 0.  0.
          5    1    3    3  501    0 -0.43774653907E+02  0.86242044913E+01 -0.19866559279E+02  0.48839404228E+02  0.10000000000E+00 0. -1.
         -5    1    3    3    0  501  0.34112755521E+02  0.10314319063E+03  0.58965172049E+02  0.12360865414E+03  0.10000000000E+00 0. -1.
          2    1    1    2  502    0  0.96618983860E+01 -0.11176739512E+03 -0.37730243014E+03  0.39362726872E+03  0.00000000000E+00 0. -1.
<mgrwt>
<rscale>  1 0.16795723E+03</rscale>
<asrwt>0</asrwt>
<pdfrwt beam="1">  1       21 0.17528578E-01 0.16795723E+03</pdfrwt>
<pdfrwt beam="2">  1        2 0.69559935E-01 0.16795723E+03</pdfrwt>
<totfact> 0.25753321E+04</totfact>
</mgrwt>
</event>
<event>
 6    2  0.1674964E-002  0.1302272E+03  0.7546771E-02  0.1227119E+00
         21   -1    0    0  502  503  0.00000000000E+00  0.00000000000E+00  0.64693394624E+03  0.64693394624E+03  0.00000000000E+00 0.  1.
          1   -1    0    0  503    0 -0.00000000000E+00 -0.00000000000E+00 -0.21292264010E+02  0.21292264010E+02  0.00000000000E+00 0.  1.
         25    2    1    2    0    0 -0.33018418236E+02  0.15561079619E+02  0.61716287769E+03  0.63075284280E+03  0.12500707163E+03 0.  0.
          5    1    3    3  501    0  0.53630343814E+01  0.41120079537E+02  0.67927245371E+02  0.79584821057E+02  0.10000000000E+00 0. -1.
         -5    1    3    3    0  501 -0.38381452618E+02 -0.25558999918E+02  0.54923563232E+03  0.55116802175E+03  0.10000000000E+00 0. -1.
          1    1    1    2  502    0  0.33018418236E+02 -0.15561079619E+02  0.84788045405E+01  0.37473367452E+02  0.00000000000E+00 0.  1.
<mgrwt>
<rscale>  1 0.13022723E+03</rscale>
<asrwt>0</asrwt>
<pdfrwt beam="1">  1       21 0.99528285E-01 0.13022723E+03</pdfrwt>
<pdfrwt beam="2">  1        1 0.32757334E-02 0.13022723E+03</pdfrwt>
<totfact> 0.26184977E+04</totfact>
</mgrwt>
</event>
<event>
 6    2  0.1674964E-002  0.1360281E+03  0.7546771E-02  0.1218776E+00
          2   -1    0    0  503    0 -0.00000000000E+00  0.00000000000E+00  0.75553731515E+03  0.75553731515E+03  0.00000000000E+00 0. -1.
         21   -1    0    0  502  503  0.00000000000E+00 -0.00000000000E+00 -0.12629125818E+02  0.12629125818E+02  0.00000000000E+00 0. -1.
         25    2    1    2    0    0  0.48030482574E+02 -0.24257530032E+02  0.44106749799E+03  0.46156709659E+03  0.12493314955E+03 0.  0.
          5    1    3    3  501    0 -0.75517518314E+01 -0.28577309836E+02  0.37029943928E+03  0.37147728911E+03  0.10000000000E+00 0. -1.
         -5    1    3    3    0  501  0.55582234405E+02  0.43197798037E+01  0.70768058704E+02  0.90089807479E+02  0.10000000000E+00 0. -1.
          2    1    1    2  502    0 -0.48030482574E+02  0.24257530032E+02  0.30184069134E+03  0.30659934437E+03  0.00000000000E+00 0. -1.
<mgrwt>
<rscale>  1 0.13602811E+03</rscale>
<asrwt>0</asrwt>
<pdfrwt beam="1">  1       21 0.19429430E-02 0.13602811E+03</pdfrwt>
<pdfrwt beam="2">  1        2 0.11623647E+00 0.13602811E+03</pdfrwt>
<totfact> 0.61086936E+05</totfact>
</mgrwt>
</event>
<event>
 6    2  0.1674964E-002  0.1283100E+03  0.7546771E-02  0.1229985E+00
          2   -1    0    0  503    0 -0.00000000000E+00  0.00000000000E+00  0.35741595176E+03  0.35741595176E+03  0.00000000000E+00 0. -1.
         21   -1    0    0  502  503  0.00000000000E+00 -0.00000000000E+00 -0.10323218393E+03  0.10323218393E+03  0.00000000000E+00 0.  1.
         25    2    1    2    0    0 -0.22202789915E+02 -0.18649630688E+02 -0.62442246907E+02  0.14269718693E+03  0.12499072107E+03 0.  0.
          5    1    3    3  501    0 -0.41006452711E+02  0.41700151939E+02 -0.75339044197E+01  0.58967800972E+02  0.10000000000E+00 0. -1.
         -5    1    3    3    0  501  0.18803662796E+02 -0.60349782628E+02 -0.54908342487E+02  0.83729385955E+02  0.10000000000E+00 0. -1.
          2    1    1    2  502    0  0.22202789915E+02  0.18649630688E+02  0.31662601475E+03  0.31795094876E+03  0.00000000000E+00 0. -1.
<mgrwt>
<rscale>  1 0.12830999E+03</rscale>
<asrwt>0</asrwt>
<pdfrwt beam="1">  1       21 0.15881875E-01 0.12830999E+03</pdfrwt>
<pdfrwt beam="2">  1        2 0.54987069E-01 0.12830999E+03</pdfrwt>
<totfact> 0.39728952E+04</totfact>
</mgrwt>
</event>
<event>
 6    2  0.1674964E-002  0.1276091E+03  0.7546771E-02  0.1231047E+00
         21   -1    0    0  502  503  0.00000000000E+00  0.00000000000E+00  0.10943380529E+02  0.10943380529E+02  0.00000000000E+00 0. -1.
          1   -1    0    0  503    0 -0.00000000000E+00 -0.00000000000E+00 -0.61627430380E+03  0.61627430380E+03  0.00000000000E+00 0.  1.
         25    2    1    2    0    0 -0.23066277523E+02  0.11215176981E+02 -0.38956915715E+03  0.40993682214E+03  0.12500494626E+03 0.  0.
          5    1    3    3  501    0  0.30821850053E+02  0.51689541356E+02 -0.18838768130E+03  0.19776684148E+03  0.10000000000E+00 0. -1.
         -5    1    3    3    0  501 -0.53888127576E+02 -0.40474364375E+02 -0.20118147585E+03  0.21216998065E+03  0.10000000000E+00 0. -1.
          1    1    1    2  502    0  0.23066277523E+02 -0.11215176981E+02 -0.21576176612E+03  0.21728086219E+03  0.00000000000E+00 0.  1.
<mgrwt>
<rscale>  1 0.12760905E+03</rscale>
<asrwt>0</asrwt>
<pdfrwt beam="1">  1       21 0.16835970E-02 0.12760905E+03</pdfrwt>
<pdfrwt beam="2">  1        1 0.94811432E-01 0.12760905E+03</pdfrwt>
<totfact> 0.59789878E+05</totfact>
</mgrwt>
</event>
<event>
 6    2  0.1674964E-002  0.1270004E+03  0.7546771E-02  0.1231976E+00
          2   -1    0    0  503    0 -0.00000000000E+00  0.00000000000E+00  0.40756382814E+03  0.40756382814E+03  0.00000000000E+00 0. -1.
         21   -1    0    0  502  503  0.00000000000E+00 -0.00000000000E+00 -0.42141396627E+03  0.42141396627E+03  0.00000000000E+00 0. -1.
         25    2    1    2    0    0 -0.19151737876E+02 -0.11694153226E+02 -0.41152202841E+03  0.43067329457E+03  0.12500225801E+03 0.  0.
          5    1    3    3  501    0 -0.49359000191E+02  0.49696381184E+01 -0.38217325832E+03  0.38537957597E+03  0.10000000000E+00 0. -1.
         -5    1    3    3    0  501  0.30207262316E+02 -0.16663791344E+02 -0.29348770090E+02  0.45293718597E+02  0.10000000000E+00 0. -1.
          2    1    1    2  502    0  0.19151737876E+02  0.11694153226E+02  0.39767189027E+03  0.39830449984E+03  0.00000000000E+00 0. -1.
<mgrwt>
<rscale>  1 0.12700042E+03</rscale>
<asrwt>0</asrwt>
<pdfrwt beam="1">  1       21 0.64832918E-01 0.12700042E+03</pdfrwt>
<pdfrwt beam="2">  1        2 0.62702127E-01 0.12700042E+03</pdfrwt>
<totfact> 0.22076788E+03</totfact>
</mgrwt>
</event>
<event>
 6    2  0.1674964E-002  0.1479776E+03  0.7546771E-02  0.1202980E+00
         21   -1    0    0  502  503  0.00000000000E+00  0.00000000000E+00  0.13451209014E+02  0.13451209014E+02  0.00000000000E+00 0. -1.
          2   -1    0    0  503    0 -0.00000000000E+00 -0.00000000000E+00 -0.10501753588E+04  0.10501753588E+04  0.00000000000E+00 0. -1.
         25    2    1    2    0    0 -0.61051352278E+02 -0.50442060632E+02 -0.81158196367E+03  0.82496221550E+03  0.12500281659E+03 0.  0.
          5    1    3    3  501    0 -0.20038162824E+02 -0.85859198188E+02 -0.38581881733E+03  0.39576444975E+03  0.10000000000E+00 0. -1.
         -5    1    3    3    0  501 -0.41013189454E+02  0.35417137556E+02 -0.42576314634E+03  0.42919776575E+03  0.10000000000E+00 0. -1.
          2    1    1    2  502    0  0.61051352278E+02  0.50442060632E+02 -0.22514218614E+03  0.23866435234E+03  0.00000000000E+00 0. -1.
<mgrwt>
<rscale>  1 0.14797761E+03</rscale>
<asrwt>0</asrwt>
<pdfrwt beam="1">  1       21 0.20694167E-02 0.14797761E+03</pdfrwt>
<pdfrwt beam="2">  1        2 0.16156544E+00 0.14797761E+03</pdfrwt>
<totfact> 0.36004567E+05</totfact>
</mgrwt>
</event>
<event>
 6    2  0.1674964E-002  0.1319662E+03  0.7546771E-02  0.1224567E+00
         21   -1    0    0  502  503  0.00000000000E+00  0.00000000000E+00  0.14408748725E+02  0.14408748725E+02  0.00000000000E+00 0. -1.
          2   -1    0    0  503    0 -0.00000000000E+00 -0.00000000000E+00 -0.81379711993E+03  0.81379711993E+03  0.00000000000E+00 0. -1.
         25    2    1    2    0    0 -0.21911327898E+02 -0.36137383953E+02 -0.30900335950E+03  0.33600319037E+03  0.12501620273E+03 0.  0.
          5    1    3    3  501    0  0.23299945761E+02 -0.63899597100E+01 -0.26541594572E+03  0.26651332668E+03  0.10000000000E+00 0.  1.
         -5    1    3    3    0  501 -0.45211273659E+02 -0.29747424243E+02 -0.43587413788E+02  0.69489863690E+02  0.10000000000E+00 0.  1.
          2    1    1    2  502    0  0.21911327898E+02  0.36137383953E+02 -0.49038501170E+03  0.49220267828E+03  0.00000000000E+00 0. -1.
<mgrwt>
<rscale>  1 0.13196616E+03</rscale>
<asrwt>0</asrwt>
<pdfrwt beam="1">  1       21 0.22167307E-02 0.13196616E+03</pdfrwt>
<pdfrwt beam="2">  1        2 0.12519955E+00 0.13196616E+03</pdfrwt>
<totfact> 0.44960671E+05</totfact>
</mgrwt>
</event>
<event>
 6    2  0.1674964E-002  0.1299600E+03  0.7546771E-02  0.1227515E+00
         21   -1    0    0  502  503  0.00000000000E+00  0.00000000000E+00  0.16379882534E+03  0.16379882534E+03  0.00000000000E+00 0. -1.
          2   -1    0    0  503    0 -0.00000000000E+00 -0.00000000000E+00 -0.42512352159E+03  0.42512352159E+03  0.00000000000E+00 0.  1.
         25    2    1    2    0    0  0.31183225464E+02  0.17201381111E+02  0.13710101653E+03  0.18890818510E+03  0.12498532955E+03 0.  0.
          5    1    3    3  501    0 -0.74470532357E+01  0.60309584580E+02  0.10846491299E+03  0.12432759929E+03  0.10000000000E+00 0. -1.
         -5    1    3    3    0  501  0.38630278699E+02 -0.43108203468E+02  0.28636103541E+02  0.64580585818E+02  0.10000000000E+00 0. -1.
          2    1    1    2  502    0 -0.31183225464E+02 -0.17201381111E+02 -0.39842571277E+03  0.40001416183E+03  0.00000000000E+00 0.  1.
<mgrwt>
<rscale>  1 0.12996005E+03</rscale>
<asrwt>0</asrwt>
<pdfrwt beam="1">  1       21 0.25199819E-01 0.12996005E+03</pdfrwt>
<pdfrwt beam="2">  1        2 0.65403618E-01 0.12996005E+03</pdfrwt>
<totfact> 0.14058507E+04</totfact>
</mgrwt>
</event>
<event>
 6    2  0.1674964E-002  0.1644369E+03  0.7546771E-02  0.1183777E+00
         21   -1    0    0  502  503  0.00000000000E+00  0.00000000000E+00  0.11924999566E+03  0.11924999566E+03  0.00000000000E+00 0.  1.
          2   -1    0    0  503    0 -0.00000000000E+00 -0.00000000000E+00 -0.45758159969E+03  0.45758159969E+03  0.00000000000E+00 0.  1.
         25    2    1    2    0    0 -0.55464138766E+02 -0.91332133727E+02  0.51743440939E+02  0.17238583873E+03  0.12498665679E+03 0.  0.
          5    1    3    3  501    0 -0.51125441086E+02 -0.99207635628E+02 -0.80723879222E+01  0.11189789605E+03  0.10000000000E+00 0. -1.
         -5    1    3    3    0  501 -0.43386976802E+01  0.78755019015E+01  0.59815828861E+02  0.60487942683E+02  0.10000000000E+00 0. -1.
          2    1    1    2  502    0  0.55464138766E+02  0.91332133727E+02 -0.39007504497E+03  0.40444575662E+03  0.00000000000E+00 0.  1.
<mgrwt>
<rscale>  1 0.16443690E+03</rscale>
<asrwt>0</asrwt>
<pdfrwt beam="1">  1       21 0.18346153E-01 0.16443690E+03</pdfrwt>
<pdfrwt beam="2">  1        2 0.70397169E-01 0.16443690E+03</pdfrwt>
<totfact> 0.23382333E+04</totfact>
</mgrwt>
</event>
<event>
 6    2  0.1674964E-002  0.1287676E+03  0.7546771E-02  0.1229296E+00
         21   -1    0    0  502  503  0.00000000000E+00  0.00000000000E+00  0.19414026773E+02  0.19414026773E+02  0.00000000000E+00 0.  1.
          1   -1    0    0  503    0 -0.00000000000E+00 -0.00000000000E+00 -0.12209548100E+04  0.12209548100E+04  0.00000000000E+00 0.  1.
         25    2    1    2    0    0 -0.20359024771E+02  0.23261045999E+02 -0.19699058599E+03  0.23534313317E+03  0.12500213281E+03 0.  0.
          5    1    3    3  501    0  0.10935323615E+02  0.52924239287E+02 -0.18174280050E+03  0.18960752079E+03  0.10000000000E+00 0. -1.
         -5    1    3    3    0  501 -0.31294348386E+02 -0.29663193289E+02 -0.15247785496E+02  0.45735612377E+02  0.10000000000E+00 0. -1.
          1    1    1    2  502    0  0.20359024771E+02 -0.23261045999E+02 -0.10045501972E+04  0.10050257036E+04  0.00000000000E+00 0.  1.
<mgrwt>
<rscale>  1 0.12876762E+03</rscale>
<asrwt>0</asrwt>
<pdfrwt beam="1">  1       21 0.29867730E-02 0.12876762E+03</pdfrwt>
<pdfrwt beam="2">  1        1 0.18783922E+00 0.12876762E+03</pdfrwt>
<totfact> 0.79864667E+04</totfact>
</mgrwt>
</event>
<event>
 6    2  0.1674964E-002  0.1259268E+03  0.7546771E-02  0.1233628E+00
         21   -1    0    0  502  503  0.00000000000E+00  0.00000000000E+00  0.41882632484E+02  0.41882632484E+02  0.00000000000E+00 0. -1.
          2   -1    0    0  503    0 -0.00000000000E+00 -0.00000000000E+00 -0.29086199772E+03  0.29086199772E+03  0.00000000000E+00 0.  1.
         25    2    1    2    0    0  0.13256197103E+02  0.74659049063E+01 -0.53741673075E+02  0.13691505395E+03  0.12500439222E+03 0.  0.
          5    1    3    3  501    0 -0.40305004793E+02  0.81796744014E+01 -0.69781393787E+02  0.80999095079E+02  0.10000000000E+00 0.  1.
         -5    1    3    3    0  501  0.53561201896E+02 -0.71376949512E+00  0.16039720713E+02  0.55915958866E+02  0.10000000000E+00 0.  1.
          2    1    1    2  502    0 -0.13256197103E+02 -0.74659049063E+01 -0.19523769216E+03  0.19582957626E+03  0.00000000000E+00 0.  1.
<mgrwt>
<rscale>  1 0.12592682E+03</rscale>
<asrwt>0</asrwt>
<pdfrwt beam="1">  1       21 0.64434820E-02 0.12592682E+03</pdfrwt>
<pdfrwt beam="2">  1        2 0.44747999E-01 0.12592682E+03</pdfrwt>
<totfact> 0.23984772E+05</totfact>
</mgrwt>
</event>
<event>
 6    2  0.1674964E-002  0.1354425E+03  0.7546771E-02  0.1219596E+00
          2   -1    0    0  503    0 -0.00000000000E+00  0.00000000000E+00  0.62925790124E+03  0.62925790124E+03  0.00000000000E+00 0. -1.
         21   -1    0    0  502  503  0.00000000000E+00 -0.00000000000E+00 -0.29201060486E+02  0.29201060486E+02  0.00000000000E+00 0. -1.
         25    2    1    2    0    0  0.30062203814E+02  0.42604266950E+02  0.13761566607E+03  0.19308739007E+03  0.12500323594E+03 0.  0.
          5    1    3    3  501    0 -0.37028484437E+02  0.10850515577E+01  0.31432188501E+01  0.37177625278E+02  0.10000000000E+00 0. -1.
         -5    1    3    3    0  501  0.67090688251E+02  0.41519215392E+02  0.13447244722E+03  0.15590976479E+03  0.10000000000E+00 0. -1.
          2    1    1    2  502    0 -0.30062203814E+02 -0.42604266950E+02  0.46244117469E+03  0.46537157166E+03  0.00000000000E+00 0. -1.
<mgrwt>
<rscale>  1 0.13544249E+03</rscale>
<asrwt>0</asrwt>
<pdfrwt beam="1">  1       21 0.44924713E-02 0.13544249E+03</pdfrwt>
<pdfrwt beam="2">  1        2 0.96808898E-01 0.13544249E+03</pdfrwt>
<totfact> 0.19151510E+05</totfact>
</mgrwt>
</event>
<event>
 6    2  0.1674964E-002  0.1527766E+03  0.7546771E-02  0.1197102E+00
         21   -1    0    0  502  503  0.00000000000E+00  0.00000000000E+00  0.25586638122E+02  0.25586638122E+02  0.00000000000E+00 0. -1.
          2   -1    0    0  503    0 -0.00000000000E+00 -0.00000000000E+00 -0.61740284847E+03  0.61740284847E+03  0.00000000000E+00 0. -1.
         25    2    1    2    0    0  0.44259417482E+02  0.75880901982E+02 -0.45893829613E+03  0.48369935065E+03  0.12499557930E+03 0.  0.
          5    1    3    3  501    0  0.15855174538E+02  0.31561808678E+02 -0.18023563112E+02  0.39653412891E+02  0.10000000000E+00 0.  1.
         -5    1    3    3    0  501  0.28404242944E+02  0.44319093304E+02 -0.44091473302E+03  0.44404593776E+03  0.10000000000E+00 0.  1.
          2    1    1    2  502    0 -0.44259417482E+02 -0.75880901982E+02 -0.13287791422E+03  0.15929013595E+03  0.00000000000E+00 0. -1.
<mgrwt>
<rscale>  1 0.15277664E+03</rscale>
<asrwt>0</asrwt>
<pdfrwt beam="1">  1       21 0.39364059E-02 0.15277664E+03</pdfrwt>
<pdfrwt beam="2">  1        2 0.94985053E-01 0.15277664E+03</pdfrwt>
<totfact> 0.24518228E+05</totfact>
</mgrwt>
</event>
<event>
 6    2  0.1674964E-002  0.1348973E+03  0.7546771E-02  0.1220365E+00
         21   -1    0    0  502  503  0.00000000000E+00  0.00000000000E+00  0.81234978760E+02  0.81234978760E+02  0.00000000000E+00 0. -1.
          2   -1    0    0  503    0 -0.00000000000E+00 -0.00000000000E+00 -0.10630239898E+03  0.10630239898E+03  0.00000000000E+00 0. -1.
         25    2    1    2    0    0 -0.25464923301E+02  0.43864551545E+02 -0.13984330365E+02  0.13562017364E+03  0.12499883520E+03 0.  0.
          5    1    3    3  501    0 -0.47207940819E+02 -0.11864458942E+02  0.33629881079E+02  0.59163620273E+02  0.10000000000E+00 0.  1.
         -5    1    3    3    0  501  0.21743017518E+02  0.55729010487E+02 -0.47614211444E+02  0.76456553363E+02  0.10000000000E+00 0.  1.
          2    1    1    2  502    0  0.25464923301E+02 -0.43864551545E+02 -0.11083089852E+02  0.51917204101E+02  0.00000000000E+00 0. -1.
<mgrwt>
<rscale>  1 0.13489726E+03</rscale>
<asrwt>0</asrwt>
<pdfrwt beam="1">  1       21 0.12497689E-01 0.13489726E+03</pdfrwt>
<pdfrwt beam="2">  1        2 0.16354215E-01 0.13489726E+03</pdfrwt>
<totfact> 0.22978867E+05</totfact>
</mgrwt>
</event>
<event>
 6    2  0.1674964E-002  0.1443455E+03  0.7546771E-02  0.1207599E+00
          4   -1    0    0  503    0 -0.00000000000E+00  0.00000000000E+00  0.64162497580E+02  0.64162497580E+02  0.00000000000E+00 0.  1.
         21   -1    0    0  502  503  0.00000000000E+00 -0.00000000000E+00 -0.41640737214E+03  0.41640737214E+03  0.00000000000E+00 0. -1.
         25    2    1    2    0    0  0.52186053247E+02 -0.49864240121E+02 -0.37745585022E+03  0.40411452399E+03  0.12500321213E+03 0.  0.
          5    1    3    3  501    0  0.19609740104E+02 -0.50201540641E+02 -0.36543704843E+03  0.36939001469E+03  0.10000000000E+00 0.  1.
         -5    1    3    3    0  501  0.32576313143E+02  0.33730052033E+00 -0.12018801787E+02  0.34724509299E+02  0.10000000000E+00 0.  1.
          4    1    1    2  502    0 -0.52186053247E+02  0.49864240121E+02  0.25210975659E+02  0.76455345726E+02  0.00000000000E+00 0.  1.
<mgrwt>
<rscale>  1 0.14434552E+03</rscale>
<asrwt>0</asrwt>
<pdfrwt beam="1">  1       21 0.64062671E-01 0.14434552E+03</pdfrwt>
<pdfrwt beam="2">  1        4 0.98711537E-02 0.14434552E+03</pdfrwt>
<totfact> 0.72357644E+03</totfact>
</mgrwt>
</event>
<event>
 6    2  0.1674964E-002  0.1259276E+03  0.7546771E-02  0.1233627E+00
         21   -1    0    0  502  503  0.00000000000E+00  0.00000000000E+00  0.22472850625E+02  0.22472850625E+02  0.00000000000E+00 0. -1.
          1   -1    0    0  503    0 -0.00000000000E+00 -0.00000000000E+00 -0.22761262241E+03  0.22761262241E+03  0.00000000000E+00 0. -1.
         25    2    1    2    0    0  0.14025612543E+02  0.61528575686E+01 -0.19341613204E+03  0.23079767398E+03  0.12499276266E+03 0.  0.
          5    1    3    3  501    0  0.42476240773E+02  0.12542994259E+02 -0.19654255705E+03  0.20147095192E+03  0.10000000000E+00 0. -1.
         -5    1    3    3    0  501 -0.28450628230E+02 -0.63901366901E+01  0.31264250086E+01  0.29326722062E+02  0.10000000000E+00 0. -1.
          1    1    1    2  502    0 -0.14025612543E+02 -0.61528575686E+01 -0.11723639742E+02  0.19287799052E+02  0.00000000000E+00 0. -1.
<mgrwt>
<rscale>  1 0.12592762E+03</rscale>
<asrwt>0</asrwt>
<pdfrwt beam="1">  1       21 0.34573616E-02 0.12592762E+03</pdfrwt>
<pdfrwt beam="2">  1        1 0.35017327E-01 0.12592762E+03</pdfrwt>
<totfact> 0.65536128E+05</totfact>
</mgrwt>
</event>
<event>
 6    2  0.1674964E-002  0.1697880E+03  0.7546771E-02  0.1178069E+00
          2   -1    0    0  503    0 -0.00000000000E+00  0.00000000000E+00  0.73062974675E+03  0.73062974675E+03  0.00000000000E+00 0. -1.
         21   -1    0    0  502  503  0.00000000000E+00 -0.00000000000E+00 -0.99366635612E+02  0.99366635612E+02  0.00000000000E+00 0.  1.
         25    2    1    2    0    0  0.11357068756E+03 -0.17505348874E+02 -0.17911194420E+02  0.17073011043E+03  0.12499288544E+03 0.  0.
          5    1    3    3  501    0  0.11262650627E+03 -0.59636773002E+02 -0.98272242867E+01  0.12781963443E+03  0.10000000000E+00 0.  1.
         -5    1    3    3    0  501  0.94418128759E+00  0.42131424128E+02 -0.80839701329E+01  0.42910475999E+02  0.10000000000E+00 0.  1.
          2    1    1    2  502    0 -0.11357068756E+03  0.17505348874E+02  0.64917430555E+03  0.65926627193E+03  0.00000000000E+00 0. -1.
<mgrwt>
<rscale>  1 0.16978798E+03</rscale>
<asrwt>0</asrwt>
<pdfrwt beam="1">  1       21 0.15287175E-01 0.16978798E+03</pdfrwt>
<pdfrwt beam="2">  1        2 0.11240457E+00 0.16978798E+03</pdfrwt>
<totfact> 0.19112807E+04</totfact>
</mgrwt>
</event>
<event>
 6    2  0.1674964E-002  0.1296952E+03  0.7546771E-02  0.1227909E+00
         21   -1    0    0  502  503  0.00000000000E+00  0.00000000000E+00  0.95633582028E+02  0.95633582028E+02  0.00000000000E+00 0.  1.
          3   -1    0    0  503    0 -0.00000000000E+00 -0.00000000000E+00 -0.10190390440E+03  0.10190390440E+03  0.00000000000E+00 0.  1.
         25    2    1    2    0    0 -0.68494209530E+01  0.33909539698E+02  0.43613428821E+02  0.13683196705E+03  0.12499633828E+03 0.  0.
          5    1    3    3  501    0 -0.22588704418E+02  0.26968648991E+02  0.85011133237E+02  0.92002501977E+02  0.10000000000E+00 0.  1.
         -5    1    3    3    0  501  0.15739283465E+02  0.69408907072E+01 -0.41397704416E+02  0.44829465073E+02  0.10000000000E+00 0.  1.
          3    1    1    2  502    0  0.68494209530E+01 -0.33909539698E+02 -0.49883751190E+02  0.60705519376E+02  0.00000000000E+00 0.  1.
<mgrwt>
<rscale>  1 0.12969524E+03</rscale>
<asrwt>0</asrwt>
<pdfrwt beam="1">  1       21 0.14712859E-01 0.12969524E+03</pdfrwt>
<pdfrwt beam="2">  1        3 0.15677524E-01 0.12969524E+03</pdfrwt>
<totfact> 0.66409563E+04</totfact>
</mgrwt>
</event>
<event>
 6    2  0.1674964E-002  0.1297019E+03  0.7546771E-02  0.1227899E+00
          4   -1    0    0  503    0 -0.00000000000E+00  0.00000000000E+00  0.59460525452E+03  0.59460525452E+03  0.00000000000E+00 0. -1.
         21   -1    0    0  502  503  0.00000000000E+00 -0.00000000000E+00 -0.46089797797E+02  0.46089797797E+02  0.00000000000E+00 0.  1.
         25    2    1    2    0    0 -0.69680661481E+01 -0.33900544860E+02  0.46951532186E+02  0.13793847973E+03  0.12499910770E+03 0.  0.
          5    1    3    3  501    0  0.15915151356E+02 -0.58335970211E+02  0.73525110416E+02  0.95196267390E+02  0.10000000000E+00 0.  1.
         -5    1    3    3    0  501 -0.22883217504E+02  0.24435425352E+02 -0.26573578230E+02  0.42742212336E+02  0.10000000000E+00 0.  1.
          4    1    1    2  502    0  0.69680661481E+01  0.33900544860E+02  0.50156392453E+03  0.50275657259E+03  0.00000000000E+00 0. -1.
<mgrwt>
<rscale>  1 0.12970188E+03</rscale>
<asrwt>0</asrwt>
<pdfrwt beam="1">  1       21 0.70907385E-02 0.12970188E+03</pdfrwt>
<pdfrwt beam="2">  1        4 0.91477726E-01 0.12970188E+03</pdfrwt>
<totfact> 0.63538945E+03</totfact>
</mgrwt>
</event>
<event>
 6    2  0.1674964E-002  0.1501331E+03  0.7546771E-02  0.1200310E+00
          1   -1    0    0  503    0 -0.00000000000E+00  0.00000000000E+00  0.66725544413E+03  0.66725544413E+03  0.00000000000E+00 0. -1.
         21   -1    0    0  502  503  0.00000000000E+00 -0.00000000000E+00 -0.99116831722E+02  0.99116831722E+02  0.00000000000E+00 0. -1.
         25    2    1    2    0    0  0.72017089157E+02 -0.41566058967E+02 -0.37748435670E+02  0.15480599701E+03  0.12500301567E+03 0.  0.
          5    1    3    3  501    0  0.69996591293E+02 -0.43267403474E+02  0.29565781289E+02  0.87439901757E+02  0.10000000000E+00 0. -1.
         -5    1    3    3    0  501  0.20204978638E+01  0.17013445067E+01 -0.67314216959E+02  0.67366095253E+02  0.10000000000E+00 0. -1.
          1    1    1    2  502    0 -0.72017089157E+02  0.41566058967E+02  0.60588704808E+03  0.61156627884E+03  0.00000000000E+00 0. -1.
<mgrwt>
<rscale>  1 0.15013312E+03</rscale>
<asrwt>0</asrwt>
<pdfrwt beam="1">  1       21 0.15248744E-01 0.15013312E+03</pdfrwt>
<pdfrwt beam="2">  1        1 0.10265468E+00 0.15013312E+03</pdfrwt>
<totfact> 0.12924797E+04</totfact>
</mgrwt>
</event>
<event>
 6    2  0.1674964E-002  0.1271851E+03  0.7546771E-02  0.1231693E+00
          2   -1    0    0  503    0 -0.00000000000E+00  0.00000000000E+00  0.30701411458E+04  0.30701411458E+04  0.00000000000E+00 0. -1.
         21   -1    0    0  502  503  0.00000000000E+00 -0.00000000000E+00 -0.27597590048E+01  0.27597590048E+01  0.00000000000E+00 0. -1.
         25    2    1    2    0    0  0.22682270580E+02  0.60750933384E+01  0.15112714884E+04  0.15166138464E+04  0.12499862158E+03 0.  0.
          5    1    3    3  501    0  0.36387427937E+02 -0.51758938144E+02  0.97700361662E+03  0.97905010571E+03  0.10000000000E+00 0. -1.
         -5    1    3    3    0  501 -0.13705157356E+02  0.57834031482E+02  0.53426787177E+03  0.53756374073E+03  0.10000000000E+00 0. -1.
          2    1    1    2  502    0 -0.22682270580E+02 -0.60750933384E+01  0.15561098984E+04  0.15562870584E+04  0.00000000000E+00 0. -1.
<mgrwt>
<rscale>  1 0.12718509E+03</rscale>
<asrwt>0</asrwt>
<pdfrwt beam="1">  1       21 0.42458076E-03 0.12718509E+03</pdfrwt>
<pdfrwt beam="2">  1        2 0.47232668E+00 0.12718509E+03</pdfrwt>
<totfact> 0.36215369E+05</totfact>
</mgrwt>
</event>
<event>
 6    2  0.1674964E-002  0.1281209E+03  0.7546771E-02  0.1230271E+00
          2   -1    0    0  503    0 -0.00000000000E+00  0.00000000000E+00  0.19603120696E+04  0.19603120696E+04  0.00000000000E+00 0. -1.
         21   -1    0    0  502  503  0.00000000000E+00 -0.00000000000E+00 -0.37202411800E+01  0.37202411800E+01  0.00000000000E+00 0. -1.
         25    2    1    2    0    0 -0.84715794417E+01  0.26814495093E+02  0.11806949809E+04  0.11876260365E+04  0.12499671900E+03 0.  0.
          5    1    3    3  501    0  0.75688590623E+01 -0.47950834836E+02  0.33790527851E+03  0.34137451198E+03  0.10000000000E+00 0.  1.
         -5    1    3    3    0  501 -0.16040438504E+02  0.74765329929E+02  0.84278970241E+03  0.84625152449E+03  0.10000000000E+00 0.  1.
          2    1    1    2  502    0  0.84715794417E+01 -0.26814495093E+02  0.77589684752E+03  0.77640627431E+03  0.00000000000E+00 0. -1.
<mgrwt>
<rscale>  1 0.12812090E+03</rscale>
<asrwt>0</asrwt>
<pdfrwt beam="1">  1       21 0.57234636E-03 0.12812090E+03</pdfrwt>
<pdfrwt beam="2">  1        2 0.30158565E+00 0.12812090E+03</pdfrwt>
<totfact> 0.90359570E+05</totfact>
</mgrwt>
</event>
<event>
 6    2  0.1674964E-002  0.1620823E+03  0.7546771E-02  0.1186366E+00
          2   -1    0    0  503    0 -0.00000000000E+00  0.00000000000E+00  0.66500939497E+03  0.66500939497E+03  0.00000000000E+00 0.  1.
         21   -1    0    0  502  503  0.00000000000E+00 -0.00000000000E+00 -0.30219143547E+02  0.30219143547E+02  0.00000000000E+00 0. -1.
         25    2    1    2    0    0 -0.82944879005E+01  0.10285086521E+03  0.25904867432E+03  0.30557634518E+03  0.12499435214E+03 0.  0.
          5    1    3    3  501    0 -0.22735149925E+02  0.14728469935E+02  0.19201869865E+03  0.19392010082E+03  0.10000000000E+00 0. -1.
         -5    1    3    3    0  501  0.14440662025E+02  0.88122395273E+02  0.67029975665E+02  0.11165624437E+03  0.10000000000E+00 0. -1.
          2    1    1    2  502    0  0.82944879005E+01 -0.10285086521E+03  0.37574157710E+03  0.38965219333E+03  0.00000000000E+00 0.  1.
<mgrwt>
<rscale>  1 0.16208235E+03</rscale>
<asrwt>0</asrwt>
<pdfrwt beam="1">  1       21 0.46490995E-02 0.16208235E+03</pdfrwt>
<pdfrwt beam="2">  1        2 0.10230913E+00 0.16208235E+03</pdfrwt>
<totfact> 0.17051732E+05</totfact>
</mgrwt>
</event>
<event>
 6    2  0.1674964E-002  0.1331988E+03  0.7546771E-02  0.1222785E+00
          2   -1    0    0  503    0 -0.00000000000E+00  0.00000000000E+00  0.11714992519E+04  0.11714992519E+04  0.00000000000E+00 0.  1.
         21   -1    0    0  502  503  0.00000000000E+00 -0.00000000000E+00 -0.35785348489E+02  0.35785348489E+02  0.00000000000E+00 0.  1.
         25    2    1    2    0    0 -0.45990321694E+02 -0.13868486874E+01  0.90445668470E+02  0.16100418099E+03  0.12499957725E+03 0.  0.
          5    1    3    3  501    0  0.57564855359E+00  0.27079763317E+02  0.10172809635E+03  0.10527231611E+03  0.10000000000E+00 0.  1.
         -5    1    3    3    0  501 -0.46565970247E+02 -0.28466612005E+02 -0.11282427880E+02  0.55731864880E+02  0.10000000000E+00 0.  1.
          2    1    1    2  502    0  0.45990321694E+02  0.13868486874E+01  0.10452682350E+04  0.10462804194E+04  0.00000000000E+00 0.  1.
<mgrwt>
<rscale>  1 0.13319883E+03</rscale>
<asrwt>0</asrwt>
<pdfrwt beam="1">  1       21 0.55054391E-02 0.13319883E+03</pdfrwt>
<pdfrwt beam="2">  1        2 0.18023062E+00 0.13319883E+03</pdfrwt>
<totfact> 0.60817670E+04</totfact>
</mgrwt>
</event>
<event>
 6    2  0.1674964E-002  0.1263705E+03  0.7546771E-02  0.1232943E+00
         21   -1    0    0  502  503  0.00000000000E+00  0.00000000000E+00  0.54504500734E+02  0.54504500734E+02  0.00000000000E+00 0. -1.
          2   -1    0    0  503    0 -0.00000000000E+00 -0.00000000000E+00 -0.12916785383E+04  0.12916785383E+04  0.00000000000E+00 0.  1.
         25    2    1    2    0    0  0.13101916205E+02  0.13078535727E+02 -0.18908994214E+02  0.12777734955E+03  0.12500717056E+03 0.  0.
          5    1    3    3  501    0 -0.46652216950E+00 -0.52105527598E+02 -0.30228004038E+02  0.60240732709E+02  0.10000000000E+00 0. -1.
         -5    1    3    3    0  501  0.13568438375E+02  0.65184063324E+02  0.11319009824E+02  0.67536616844E+02  0.10000000000E+00 0. -1.
          2    1    1    2  502    0 -0.13101916205E+02 -0.13078535727E+02 -0.12182650434E+04  0.12184056895E+04  0.00000000000E+00 0.  1.
<mgrwt>
<rscale>  1 0.12637049E+03</rscale>
<asrwt>0</asrwt>
<pdfrwt beam="1">  1       21 0.83853085E-02 0.12637049E+03</pdfrwt>
<pdfrwt beam="2">  1        2 0.19871976E+00 0.12637049E+03</pdfrwt>
<totfact> 0.25498176E+04</totfact>
</mgrwt>
</event>
<event>
 6    2  0.1674964E-002  0.1303414E+03  0.7546771E-02  0.1226950E+00
          2   -1    0    0  503    0 -0.00000000000E+00  0.00000000000E+00  0.55131899957E+03  0.55131899957E+03  0.00000000000E+00 0.  1.
         21   -1    0    0  502  503  0.00000000000E+00 -0.00000000000E+00 -0.35192278914E+02  0.35192278914E+02  0.00000000000E+00 0. -1.
         25    2    1    2    0    0 -0.31696367156E+01  0.36882655534E+02  0.89104712645E+02  0.15788769980E+03  0.12497399352E+03 0.  0.
          5    1    3    3  501    0 -0.14019007614E+02 -0.15221286911E+02  0.10121239657E+03  0.10330624071E+03  0.10000000000E+00 0.  1.
         -5    1    3    3    0  501  0.10849370899E+02  0.52103942445E+02 -0.12107683923E+02  0.54581459098E+02  0.10000000000E+00 0.  1.
          2    1    1    2  502    0  0.31696367156E+01 -0.36882655534E+02  0.42702200801E+03  0.42862357868E+03  0.00000000000E+00 0.  1.
<mgrwt>
<rscale>  1 0.13034138E+03</rscale>
<asrwt>0</asrwt>
<pdfrwt beam="1">  1       21 0.54141971E-02 0.13034138E+03</pdfrwt>
<pdfrwt beam="2">  1        2 0.84818302E-01 0.13034138E+03</pdfrwt>
<totfact> 0.16236654E+05</totfact>
</mgrwt>
</event>
<event>
 6    2  0.1674964E-002  0.1290181E+03  0.7546771E-02  0.1228920E+00
          2   -1    0    0  503    0 -0.00000000000E+00  0.00000000000E+00  0.56613982551E+01  0.56613982551E+01  0.00000000000E+00 0.  1.
         21   -1    0    0  502  503  0.00000000000E+00 -0.00000000000E+00 -0.11454710391E+04  0.11454710391E+04  0.00000000000E+00 0.  1.
         25    2    1    2    0    0  0.25122348703E+01  0.31832872303E+02 -0.93007507942E+03  0.93898100715E+03  0.12500414130E+03 0.  0.
          5    1    3    3  501    0  0.59055514011E+02 -0.79352525512E+01 -0.46284743035E+03  0.46666720021E+03  0.10000000000E+00 0.  1.
         -5    1    3    3    0  501 -0.56543279140E+02  0.39768124854E+02 -0.46722764907E+03  0.47231380694E+03  0.10000000000E+00 0.  1.
          2    1    1    2  502    0 -0.25122348703E+01 -0.31832872303E+02 -0.20973456143E+03  0.21215143021E+03  0.00000000000E+00 0.  1.
<mgrwt>
<rscale>  1 0.12901813E+03</rscale>
<asrwt>0</asrwt>
<pdfrwt beam="1">  1       21 0.17622626E+00 0.12901813E+03</pdfrwt>
<pdfrwt beam="2">  1        2 0.87098459E-03 0.12901813E+03</pdfrwt>
<totfact> 0.40038089E+04</totfact>
</mgrwt>
</event>
<event>
 6    2  0.1674964E-002  0.1320699E+03  0.7546771E-02  0.1224416E+00
         21   -1    0    0  502  503  0.00000000000E+00  0.00000000000E+00  0.33039359801E+02  0.33039359801E+02  0.00000000000E+00 0.  1.
          1   -1    0    0  503    0 -0.00000000000E+00 -0.00000000000E+00 -0.23496388086E+03  0.23496388086E+03  0.00000000000E+00 0.  1.
         25    2    1    2    0    0 -0.22877679921E+01  0.42541775840E+02 -0.13652712359E+03  0.18995289685E+03  0.12500964351E+03 0.  0.
          5    1    3    3  501    0 -0.10211508194E+02  0.38539437674E+02  0.11629183108E+02  0.41530844629E+02  0.10000000000E+00 0.  1.
         -5    1    3    3    0  501  0.79237402016E+01  0.40023381666E+01 -0.14815630670E+03  0.14842205222E+03  0.10000000000E+00 0.  1.
          1    1    1    2  502    0  0.22877679921E+01 -0.42541775840E+02 -0.65397397462E+02  0.78050343810E+02  0.00000000000E+00 0.  1.
<mgrwt>
<rscale>  1 0.13206986E+03</rscale>
<asrwt>0</asrwt>
<pdfrwt beam="1">  1       21 0.50829783E-02 0.13206986E+03</pdfrwt>
<pdfrwt beam="2">  1        1 0.36148291E-01 0.13206986E+03</pdfrwt>
<totfact> 0.33288390E+05</totfact>
</mgrwt>
</event>
<event>
 6    2  0.1674964E-002  0.1383965E+03  0.7546771E-02  0.1215503E+00
         21   -1    0    0  502  503  0.00000000000E+00  0.00000000000E+00  0.59661729407E+01  0.59661729407E+01  0.00000000000E+00 0. -1.
          2   -1    0    0  503    0 -0.00000000000E+00 -0.00000000000E+00 -0.24665299004E+04  0.24665299004E+04  0.00000000000E+00 0.  1.
         25    2    1    2    0    0  0.57983129963E+02  0.12915504669E+02 -0.87998597126E+03  0.89080239344E+03  0.12499896374E+03 0.  0.
          5    1    3    3  501    0  0.59517192318E+02  0.60693781502E+02 -0.43282666060E+03  0.44109518182E+03  0.10000000000E+00 0. -1.
         -5    1    3    3    0  501 -0.15340623546E+01 -0.47778276833E+02 -0.44715931066E+03  0.44970721163E+03  0.10000000000E+00 0. -1.
          2    1    1    2  502    0 -0.57983129963E+02 -0.12915504669E+02 -0.15805777562E+04  0.15816936799E+04  0.00000000000E+00 0.  1.
<mgrwt>
<rscale>  1 0.13839651E+03</rscale>
<asrwt>0</asrwt>
<pdfrwt beam="1">  1       21 0.91787458E-03 0.13839651E+03</pdfrwt>
<pdfrwt beam="2">  1        2 0.37946538E+00 0.13839651E+03</pdfrwt>
<totfact> 0.23623917E+05</totfact>
</mgrwt>
</event>
<event>
 6    2  0.1674964E-002  0.1271950E+03  0.7546771E-02  0.1231678E+00
          3   -1    0    0  503    0 -0.00000000000E+00  0.00000000000E+00  0.24076556825E+03  0.24076556825E+03  0.00000000000E+00 0.  1.
         21   -1    0    0  502  503  0.00000000000E+00 -0.00000000000E+00 -0.10438628186E+04  0.10438628186E+04  0.00000000000E+00 0. -1.
         25    2    1    2    0    0 -0.23225345148E+02  0.37367129629E+01 -0.10394019550E+04  0.10471556661E+04  0.12500074098E+03 0.  0.
          5    1    3    3  501    0  0.44213685539E+02  0.30369939007E+02 -0.37691748979E+03  0.38071509991E+03  0.10000000000E+00 0.  1.
         -5    1    3    3    0  501 -0.67439030687E+02 -0.26633226044E+02 -0.66248446523E+03  0.66644056619E+03  0.10000000000E+00 0.  1.
          3    1    1    2  502    0  0.23225345148E+02 -0.37367129629E+01  0.23630470464E+03  0.23747272078E+03  0.00000000000E+00 0.  1.
<mgrwt>
<rscale>  1 0.12719499E+03</rscale>
<asrwt>0</asrwt>
<pdfrwt beam="1">  1       21 0.16059428E+00 0.12719499E+03</pdfrwt>
<pdfrwt beam="2">  1        3 0.37040857E-01 0.12719499E+03</pdfrwt>
<totfact> 0.91944655E+01</totfact>
</mgrwt>
</event>
<event>
 6    2  0.1674964E-002  0.1413999E+03  0.7546771E-02  0.1211458E+00
          1   -1    0    0  503    0 -0.00000000000E+00  0.00000000000E+00  0.36492079483E+03  0.36492079483E+03  0.00000000000E+00 0. -1.
         21   -1    0    0  502  503  0.00000000000E+00 -0.00000000000E+00 -0.41071929936E+02  0.41071929936E+02  0.00000000000E+00 0. -1.
         25    2    1    2    0    0 -0.36349997258E+02 -0.55209991815E+02  0.10158472174E+03  0.17410737631E+03  0.12499782917E+03 0.  0.
          5    1    3    3  501    0 -0.30335502041E+02  0.18982923848E+02 -0.12483508759E+02  0.37900423122E+02  0.10000000000E+00 0. -1.
         -5    1    3    3    0  501 -0.60144952167E+01 -0.74192915663E+02  0.11406823050E+03  0.13620695319E+03  0.10000000000E+00 0. -1.
          1    1    1    2  502    0  0.36349997258E+02  0.55209991815E+02  0.22226414315E+03  0.23188534846E+03  0.00000000000E+00 0. -1.
<mgrwt>
<rscale>  1 0.14139987E+03</rscale>
<asrwt>0</asrwt>
<pdfrwt beam="1">  1       21 0.63187587E-02 0.14139987E+03</pdfrwt>
<pdfrwt beam="2">  1        1 0.56141658E-01 0.14139987E+03</pdfrwt>
<totfact> 0.13387748E+05</totfact>
</mgrwt>
</event>
<event>
 6    2  0.1674964E-002  0.1274548E+03  0.7546771E-02  0.1231282E+00
         21   -1    0    0  502  503  0.00000000000E+00  0.00000000000E+00  0.24421119088E+03  0.24421119088E+03  0.00000000000E+00 0.  1.
          1   -1    0    0  503    0 -0.00000000000E+00 -0.00000000000E+00 -0.47025998657E+02  0.47025998657E+02  0.00000000000E+00 0. -1.
         25    2    1    2    0    0  0.16243156644E+02  0.18856522364E+02  0.22206750847E+03  0.25604431760E+03  0.12500122272E+03 0.  0.
          5    1    3    3  501    0  0.53507507402E+02 -0.29857467694E+02  0.76012202695E+02  0.97633942274E+02  0.10000000000E+00 0.  1.
         -5    1    3    3    0  501 -0.37264350757E+02  0.48713990058E+02  0.14605530577E+03  0.15841037532E+03  0.10000000000E+00 0.  1.
          1    1    1    2  502    0 -0.16243156644E+02 -0.18856522364E+02 -0.24882316248E+02  0.35192871939E+02  0.00000000000E+00 0. -1.
<mgrwt>
<rscale>  1 0.12745475E+03</rscale>
<asrwt>0</asrwt>
<pdfrwt beam="1">  1       21 0.37570952E-01 0.12745475E+03</pdfrwt>
<pdfrwt beam="2">  1        1 0.72347691E-02 0.12745475E+03</pdfrwt>
<totfact> 0.71342382E+04</totfact>
</mgrwt>
</event>
<event>
 6    2  0.1674964E-002  0.1459162E+03  0.7546771E-02  0.1205583E+00
          2   -1    0    0  503    0 -0.00000000000E+00  0.00000000000E+00  0.16712183503E+04  0.16712183503E+04  0.00000000000E+00 0. -1.
         21   -1    0    0  502  503  0.00000000000E+00 -0.00000000000E+00 -0.12245251851E+03  0.12245251851E+03  0.00000000000E+00 0. -1.
         25    2    1    2    0    0 -0.53389803592E+02  0.53019494785E+02 -0.77802931273E+02  0.16536270419E+03  0.12501995788E+03 0.  0.
          5    1    3    3  501    0 -0.40654276551E+02  0.49594917363E+02 -0.11180606845E+03  0.12889155509E+03  0.10000000000E+00 0. -1.
         -5    1    3    3    0  501 -0.12735527041E+02  0.34245774221E+01  0.34003137177E+02  0.36471149110E+02  0.10000000000E+00 0. -1.
          2    1    1    2  502    0  0.53389803592E+02 -0.53019494785E+02  0.16265687631E+04  0.16283081646E+04  0.00000000000E+00 0. -1.
<mgrwt>
<rscale>  1 0.14591617E+03</rscale>
<asrwt>0</asrwt>
<pdfrwt beam="1">  1       21 0.18838850E-01 0.14591617E+03</pdfrwt>
<pdfrwt beam="2">  1        2 0.25711050E+00 0.14591617E+03</pdfrwt>
<totfact> 0.37805170E+03</totfact>
</mgrwt>
</event>
<event>
 6    2  0.1674964E-002  0.1480875E+03  0.7546771E-02  0.1202843E+00
         21   -1    0    0  502  503  0.00000000000E+00  0.00000000000E+00  0.53802947142E+02  0.53802947142E+02  0.00000000000E+00 0.  1.
          2   -1    0    0  503    0 -0.00000000000E+00 -0.00000000000E+00 -0.14561110129E+04  0.14561110129E+04  0.00000000000E+00 0. -1.
         25    2    1    2    0    0  0.78004697317E+02  0.14850542180E+02 -0.51519303905E+02  0.15679328894E+03  0.12499850150E+03 0.  0.
          5    1    3    3  501    0  0.27859851722E+02  0.68034242325E+02 -0.36865393322E+02  0.82242912713E+02  0.10000000000E+00 0. -1.
         -5    1    3    3    0  501  0.50144845594E+02 -0.53183700145E+02 -0.14653910583E+02  0.74550376231E+02  0.10000000000E+00 0. -1.
          2    1    1    2  502    0 -0.78004697317E+02 -0.14850542180E+02 -0.13507887619E+04  0.13531206711E+04  0.00000000000E+00 0. -1.
<mgrwt>
<rscale>  1 0.14808746E+03</rscale>
<asrwt>0</asrwt>
<pdfrwt beam="1">  1       21 0.82773752E-02 0.14808746E+03</pdfrwt>
<pdfrwt beam="2">  1        2 0.22401711E+00 0.14808746E+03</pdfrwt>
<totfact> 0.21201685E+04</totfact>
</mgrwt>
</event>
<event>
 6    2  0.1674964E-002  0.1500704E+03  0.7546771E-02  0.1200387E+00
          4   -1    0    0  503    0 -0.00000000000E+00  0.00000000000E+00  0.26116016943E+03  0.26116016943E+03  0.00000000000E+00 0.  1.
         21   -1    0    0  502  503  0.00000000000E+00 -0.00000000000E+00 -0.53591496199E+02  0.53591496199E+02  0.00000000000E+00 0.  1.
         25    2    1    2    0    0 -0.59035611898E+02  0.58407315381E+02  0.10691172966E+03  0.18425860738E+03  0.12499799396E+03 0.  0.
          5    1    3    3  501    0 -0.55963551132E+02  0.70271882325E+02  0.13005844044E+03  0.15806727818E+03  0.10000000000E+00 0. -1.
         -5    1    3    3    0  501 -0.30720607658E+01 -0.11864566943E+02 -0.23146710773E+02  0.26191329208E+02  0.10000000000E+00 0. -1.
          4    1    1    2  502    0  0.59035611898E+02 -0.58407315381E+02  0.10065694357E+03  0.13049305825E+03  0.00000000000E+00 0.  1.
<mgrwt>
<rscale>  1 0.15007037E+03</rscale>
<asrwt>0</asrwt>
<pdfrwt beam="1">  1       21 0.82448457E-02 0.15007037E+03</pdfrwt>
<pdfrwt beam="2">  1        4 0.40178487E-01 0.15007037E+03</pdfrwt>
<totfact> 0.28182244E+04</totfact>
</mgrwt>
</event>
<event>
 6    2  0.1674964E-002  0.1263199E+03  0.7546771E-02  0.1233021E+00
          2   -1    0    0  503    0 -0.00000000000E+00  0.00000000000E+00  0.12969962902E+03  0.12969962902E+03  0.00000000000E+00 0. -1.
         21   -1    0    0  502  503  0.00000000000E+00 -0.00000000000E+00 -0.50717450776E+03  0.50717450776E+03  0.00000000000E+00 0. -1.
         25    2    1    2    0    0  0.17600844291E+02  0.47496516968E+01 -0.49861638528E+03  0.51436857154E+03  0.12499751521E+03 0.  0.
          5    1    3    3  501    0 -0.40124046573E+02  0.39959030710E+02 -0.27424628755E+03  0.28003160444E+03  0.10000000000E+00 0.  1.
         -5    1    3    3    0  501  0.57724890865E+02 -0.35209379013E+02 -0.22437009773E+03  0.23433696710E+03  0.10000000000E+00 0.  1.
          2    1    1    2  502    0 -0.17600844291E+02 -0.47496516968E+01  0.12114150654E+03  0.12250556525E+03  0.00000000000E+00 0. -1.
<mgrwt>
<rscale>  1 0.12631994E+03</rscale>
<asrwt>0</asrwt>
<pdfrwt beam="1">  1       21 0.78026849E-01 0.12631994E+03</pdfrwt>
<pdfrwt beam="2">  1        2 0.19953789E-01 0.12631994E+03</pdfrwt>
<totfact> 0.50608382E+03</totfact>
</mgrwt>
</event>
<event>
 6    2  0.1674964E-002  0.1328108E+03  0.7546771E-02  0.1223344E+00
          2   -1    0    0  503    0 -0.00000000000E+00  0.00000000000E+00  0.10800925046E+04  0.10800925046E+04  0.00000000000E+00 0.  1.
         21   -1    0    0  502  503  0.00000000000E+00 -0.00000000000E+00 -0.77790837983E+02  0.77790837983E+02  0.00000000000E+00 0.  1.
         25    2    1    2    0    0 -0.44802380583E+02  0.21619982058E+01 -0.20252278112E+02  0.13434609489E+03  0.12500716340E+03 0.  0.
          5    1    3    3  501    0 -0.30297473643E+01  0.28423646840E+02 -0.62923622581E+02  0.69112049221E+02  0.10000000000E+00 0. -1.
         -5    1    3    3    0  501 -0.41772633218E+02 -0.26261648635E+02  0.42671344469E+02  0.65234045665E+02  0.10000000000E+00 0. -1.
          2    1    1    2  502    0  0.44802380583E+02 -0.21619982058E+01  0.10225539447E+04  0.10235372477E+04  0.00000000000E+00 0.  1.
<mgrwt>
<rscale>  1 0.13281084E+03</rscale>
<asrwt>0</asrwt>
<pdfrwt beam="1">  1       21 0.11967822E-01 0.13281084E+03</pdfrwt>
<pdfrwt beam="2">  1        2 0.16616807E+00 0.13281084E+03</pdfrwt>
<totfact> 0.17905791E+04</totfact>
</mgrwt>
</event>
<event>
 6    2  0.1674964E-002  0.1523428E+03  0.7546771E-02  0.1197623E+00
         21   -1    0    0  502  503  0.00000000000E+00  0.00000000000E+00  0.37133738115E+02  0.37133738115E+02  0.00000000000E+00 0. -1.
          2   -1    0    0  503    0 -0.00000000000E+00 -0.00000000000E+00 -0.62344330239E+03  0.62344330239E+03  0.00000000000E+00 0. -1.
         25    2    1    2    0    0 -0.50693442410E+02  0.70811285599E+02 -0.14350258598E+03  0.20928768400E+03  0.12499711684E+03 0.  0.
          5    1    3    3  501    0 -0.82156731437E+02  0.59681440093E+02 -0.14364509790E+03  0.17591340757E+03  0.10000000000E+00 0.  1.
         -5    1    3    3    0  501  0.31463289027E+02  0.11129845505E+02  0.14251192041E+00  0.33374276427E+02  0.10000000000E+00 0.  1.
          2    1    1    2  502    0  0.50693442410E+02 -0.70811285599E+02 -0.44280697829E+03  0.45128935650E+03  0.00000000000E+00 0. -1.
<mgrwt>
<rscale>  1 0.15234285E+03</rscale>
<asrwt>0</asrwt>
<pdfrwt beam="1">  1       21 0.57128832E-02 0.15234285E+03</pdfrwt>
<pdfrwt beam="2">  1        2 0.95914348E-01 0.15234285E+03</pdfrwt>
<totfact> 0.12957133E+05</totfact>
</mgrwt>
</event>
<event>
 6    2  0.1674964E-002  0.1261528E+03  0.7546771E-02  0.1233279E+00
          1   -1    0    0  503    0 -0.00000000000E+00  0.00000000000E+00  0.40610458187E+03  0.40610458187E+03  0.00000000000E+00 0. -1.
         21   -1    0    0  502  503  0.00000000000E+00 -0.00000000000E+00 -0.28724553058E+02  0.28724553058E+02  0.00000000000E+00 0.  1.
         25    2    1    2    0    0 -0.15944259732E+02 -0.59057188676E+01  0.11137801433E+03  0.16828426321E+03  0.12500173692E+03 0.  0.
          5    1    3    3  501    0  0.17825382900E+02 -0.42245263938E+02  0.10941865231E+03  0.11863750703E+03  0.10000000000E+00 0.  1.
         -5    1    3    3    0  501 -0.33769642632E+02  0.36339545071E+02  0.19593620219E+01  0.49646756177E+02  0.10000000000E+00 0.  1.
          1    1    1    2  502    0  0.15944259732E+02  0.59057188676E+01  0.26600201448E+03  0.26654487172E+03  0.00000000000E+00 0. -1.
<mgrwt>
<rscale>  1 0.12615281E+03</rscale>
<asrwt>0</asrwt>
<pdfrwt beam="1">  1       21 0.44191623E-02 0.12615281E+03</pdfrwt>
<pdfrwt beam="2">  1        1 0.62477624E-01 0.12615281E+03</pdfrwt>
<totfact> 0.21285186E+05</totfact>
</mgrwt>
</event>
<event>
 6    2  0.1674964E-002  0.1324931E+03  0.7546771E-02  0.1223803E+00
          1   -1    0    0  503    0 -0.00000000000E+00  0.00000000000E+00  0.13201142619E+04  0.13201142619E+04  0.00000000000E+00 0. -1.
         21   -1    0    0  502  503  0.00000000000E+00 -0.00000000000E+00 -0.18431701181E+02  0.18431701181E+02  0.00000000000E+00 0.  1.
         25    2    1    2    0    0  0.18987482614E+01  0.43780689563E+02  0.22602140501E+03  0.26199253852E+03  0.12503623753E+03 0.  0.
          5    1    3    3  501    0 -0.52819468976E+02  0.87828173140E+01  0.16268747344E+03  0.17127246771E+03  0.10000000000E+00 0. -1.
         -5    1    3    3    0  501  0.54718217237E+02  0.34997872249E+02  0.63333931572E+02  0.90720070811E+02  0.10000000000E+00 0. -1.
          1    1    1    2  502    0 -0.18987482614E+01 -0.43780689563E+02  0.10756611557E+04  0.10765534245E+04  0.00000000000E+00 0. -1.
<mgrwt>
<rscale>  1 0.13249307E+03</rscale>
<asrwt>0</asrwt>
<pdfrwt beam="1">  1       21 0.28356474E-02 0.13249307E+03</pdfrwt>
<pdfrwt beam="2">  1        1 0.20309443E+00 0.13249307E+03</pdfrwt>
<totfact> 0.74594077E+04</totfact>
</mgrwt>
</event>
<event>
 6    2  0.1674964E-002  0.1261571E+03  0.7546771E-02  0.1233272E+00
         21   -1    0    0  502  503  0.00000000000E+00  0.00000000000E+00  0.53419942685E+02  0.53419942685E+02  0.00000000000E+00 0. -1.
          2   -1    0    0  503    0 -0.00000000000E+00 -0.00000000000E+00 -0.37372756892E+03  0.37372756892E+03  0.00000000000E+00 0.  1.
         25    2    1    2    0    0  0.11186037741E+02  0.12916729730E+02 -0.21649833600E+02  0.12800131583E+03  0.12499460873E+03 0.  0.
          5    1    3    3  501    0  0.43551944027E+02  0.55973862577E+02 -0.21593478015E+02  0.74135911764E+02  0.10000000000E+00 0. -1.
         -5    1    3    3    0  501 -0.32365906286E+02 -0.43057132847E+02 -0.56355584376E-01  0.53865404061E+02  0.10000000000E+00 0. -1.
          2    1    1    2  502    0 -0.11186037741E+02 -0.12916729730E+02 -0.29865779264E+03  0.29914619578E+03  0.00000000000E+00 0.  1.
<mgrwt>
<rscale>  1 0.12615713E+03</rscale>
<asrwt>0</asrwt>
<pdfrwt beam="1">  1       21 0.82184529E-02 0.12615713E+03</pdfrwt>
<pdfrwt beam="2">  1        2 0.57496548E-01 0.12615713E+03</pdfrwt>
<totfact> 0.12124558E+05</totfact>
</mgrwt>
</event>
<event>
 6    2  0.1674964E-002  0.1295850E+03  0.7546771E-02  0.1228073E+00
          2   -1    0    0  503    0 -0.00000000000E+00  0.00000000000E+00  0.20371148737E+03  0.20371148737E+03  0.00000000000E+00 0.  1.
         21   -1    0    0  502  503  0.00000000000E+00 -0.00000000000E+00 -0.33277450363E+02  0.33277450363E+02  0.00000000000E+00 0.  1.
         25    2    1    2    0    0 -0.28338447252E+02 -0.19151811296E+02  0.12433392955E+03  0.17958615578E+03  0.12498960694E+03 0.  0.
          5    1    3    3  501    0 -0.38007917965E+02  0.10518333571E+02  0.13944465724E+03  0.14491397311E+03  0.10000000000E+00 0.  1.
         -5    1    3    3    0  501  0.96694707127E+01 -0.29670144867E+02 -0.15110727686E+02  0.34672182675E+02  0.10000000000E+00 0.  1.
          2    1    1    2  502    0  0.28338447252E+02  0.19151811296E+02  0.46100107458E+02  0.57402781956E+02  0.00000000000E+00 0.  1.
<mgrwt>
<rscale>  1 0.12958496E+03</rscale>
<asrwt>0</asrwt>
<pdfrwt beam="1">  1       21 0.51196079E-02 0.12958496E+03</pdfrwt>
<pdfrwt beam="2">  1        2 0.31340228E-01 0.12958496E+03</pdfrwt>
<totfact> 0.51819466E+05</totfact>
</mgrwt>
</event>
<event>
 6    2  0.1674964E-002  0.2243932E+03  0.7546771E-02  0.1130649E+00
          2   -1    0    0  503    0 -0.00000000000E+00  0.00000000000E+00  0.15894326141E+04  0.15894326141E+04  0.00000000000E+00 0. -1.
         21   -1    0    0  502  503  0.00000000000E+00 -0.00000000000E+00 -0.26853091654E+02  0.26853091654E+02  0.00000000000E+00 0. -1.
         25    2    1    2    0    0 -0.18576220810E+03  0.14881080236E+02  0.76549924014E+03  0.79771010084E+03  0.12499309513E+03 0.  0.
          5    1    3    3  501    0  0.10586447009E+02 -0.93961436096E+01  0.16181848465E+03  0.16243642556E+03  0.10000000000E+00 0. -1.
         -5    1    3    3    0  501 -0.19634865511E+03  0.24277223846E+02  0.60368075549E+03  0.63527367528E+03  0.10000000000E+00 0. -1.
          2    1    1    2  502    0  0.18576220810E+03 -0.14881080236E+02  0.79708028228E+03  0.81857560488E+03  0.00000000000E+00 0. -1.
<mgrwt>
<rscale>  1 0.22439322E+03</rscale>
<asrwt>0</asrwt>
<pdfrwt beam="1">  1       21 0.41312461E-02 0.22439322E+03</pdfrwt>
<pdfrwt beam="2">  1        2 0.24452802E+00 0.22439322E+03</pdfrwt>
<totfact> 0.58126193E+04</totfact>
</mgrwt>
</event>
<event>
 6    2  0.1674964E-002  0.1287500E+03  0.7546771E-02  0.1229322E+00
         21   -1    0    0  502  503  0.00000000000E+00  0.00000000000E+00  0.57504526803E+01  0.57504526803E+01  0.00000000000E+00 0.  1.
          1   -1    0    0  503    0 -0.00000000000E+00 -0.00000000000E+00 -0.17703361218E+04  0.17703361218E+04  0.00000000000E+00 0.  1.
         25    2    1    2    0    0 -0.10334963788E+02  0.29016418923E+02 -0.74553904432E+03  0.75657454043E+03  0.12501121785E+03 0.  0.
          5    1    3    3  501    0  0.37767143803E+02  0.45217072594E+02 -0.59065017452E+03  0.59358114817E+03  0.10000000000E+00 0. -1.
         -5    1    3    3    0  501 -0.48102107590E+02 -0.16200653671E+02 -0.15488886980E+03  0.16299339226E+03  0.10000000000E+00 0. -1.
          1    1    1    2  502    0  0.10334963788E+02 -0.29016418923E+02 -0.10190466248E+04  0.10195120341E+04  0.00000000000E+00 0.  1.
<mgrwt>
<rscale>  1 0.12875002E+03</rscale>
<asrwt>0</asrwt>
<pdfrwt beam="1">  1       21 0.88468483E-03 0.12875002E+03</pdfrwt>
<pdfrwt beam="2">  1        1 0.27235946E+00 0.12875002E+03</pdfrwt>
<totfact> 0.24645580E+05</totfact>
</mgrwt>
</event>
<event>
 6    2  0.1674964E-002  0.1466473E+03  0.7546771E-02  0.1204654E+00
          1   -1    0    0  503    0 -0.00000000000E+00  0.00000000000E+00  0.19250762771E+04  0.19250762771E+04  0.00000000000E+00 0. -1.
         21   -1    0    0  502  503  0.00000000000E+00 -0.00000000000E+00 -0.12605723020E+02  0.12605723020E+02  0.00000000000E+00 0. -1.
         25    2    1    2    0    0 -0.49105265561E+02 -0.58901682335E+02  0.45188537769E+03  0.47508506563E+03  0.12499875890E+03 0.  0.
          5    1    3    3  501    0  0.21881457535E+02 -0.70590329731E+02  0.25373322150E+03  0.26427703367E+03  0.10000000000E+00 0.  1.
         -5    1    3    3    0  501 -0.70986723096E+02  0.11688647396E+02  0.19815215619E+03  0.21080803195E+03  0.10000000000E+00 0.  1.
          1    1    1    2  502    0  0.49105265561E+02  0.58901682335E+02  0.14605851763E+04  0.14625969344E+04  0.00000000000E+00 0. -1.
<mgrwt>
<rscale>  1 0.14664728E+03</rscale>
<asrwt>0</asrwt>
<pdfrwt beam="1">  1       21 0.19393435E-02 0.14664728E+03</pdfrwt>
<pdfrwt beam="2">  1        1 0.29616535E+00 0.14664728E+03</pdfrwt>
<totfact> 0.56289602E+04</totfact>
</mgrwt>
</event>
<event>
 6    2  0.1674964E-002  0.1276935E+03  0.7546771E-02  0.1230919E+00
          2   -1    0    0  503    0 -0.00000000000E+00  0.00000000000E+00  0.34171760006E+03  0.34171760006E+03  0.00000000000E+00 0.  1.
         21   -1    0    0  502  503  0.00000000000E+00 -0.00000000000E+00 -0.24655636257E+03  0.24655636257E+03  0.00000000000E+00 0. -1.
         25    2    1    2    0    0  0.25810047591E+02 -0.38116006942E+01 -0.22946444859E+03  0.26260154605E+03  0.12499980785E+03 0.  0.
          5    1    3    3  501    0 -0.34032472621E+02 -0.30489437393E+02 -0.16295582725E+03  0.16924073570E+03  0.10000000000E+00 0. -1.
         -5    1    3    3    0  501  0.59842520212E+02  0.26677836698E+02 -0.66508621338E+02  0.93360810347E+02  0.10000000000E+00 0. -1.
          2    1    1    2  502    0 -0.25810047591E+02  0.38116006942E+01  0.32462568608E+03  0.32567241658E+03  0.00000000000E+00 0.  1.
<mgrwt>
<rscale>  1 0.12769353E+03</rscale>
<asrwt>0</asrwt>
<pdfrwt beam="1">  1       21 0.37931748E-01 0.12769353E+03</pdfrwt>
<pdfrwt beam="2">  1        2 0.52571939E-01 0.12769353E+03</pdfrwt>
<totfact> 0.80399850E+03</totfact>
</mgrwt>
</event>
<event>
 6    2  0.1674964E-002  0.1290951E+03  0.7546771E-02  0.1228805E+00
          1   -1    0    0  503    0 -0.00000000000E+00  0.00000000000E+00  0.49339466867E+03  0.49339466867E+03  0.00000000000E+00 0.  1.
         21   -1    0    0  502  503  0.00000000000E+00 -0.00000000000E+00 -0.65672747203E+02  0.65672747203E+02  0.00000000000E+00 0. -1.
         25    2    1    2    0    0  0.24228548168E+02 -0.21298764400E+02 -0.10343398429E+01  0.12909928738E+03  0.12499958492E+03 0.  0.
          5    1    3    3  501    0 -0.85419367773E+01  0.17652124413E+02  0.52008636517E+02  0.55583005070E+02  0.10000000000E+00 0. -1.
         -5    1    3    3    0  501  0.32770484946E+02 -0.38950888814E+02 -0.53042976360E+02  0.73516282306E+02  0.10000000000E+00 0. -1.
          1    1    1    2  502    0 -0.24228548168E+02  0.21298764400E+02  0.42875626131E+03  0.42996812850E+03  0.00000000000E+00 0.  1.
<mgrwt>
<rscale>  1 0.12909514E+03</rscale>
<asrwt>0</asrwt>
<pdfrwt beam="1">  1       21 0.10103500E-01 0.12909514E+03</pdfrwt>
<pdfrwt beam="2">  1        1 0.75906870E-01 0.12909514E+03</pdfrwt>
<totfact> 0.40493812E+04</totfact>
</mgrwt>
</event>
<event>
 6    2  0.1674964E-002  0.1329559E+03  0.7546771E-02  0.1223134E+00
         21   -1    0    0  502  503  0.00000000000E+00  0.00000000000E+00  0.41137198152E+01  0.41137198152E+01  0.00000000000E+00 0. -1.
          2   -1    0    0  503    0 -0.00000000000E+00 -0.00000000000E+00 -0.22735306068E+04  0.22735306068E+04  0.00000000000E+00 0. -1.
         25    2    1    2    0    0  0.41234501562E+02 -0.18740034080E+02 -0.12145734118E+04  0.12218288929E+04  0.12500319117E+03 0.  0.
          5    1    3    3  501    0  0.78336968949E+02  0.96144365499E+00 -0.10072578044E+04  0.10102999058E+04  0.10000000000E+00 0.  1.
         -5    1    3    3    0  501 -0.37102467387E+02 -0.19701477735E+02 -0.20731560745E+03  0.21152898714E+03  0.10000000000E+00 0.  1.
          2    1    1    2  502    0 -0.41234501562E+02  0.18740034080E+02 -0.10548434752E+04  0.10558154337E+04  0.00000000000E+00 0. -1.
<mgrwt>
<rscale>  1 0.13295590E+03</rscale>
<asrwt>0</asrwt>
<pdfrwt beam="1">  1       21 0.63287892E-03 0.13295590E+03</pdfrwt>
<pdfrwt beam="2">  1        2 0.34977452E+00 0.13295590E+03</pdfrwt>
<totfact> 0.53389114E+05</totfact>
</mgrwt>
</event>
<event>
 6    2  0.1674964E-002  0.1377377E+03  0.7546771E-02  0.1216406E+00
          2   -1    0    0  503    0 -0.00000000000E+00  0.00000000000E+00  0.73775008960E+02  0.73775008960E+02  0.00000000000E+00 0. -1.
         21   -1    0    0  502  503  0.00000000000E+00 -0.00000000000E+00 -0.13575477479E+04  0.13575477479E+04  0.00000000000E+00 0.  1.
         25    2    1    2    0    0 -0.57834085274E+02 -0.13544467501E+01 -0.13421134800E+04  0.13491628030E+04  0.12500023996E+03 0.  0.
          5    1    3    3  501    0 -0.87963392059E+02 -0.24583285476E+02 -0.70151972102E+03  0.70744033335E+03  0.10000000000E+00 0. -1.
         -5    1    3    3    0  501  0.30129306785E+02  0.23228838726E+02 -0.64059375897E+03  0.64172246969E+03  0.10000000000E+00 0. -1.
          2    1    1    2  502    0  0.57834085274E+02  0.13544467501E+01  0.58340741050E+02  0.82159953820E+02  0.00000000000E+00 0. -1.
<mgrwt>
<rscale>  1 0.13773771E+03</rscale>
<asrwt>0</asrwt>
<pdfrwt beam="1">  1       21 0.20885347E+00 0.13773771E+03</pdfrwt>
<pdfrwt beam="2">  1        2 0.11350003E-01 0.13773771E+03</pdfrwt>
<totfact> 0.81709144E+02</totfact>
</mgrwt>
</event>
<event>
 6    2  0.1674964E-002  0.1505898E+03  0.7546771E-02  0.1199750E+00
          2   -1    0    0  503    0 -0.00000000000E+00  0.00000000000E+00  0.12143936290E+03  0.12143936290E+03  0.00000000000E+00 0.  1.
         21   -1    0    0  502  503  0.00000000000E+00 -0.00000000000E+00 -0.25426408085E+03  0.25426408085E+03  0.00000000000E+00 0.  1.
         25    2    1    2    0    0  0.42728099806E+02 -0.72271102488E+02 -0.21217372234E+03  0.26018259167E+03  0.12501395836E+03 0.  0.
          5    1    3    3  501    0 -0.11643498436E+02 -0.71925226832E+02 -0.48030715755E+02  0.87268373232E+02  0.10000000000E+00 0. -1.
         -5    1    3    3    0  501  0.54371598242E+02 -0.34587565619E+00 -0.16414300659E+03  0.17291421844E+03  0.10000000000E+00 0. -1.
          2    1    1    2  502    0 -0.42728099806E+02  0.72271102488E+02  0.79349004391E+02  0.11552085208E+03  0.00000000000E+00 0.  1.
<mgrwt>
<rscale>  1 0.15058982E+03</rscale>
<asrwt>0</asrwt>
<pdfrwt beam="1">  1       21 0.39117550E-01 0.15058982E+03</pdfrwt>
<pdfrwt beam="2">  1        2 0.18682979E-01 0.15058982E+03</pdfrwt>
<totfact> 0.23204905E+04</totfact>
</mgrwt>
</event>
<event>
 6    2  0.1674964E-002  0.1342711E+03  0.7546771E-02  0.1221252E+00
          1   -1    0    0  503    0 -0.00000000000E+00  0.00000000000E+00  0.19696720312E+04  0.19696720312E+04  0.00000000000E+00 0. -1.
         21   -1    0    0  502  503  0.00000000000E+00 -0.00000000000E+00 -0.68538187387E+01  0.68538187387E+01  0.00000000000E+00 0. -1.
         25    2    1    2    0    0  0.42818572352E+02 -0.23876175804E+02  0.18304900681E+04  0.18354080279E+04  0.12500095009E+03 0.  0.
          5    1    3    3  501    0  0.19627782942E+02 -0.61526497766E+02  0.15592698789E+04  0.15606067169E+04  0.10000000000E+00 0. -1.
         -5    1    3    3    0  501  0.23190789410E+02  0.37650321963E+02  0.27122018926E+03  0.27480131099E+03  0.10000000000E+00 0. -1.
          1    1    1    2  502    0 -0.42818572352E+02  0.23876175804E+02  0.13232814435E+03  0.14111782204E+03  0.00000000000E+00 0. -1.
<mgrwt>
<rscale>  1 0.13427114E+03</rscale>
<asrwt>0</asrwt>
<pdfrwt beam="1">  1       21 0.10544352E-02 0.13427114E+03</pdfrwt>
<pdfrwt beam="2">  1        1 0.30302601E+00 0.13427114E+03</pdfrwt>
<totfact> 0.13972541E+05</totfact>
</mgrwt>
</event>
<event>
 6    2  0.1674964E-002  0.1273607E+03  0.7546771E-02  0.1231425E+00
         21   -1    0    0  502  503  0.00000000000E+00  0.00000000000E+00  0.23883099613E+02  0.23883099613E+02  0.00000000000E+00 0.  1.
          1   -1    0    0  503    0 -0.00000000000E+00 -0.00000000000E+00 -0.41142955581E+03  0.41142955581E+03  0.00000000000E+00 0. -1.
         25    2    1    2    0    0 -0.23391148122E+02 -0.69316383072E+01 -0.15112081120E+03  0.19763161067E+03  0.12500224214E+03 0.  0.
          5    1    3    3  501    0 -0.33523260986E+02 -0.18127138518E+02 -0.16956484481E+03  0.17379484680E+03  0.10000000000E+00 0.  1.
         -5    1    3    3    0  501  0.10132112865E+02  0.11195500211E+02  0.18444033613E+02  0.23836763874E+02  0.10000000000E+00 0.  1.
          1    1    1    2  502    0  0.23391148122E+02  0.69316383072E+01 -0.23642564500E+03  0.23768104476E+03  0.00000000000E+00 0. -1.
<mgrwt>
<rscale>  1 0.12736072E+03</rscale>
<asrwt>0</asrwt>
<pdfrwt beam="1">  1       21 0.36743230E-02 0.12736072E+03</pdfrwt>
<pdfrwt beam="2">  1        1 0.63296855E-01 0.12736072E+03</pdfrwt>
<totfact> 0.28465837E+05</totfact>
</mgrwt>
</event>
<event>
 6    2  0.1674964E-002  0.1263434E+03  0.7546771E-02  0.1232985E+00
         21   -1    0    0  502  503  0.00000000000E+00  0.00000000000E+00  0.15704601796E+02  0.15704601796E+02  0.00000000000E+00 0.  1.
          2   -1    0    0  503    0 -0.00000000000E+00 -0.00000000000E+00 -0.11355726727E+04  0.11355726727E+04  0.00000000000E+00 0.  1.
         25    2    1    2    0    0 -0.57552305813E+01 -0.17431489933E+02 -0.24005766219E+03  0.27127537972E+03  0.12500268377E+03 0.  0.
          5    1    3    3  501    0  0.26075954613E+02 -0.17623424044E+02 -0.24754767191E+01  0.31570214903E+02  0.10000000000E+00 0. -1.
         -5    1    3    3    0  501 -0.31831185194E+02  0.19193411095E+00 -0.23758218547E+03  0.23970516482E+03  0.10000000000E+00 0. -1.
          2    1    1    2  502    0  0.57552305813E+01  0.17431489933E+02 -0.87981040868E+03  0.88000189474E+03  0.00000000000E+00 0.  1.
<mgrwt>
<rscale>  1 0.12634338E+03</rscale>
<asrwt>0</asrwt>
<pdfrwt beam="1">  1       21 0.24160918E-02 0.12634338E+03</pdfrwt>
<pdfrwt beam="2">  1        2 0.17470354E+00 0.12634338E+03</pdfrwt>
<totfact> 0.24883870E+05</totfact>
</mgrwt>
</event>
<event>
 6    2  0.1674964E-002  0.1260645E+03  0.7546771E-02  0.1233415E+00
         21   -1    0    0  502  503  0.00000000000E+00  0.00000000000E+00  0.46107244597E+02  0.46107244597E+02  0.00000000000E+00 0. -1.
          1   -1    0    0  503    0 -0.00000000000E+00 -0.00000000000E+00 -0.16750281775E+03  0.16750281775E+03  0.00000000000E+00 0. -1.
         25    2    1    2    0    0  0.15163271704E+02  0.69237769375E+01 -0.42595667663E+02  0.13306635619E+03  0.12495759581E+03 0.  0.
          5    1    3    3  501    0  0.16379488287E+02 -0.41643182207E+02  0.23886478090E+02  0.50724906076E+02  0.10000000000E+00 0. -1.
         -5    1    3    3    0  501 -0.12162165829E+01  0.48566959144E+02 -0.66482145753E+02  0.82341450116E+02  0.10000000000E+00 0. -1.
          1    1    1    2  502    0 -0.15163271704E+02 -0.69237769375E+01 -0.78799905495E+02  0.80543706159E+02  0.00000000000E+00 0. -1.
<mgrwt>
<rscale>  1 0.12606452E+03</rscale>
<asrwt>0</asrwt>
<pdfrwt beam="1">  1       21 0.70934223E-02 0.12606452E+03</pdfrwt>
<pdfrwt beam="2">  1        1 0.25769664E-01 0.12606452E+03</pdfrwt>
<totfact> 0.28707105E+05</totfact>
</mgrwt>
</event>
<event>
 6    2  0.1674964E-002  0.1323979E+03  0.7546771E-02  0.1223940E+00
          2   -1    0    0  503    0 -0.00000000000E+00  0.00000000000E+00  0.23299216311E+04  0.23299216311E+04  0.00000000000E+00 0.  1.
         21   -1    0    0  502  503  0.00000000000E+00 -0.00000000000E+00 -0.18039612183E+02  0.18039612183E+02  0.00000000000E+00 0. -1.
         25    2    1    2    0    0 -0.43673623613E+02 -0.77166889208E+00  0.22823780974E+03  0.26385923731E+03  0.12498487287E+03 0.  0.
          5    1    3    3  501    0  0.18344866672E+02  0.34351219329E+02  0.20034110078E+02  0.43794017505E+02  0.10000000000E+00 0.  1.
         -5    1    3    3    0  501 -0.62018490285E+02 -0.35122888221E+02  0.20820369966E+03  0.22006521980E+03  0.10000000000E+00 0.  1.
          2    1    1    2  502    0  0.43673623613E+02  0.77166889208E+00  0.20836442092E+04  0.20841020060E+04  0.00000000000E+00 0.  1.
<mgrwt>
<rscale>  1 0.13239788E+03</rscale>
<asrwt>0</asrwt>
<pdfrwt beam="1">  1       21 0.27753268E-02 0.13239788E+03</pdfrwt>
<pdfrwt beam="2">  1        2 0.35844924E+00 0.13239788E+03</pdfrwt>
<totfact> 0.47378420E+04</totfact>
</mgrwt>
</event>
<event>
 6    2  0.1674964E-002  0.1346469E+03  0.7546771E-02  0.1220719E+00
         21   -1    0    0  502  503  0.00000000000E+00  0.00000000000E+00  0.13568584785E+02  0.13568584785E+02  0.00000000000E+00 0.  1.
          2   -1    0    0  503    0 -0.00000000000E+00 -0.00000000000E+00 -0.10353476175E+04  0.10353476175E+04  0.00000000000E+00 0.  1.
         25    2    1    2    0    0 -0.35714208004E+02  0.35059930078E+02 -0.34583759728E+03  0.37112454736E+03  0.12500033044E+03 0.  0.
          5    1    3    3  501    0 -0.17418497373E+02 -0.43515850886E+02 -0.74250074421E+02  0.87807271228E+02  0.10000000000E+00 0. -1.
         -5    1    3    3    0  501 -0.18295710632E+02  0.78575780963E+02 -0.27158752286E+03  0.28331727613E+03  0.10000000000E+00 0. -1.
          2    1    1    2  502    0  0.35714208004E+02 -0.35059930078E+02 -0.67594143545E+03  0.67779165494E+03  0.00000000000E+00 0.  1.
<mgrwt>
<rscale>  1 0.13464689E+03</rscale>
<asrwt>0</asrwt>
<pdfrwt beam="1">  1       21 0.20874749E-02 0.13464689E+03</pdfrwt>
<pdfrwt beam="2">  1        2 0.15928423E+00 0.13464689E+03</pdfrwt>
<totfact> 0.36093315E+05</totfact>
</mgrwt>
</event>
<event>
 6    2  0.1674964E-002  0.1388211E+03  0.7546771E-02  0.1214924E+00
         21   -1    0    0  502  503  0.00000000000E+00  0.00000000000E+00  0.11802899524E+02  0.11802899524E+02  0.00000000000E+00 0.  1.
          2   -1    0    0  503    0 -0.00000000000E+00 -0.00000000000E+00 -0.17349911366E+04  0.17349911366E+04  0.00000000000E+00 0. -1.
         25    2    1    2    0    0  0.12654853145E+02 -0.59052174362E+02 -0.42285568364E+03  0.44505978746E+03  0.12499592244E+03 0.  0.
          5    1    3    3  501    0  0.68990679823E+02 -0.29051230691E+02 -0.21836217332E+03  0.23083703482E+03  0.10000000000E+00 0. -1.
         -5    1    3    3    0  501 -0.56335826678E+02 -0.30000943670E+02 -0.20449351032E+03  0.21422275265E+03  0.10000000000E+00 0. -1.
          2    1    1    2  502    0 -0.12654853145E+02  0.59052174362E+02 -0.13003325534E+04  0.13017342487E+04  0.00000000000E+00 0. -1.
<mgrwt>
<rscale>  1 0.13882105E+03</rscale>
<asrwt>0</asrwt>
<pdfrwt beam="1">  1       21 0.18158315E-02 0.13882105E+03</pdfrwt>
<pdfrwt beam="2">  1        2 0.26692160E+00 0.13882105E+03</pdfrwt>
<totfact> 0.19058960E+05</totfact>
</mgrwt>
</event>
<event>
 6    2  0.1674964E-002  0.1343681E+03  0.7546771E-02  0.1221114E+00
          1   -1    0    0  503    0 -0.00000000000E+00  0.00000000000E+00  0.10966028389E+03  0.10966028389E+03  0.00000000000E+00 0. -1.
         21   -1    0    0  502  503  0.00000000000E+00 -0.00000000000E+00 -0.16270656778E+03  0.16270656778E+03  0.00000000000E+00 0. -1.
         25    2    1    2    0    0 -0.49295265146E+02  0.10306026386E+01 -0.12607319251E+03  0.18425320522E+03  0.12499483372E+03 0.  0.
          5    1    3    3  501    0 -0.83750520714E+02 -0.11989795518E+02 -0.46435349720E+02  0.96509878354E+02  0.10000000000E+00 0.  1.
         -5    1    3    3    0  501  0.34455255568E+02  0.13020398156E+02 -0.79637842795E+02  0.87743326866E+02  0.10000000000E+00 0.  1.
          1    1    1    2  502    0  0.49295265146E+02 -0.10306026386E+01  0.73026908621E+02  0.88113646448E+02  0.00000000000E+00 0. -1.
<mgrwt>
<rscale>  1 0.13436813E+03</rscale>
<asrwt>0</asrwt>
<pdfrwt beam="1">  1       21 0.25031780E-01 0.13436813E+03</pdfrwt>
<pdfrwt beam="2">  1        1 0.16870813E-01 0.13436813E+03</pdfrwt>
<totfact> 0.51440111E+04</totfact>
</mgrwt>
</event>
<event>
 6    2  0.1674964E-002  0.1375037E+03  0.7546771E-02  0.1216728E+00
          2   -1    0    0  503    0 -0.00000000000E+00  0.00000000000E+00  0.10843488402E+04  0.10843488402E+04  0.00000000000E+00 0. -1.
         21   -1    0    0  502  503  0.00000000000E+00 -0.00000000000E+00 -0.96964131243E+01  0.96964131243E+01  0.00000000000E+00 0.  1.
         25    2    1    2    0    0 -0.54289970812E+02  0.18284234243E+02  0.57950264028E+03  0.59559262216E+03  0.12500218928E+03 0.  0.
          5    1    3    3  501    0 -0.59409653884E+02 -0.25403271324E+02  0.50467249745E+03  0.50879187577E+03  0.10000000000E+00 0.  1.
         -5    1    3    3    0  501  0.51196830726E+01  0.43687505567E+02  0.74830142836E+02  0.86800746392E+02  0.10000000000E+00 0.  1.
          2    1    1    2  502    0  0.54289970812E+02 -0.18284234243E+02  0.49514978677E+03  0.49845263114E+03  0.00000000000E+00 0. -1.
<mgrwt>
<rscale>  1 0.13750368E+03</rscale>
<asrwt>0</asrwt>
<pdfrwt beam="1">  1       21 0.14917567E-02 0.13750368E+03</pdfrwt>
<pdfrwt beam="2">  1        2 0.16682280E+00 0.13750368E+03</pdfrwt>
<totfact> 0.58073288E+05</totfact>
</mgrwt>
</event>
<event>
 6    2  0.1674964E-002  0.1330318E+03  0.7546771E-02  0.1223025E+00
          2   -1    0    0  503    0 -0.00000000000E+00  0.00000000000E+00  0.96701101927E+03  0.96701101927E+03  0.00000000000E+00 0. -1.
         21   -1    0    0  502  503  0.00000000000E+00 -0.00000000000E+00 -0.82488975346E+01  0.82488975346E+01  0.00000000000E+00 0. -1.
         25    2    1    2    0    0  0.39375843877E+02  0.22841802970E+02  0.70204220900E+03  0.71453531375E+03  0.12500098533E+03 0.  0.
          5    1    3    3  501    0 -0.19917036297E+02 -0.90237759312E+01  0.51978804273E+03  0.52024776428E+03  0.10000000000E+00 0. -1.
         -5    1    3    3    0  501  0.59292880174E+02  0.31865578901E+02  0.18225416627E+03  0.19428754947E+03  0.10000000000E+00 0. -1.
          2    1    1    2  502    0 -0.39375843877E+02 -0.22841802970E+02  0.25671991273E+03  0.26072460306E+03  0.00000000000E+00 0. -1.
<mgrwt>
<rscale>  1 0.13303177E+03</rscale>
<asrwt>0</asrwt>
<pdfrwt beam="1">  1       21 0.12690619E-02 0.13303177E+03</pdfrwt>
<pdfrwt beam="2">  1        2 0.14877084E+00 0.13303177E+03</pdfrwt>
<totfact> 0.87987086E+05</totfact>
</mgrwt>
</event>
<event>
 6    2  0.1674964E-002  0.1733250E+03  0.7546771E-02  0.1174424E+00
          1   -1    0    0  503    0 -0.00000000000E+00  0.00000000000E+00  0.40151779608E+03  0.40151779608E+03  0.00000000000E+00 0.  1.
         21   -1    0    0  502  503  0.00000000000E+00 -0.00000000000E+00 -0.42807488703E+03  0.42807488703E+03  0.00000000000E+00 0.  1.
         25    2    1    2    0    0  0.84585899453E+02  0.85212076924E+02 -0.40074096836E+03  0.43661756107E+03  0.12500279387E+03 0.  0.
          5    1    3    3  501    0 -0.15930406774E+02 -0.17251250738E+02 -0.24540961414E+02  0.33965457440E+02  0.10000000000E+00 0.  1.
         -5    1    3    3    0  501  0.10051630623E+03  0.10246332766E+03 -0.37620000694E+03  0.40265210363E+03  0.10000000000E+00 0.  1.
          1    1    1    2  502    0 -0.84585899453E+02 -0.85212076924E+02  0.37418387740E+03  0.39297512204E+03  0.00000000000E+00 0.  1.
<mgrwt>
<rscale>  1 0.17332504E+03</rscale>
<asrwt>0</asrwt>
<pdfrwt beam="1">  1       21 0.65857675E-01 0.17332504E+03</pdfrwt>
<pdfrwt beam="2">  1        1 0.61771969E-01 0.17332504E+03</pdfrwt>
<totfact> 0.14179343E+03</totfact>
</mgrwt>
</event>
<event>
 6    2  0.1674964E-002  0.1283250E+03  0.7546771E-02  0.1229962E+00
         21   -1    0    0  502  503  0.00000000000E+00  0.00000000000E+00  0.51758381813E+01  0.51758381813E+01  0.00000000000E+00 0. -1.
          2   -1    0    0  503    0 -0.00000000000E+00 -0.00000000000E+00 -0.21063464681E+04  0.21063464681E+04  0.00000000000E+00 0. -1.
         25    2    1    2    0    0  0.25582175371E+02 -0.13657604447E+02 -0.81634547856E+03  0.82636992332E+03  0.12500532770E+03 0.  0.
          5    1    3    3  501    0  0.32409635645E+02  0.36514671283E+02 -0.66477334305E+03  0.66656381040E+03  0.10000000000E+00 0.  1.
         -5    1    3    3    0  501 -0.68274602741E+01 -0.50172275730E+02 -0.15157213550E+03  0.15980611292E+03  0.10000000000E+00 0.  1.
          2    1    1    2  502    0 -0.25582175371E+02  0.13657604447E+02 -0.12848251513E+04  0.12851523829E+04  0.00000000000E+00 0. -1.
<mgrwt>
<rscale>  1 0.12832502E+03</rscale>
<asrwt>0</asrwt>
<pdfrwt beam="1">  1       21 0.79628091E-03 0.12832502E+03</pdfrwt>
<pdfrwt beam="2">  1        2 0.32405407E+00 0.12832502E+03</pdfrwt>
<totfact> 0.45496427E+05</totfact>
</mgrwt>
</event>
<event>
 6    2  0.1674964E-002  0.1362711E+03  0.7546771E-02  0.1218436E+00
          2   -1    0    0  503    0 -0.00000000000E+00  0.00000000000E+00  0.13843411675E+04  0.13843411675E+04  0.00000000000E+00 0.  1.
         21   -1    0    0  502  503  0.00000000000E+00 -0.00000000000E+00 -0.71882532254E+01  0.71882532254E+01  0.00000000000E+00 0.  1.
         25    2    1    2    0    0  0.64099930207E+00  0.54272099407E+02  0.11468322981E+04  0.11549000525E+04  0.12499575887E+03 0.  0.
          5    1    3    3  501    0 -0.34130792022E+02  0.21425344377E+02  0.11315632460E+03  0.12011794263E+03  0.10000000000E+00 0.  1.
         -5    1    3    3    0  501  0.34771791324E+02  0.32846755031E+02  0.10336759735E+04  0.10347821099E+04  0.10000000000E+00 0.  1.
          2    1    1    2  502    0 -0.64099930207E+00 -0.54272099407E+02  0.23032061625E+03  0.23662936827E+03  0.00000000000E+00 0.  1.
<mgrwt>
<rscale>  1 0.13627110E+03</rscale>
<asrwt>0</asrwt>
<pdfrwt beam="1">  1       21 0.11058862E-02 0.13627110E+03</pdfrwt>
<pdfrwt beam="2">  1        2 0.21297535E+00 0.13627110E+03</pdfrwt>
<totfact> 0.63917490E+05</totfact>
</mgrwt>
</event>
<event>
 6    2  0.1674964E-002  0.1948820E+03  0.7546771E-02  0.1154130E+00
          2   -1    0    0  503    0 -0.00000000000E+00  0.00000000000E+00  0.57761116186E+03  0.57761116186E+03  0.00000000000E+00 0.  1.
         21   -1    0    0  502  503  0.00000000000E+00 -0.00000000000E+00 -0.77602498942E+02  0.77602498942E+02  0.00000000000E+00 0. -1.
         25    2    1    2    0    0 -0.86830575278E+02 -0.12171216983E+03  0.82288109439E+02  0.21154276714E+03  0.12500243312E+03 0.  0.
          5    1    3    3  501    0  0.32352368871E+02 -0.22157505181E+02  0.21965981242E+02  0.44946024733E+02  0.10000000000E+00 0.  1.
         -5    1    3    3    0  501 -0.11918294415E+03 -0.99554664647E+02  0.60322128197E+02  0.16659674240E+03  0.10000000000E+00 0.  1.
          2    1    1    2  502    0  0.86830575278E+02  0.12171216983E+03  0.41772055348E+03  0.44367089366E+03  0.00000000000E+00 0.  1.
<mgrwt>
<rscale>  1 0.19488204E+03</rscale>
<asrwt>0</asrwt>
<pdfrwt beam="1">  1       21 0.11938846E-01 0.19488204E+03</pdfrwt>
<pdfrwt beam="2">  1        2 0.88863253E-01 0.19488204E+03</pdfrwt>
<totfact> 0.39230171E+04</totfact>
</mgrwt>
</event>
<event>
 6    2  0.1674964E-002  0.1562293E+03  0.7546771E-02  0.1193021E+00
          2   -1    0    0  503    0 -0.00000000000E+00  0.00000000000E+00  0.14849353059E+04  0.14849353059E+04  0.00000000000E+00 0.  1.
         21   -1    0    0  502  503  0.00000000000E+00 -0.00000000000E+00 -0.11696560468E+02  0.11696560468E+02  0.00000000000E+00 0.  1.
         25    2    1    2    0    0  0.35823282111E+02  0.86588583915E+02  0.11331675487E+04  0.11438864776E+04  0.12500675962E+03 0.  0.
          5    1    3    3  501    0 -0.24298712854E+02  0.52722975014E+02  0.86627033456E+03  0.86821336207E+03  0.10000000000E+00 0. -1.
         -5    1    3    3    0  501  0.60121994965E+02  0.33865608900E+02  0.26689721411E+03  0.27567311556E+03  0.10000000000E+00 0. -1.
          2    1    1    2  502    0 -0.35823282111E+02 -0.86588583915E+02  0.34007119676E+03  0.35274538873E+03  0.00000000000E+00 0.  1.
<mgrwt>
<rscale>  1 0.15622926E+03</rscale>
<asrwt>0</asrwt>
<pdfrwt beam="1">  1       21 0.17994720E-02 0.15622926E+03</pdfrwt>
<pdfrwt beam="2">  1        2 0.22845144E+00 0.15622926E+03</pdfrwt>
<totfact> 0.26083027E+05</totfact>
</mgrwt>
</event>
<event>
 6    2  0.1674964E-002  0.1425385E+03  0.7546771E-02  0.1209953E+00
          2   -1    0    0  503    0 -0.00000000000E+00  0.00000000000E+00  0.59662068702E+02  0.59662068702E+02  0.00000000000E+00 0.  1.
         21   -1    0    0  502  503  0.00000000000E+00 -0.00000000000E+00 -0.33924983578E+03  0.33924983578E+03  0.00000000000E+00 0. -1.
         25    2    1    2    0    0 -0.54826398591E+02 -0.41073336128E+02 -0.29594377653E+03  0.32848128637E+03  0.12499713480E+03 0.  0.
          5    1    3    3  501    0  0.72662844775E+01 -0.66601792874E+02 -0.92269388354E+02  0.11402739904E+03  0.10000000000E+00 0. -1.
         -5    1    3    3    0  501 -0.62092683069E+02  0.25528456746E+02 -0.20367438817E+03  0.21445388733E+03  0.10000000000E+00 0. -1.
          2    1    1    2  502    0  0.54826398591E+02  0.41073336128E+02  0.16356009445E+02  0.70430618116E+02  0.00000000000E+00 0.  1.
<mgrwt>
<rscale>  1 0.14253854E+03</rscale>
<asrwt>0</asrwt>
<pdfrwt beam="1">  1       21 0.52192282E-01 0.14253854E+03</pdfrwt>
<pdfrwt beam="2">  1        2 0.91787798E-02 0.14253854E+03</pdfrwt>
<totfact> 0.30061031E+04</totfact>
</mgrwt>
</event>
<event>
 6    2  0.1674964E-002  0.1337298E+03  0.7546771E-02  0.1222024E+00
         21   -1    0    0  502  503  0.00000000000E+00  0.00000000000E+00  0.29499585452E+01  0.29499585452E+01  0.00000000000E+00 0.  1.
          2   -1    0    0  503    0 -0.00000000000E+00 -0.00000000000E+00 -0.27853181995E+04  0.27853181995E+04  0.00000000000E+00 0.  1.
         25    2    1    2    0    0 -0.12630164819E+02 -0.45821457693E+02 -0.20750725465E+04  0.20793772451E+04  0.12499810876E+03 0.  0.
          5    1    3    3  501    0  0.36295529303E+02 -0.43356402474E+02 -0.44622133575E+03  0.44978954364E+03  0.10000000000E+00 0. -1.
         -5    1    3    3    0  501 -0.48925694123E+02 -0.24650552197E+01 -0.16288512107E+04  0.16295877014E+04  0.10000000000E+00 0. -1.
          2    1    1    2  502    0  0.12630164819E+02  0.45821457693E+02 -0.70729569448E+03  0.70889091296E+03  0.00000000000E+00 0.  1.
<mgrwt>
<rscale>  1 0.13372978E+03</rscale>
<asrwt>0</asrwt>
<pdfrwt beam="1">  1       21 0.45384016E-03 0.13372978E+03</pdfrwt>
<pdfrwt beam="2">  1        2 0.42851013E+00 0.13372978E+03</pdfrwt>
<totfact> 0.47483378E+05</totfact>
</mgrwt>
</event>
<event>
 6    2  0.1674964E-002  0.1687051E+03  0.7546771E-02  0.1179205E+00
         21   -1    0    0  502  503  0.00000000000E+00  0.00000000000E+00  0.10845918529E+03  0.10845918529E+03  0.00000000000E+00 0. -1.
          2   -1    0    0  503    0 -0.00000000000E+00 -0.00000000000E+00 -0.94212957367E+03  0.94212957367E+03  0.00000000000E+00 0.  1.
         25    2    1    2    0    0  0.89025235315E+02  0.70089001222E+02  0.36885597114E+02  0.17269031124E+03  0.12499374267E+03 0.  0.
          5    1    3    3  501    0  0.45396359506E+01  0.81821517437E+02  0.67422984298E+01  0.82224312696E+02  0.10000000000E+00 0. -1.
         -5    1    3    3    0  501  0.84485599365E+02 -0.11732516214E+02  0.30143298685E+02  0.90465998543E+02  0.10000000000E+00 0. -1.
          2    1    1    2  502    0 -0.89025235315E+02 -0.70089001222E+02 -0.87055598550E+03  0.87789844771E+03  0.00000000000E+00 0.  1.
<mgrwt>
<rscale>  1 0.16870506E+03</rscale>
<asrwt>0</asrwt>
<pdfrwt beam="1">  1       21 0.16686028E-01 0.16870506E+03</pdfrwt>
<pdfrwt beam="2">  1        2 0.14494301E+00 0.16870506E+03</pdfrwt>
<totfact> 0.11780573E+04</totfact>
</mgrwt>
</event>
<event>
 6    2  0.1674964E-002  0.1337629E+03  0.7546771E-02  0.1221977E+00
          2   -1    0    0  503    0 -0.00000000000E+00  0.00000000000E+00  0.15666998402E+04  0.15666998402E+04  0.00000000000E+00 0. -1.
         21   -1    0    0  502  503  0.00000000000E+00 -0.00000000000E+00 -0.11189665511E+03  0.11189665511E+03  0.00000000000E+00 0.  1.
         25    2    1    2    0    0 -0.95233514484E+01 -0.46652747312E+02 -0.71416742290E+02  0.15163400730E+03  0.12500139214E+03 0.  0.
          5    1    3    3  501    0  0.76120580733E+01 -0.63746795647E+02  0.11530955251E+02  0.65227067329E+02  0.10000000000E+00 0. -1.
         -5    1    3    3    0  501 -0.17135409522E+02  0.17094048335E+02 -0.82947697540E+02  0.86406939971E+02  0.10000000000E+00 0. -1.
          2    1    1    2  502    0  0.95233514484E+01  0.46652747312E+02  0.15262199274E+04  0.15269624880E+04  0.00000000000E+00 0. -1.
<mgrwt>
<rscale>  1 0.13376293E+03</rscale>
<asrwt>0</asrwt>
<pdfrwt beam="1">  1       21 0.17214871E-01 0.13376293E+03</pdfrwt>
<pdfrwt beam="2">  1        2 0.24103073E+00 0.13376293E+03</pdfrwt>
<totfact> 0.50866493E+03</totfact>
</mgrwt>
</event>
<event>
 6    2  0.1674964E-002  0.1275600E+03  0.7546771E-02  0.1231122E+00
         21   -1    0    0  502  503  0.00000000000E+00  0.00000000000E+00  0.98650423939E+01  0.98650423939E+01  0.00000000000E+00 0. -1.
          2   -1    0    0  503    0 -0.00000000000E+00 -0.00000000000E+00 -0.65851518551E+03  0.65851518551E+03  0.00000000000E+00 0. -1.
         25    2    1    2    0    0  0.96156978255E+01  0.23549837032E+02 -0.43790984281E+03  0.45611028033E+03  0.12499800369E+03 0.  0.
          5    1    3    3  501    0  0.16672808457E+02  0.45313142371E+01  0.44761988293E+00  0.17283683465E+02  0.10000000000E+00 0. -1.
         -5    1    3    3    0  501 -0.70571106313E+01  0.19018522795E+02 -0.43835746269E+03  0.43882659687E+03  0.10000000000E+00 0. -1.
          2    1    1    2  502    0 -0.96156978255E+01 -0.23549837032E+02 -0.21074030031E+03  0.21226994758E+03  0.00000000000E+00 0. -1.
<mgrwt>
<rscale>  1 0.12756001E+03</rscale>
<asrwt>0</asrwt>
<pdfrwt beam="1">  1       21 0.15176992E-02 0.12756001E+03</pdfrwt>
<pdfrwt beam="2">  1        2 0.10131000E+00 0.12756001E+03</pdfrwt>
<totfact> 0.10646700E+06</totfact>
</mgrwt>
</event>
<event>
 6    2  0.1674964E-002  0.1260173E+03  0.7546771E-02  0.1233488E+00
          2   -1    0    0  503    0 -0.00000000000E+00  0.00000000000E+00  0.10408223952E+04  0.10408223952E+04  0.00000000000E+00 0. -1.
         21   -1    0    0  502  503  0.00000000000E+00 -0.00000000000E+00 -0.79514788527E+01  0.79514788527E+01  0.00000000000E+00 0.  1.
         25    2    1    2    0    0  0.91408132015E+01  0.13159775976E+02  0.49912336562E+03  0.51478587599E+03  0.12499451924E+03 0.  0.
          5    1    3    3  501    0  0.46571504241E+02 -0.23877139466E+02  0.10668669181E+03  0.11883216318E+03  0.10000000000E+00 0. -1.
         -5    1    3    3    0  501 -0.37430691039E+02  0.37036915441E+02  0.39243667380E+03  0.39595371281E+03  0.10000000000E+00 0. -1.
          2    1    1    2  502    0 -0.91408132015E+01 -0.13159775976E+02  0.53374755075E+03  0.53398799809E+03  0.00000000000E+00 0. -1.
<mgrwt>
<rscale>  1 0.12601732E+03</rscale>
<asrwt>0</asrwt>
<pdfrwt beam="1">  1       21 0.12233053E-02 0.12601732E+03</pdfrwt>
<pdfrwt beam="2">  1        2 0.16012641E+00 0.12601732E+03</pdfrwt>
<totfact> 0.84011690E+05</totfact>
</mgrwt>
</event>
<event>
 6    2  0.1674964E-002  0.1466741E+03  0.7546771E-02  0.1204620E+00
         21   -1    0    0  502  503  0.00000000000E+00  0.00000000000E+00  0.20255085144E+02  0.20255085144E+02  0.00000000000E+00 0. -1.
          1   -1    0    0  503    0 -0.00000000000E+00 -0.00000000000E+00 -0.75036232874E+03  0.75036232874E+03  0.00000000000E+00 0. -1.
         25    2    1    2    0    0  0.49793704382E+02 -0.58357743479E+02 -0.30250599518E+03  0.33618920708E+03  0.12501306578E+03 0.  0.
          5    1    3    3  501    0  0.30936326785E+02 -0.88059827286E+02 -0.12943069560E+03  0.15957413468E+03  0.10000000000E+00 0.  1.
         -5    1    3    3    0  501  0.18857377597E+02  0.29702083807E+02 -0.17307529958E+03  0.17661507240E+03  0.10000000000E+00 0.  1.
          1    1    1    2  502    0 -0.49793704382E+02  0.58357743479E+02 -0.42760124841E+03  0.43442820680E+03  0.00000000000E+00 0. -1.
<mgrwt>
<rscale>  1 0.14667415E+03</rscale>
<asrwt>0</asrwt>
<pdfrwt beam="1">  1       21 0.31161667E-02 0.14667415E+03</pdfrwt>
<pdfrwt beam="2">  1        1 0.11544037E+00 0.14667415E+03</pdfrwt>
<totfact> 0.16750032E+05</totfact>
</mgrwt>
</event>
<event>
 6    2  0.1674964E-002  0.1288252E+03  0.7546771E-02  0.1229209E+00
          2   -1    0    0  503    0 -0.00000000000E+00  0.00000000000E+00  0.17817847037E+03  0.17817847037E+03  0.00000000000E+00 0.  1.
         21   -1    0    0  502  503  0.00000000000E+00 -0.00000000000E+00 -0.19605391376E+03  0.19605391376E+03  0.00000000000E+00 0. -1.
         25    2    1    2    0    0  0.20127277002E+02 -0.23779512824E+02 -0.17317615284E+03  0.21583767821E+03  0.12500140364E+03 0.  0.
          5    1    3    3  501    0  0.58124955886E+02 -0.24518787150E+02 -0.34200285685E+02  0.71758978261E+02  0.10000000000E+00 0.  1.
         -5    1    3    3    0  501 -0.37997678884E+02  0.73927432583E+00 -0.13897586715E+03  0.14407869994E+03  0.10000000000E+00 0.  1.
          2    1    1    2  502    0 -0.20127277002E+02  0.23779512824E+02  0.15530070945E+03  0.15839470592E+03  0.00000000000E+00 0.  1.
<mgrwt>
<rscale>  1 0.12882517E+03</rscale>
<asrwt>0</asrwt>
<pdfrwt beam="1">  1       21 0.30162140E-01 0.12882517E+03</pdfrwt>
<pdfrwt beam="2">  1        2 0.27412073E-01 0.12882517E+03</pdfrwt>
<totfact> 0.25221333E+04</totfact>
</mgrwt>
</event>
<event>
 6    2  0.1674964E-002  0.1265985E+03  0.7546771E-02  0.1232592E+00
         21   -1    0    0  502  503  0.00000000000E+00  0.00000000000E+00  0.98893257742E+02  0.98893257742E+02  0.00000000000E+00 0. -1.
          1   -1    0    0  503    0 -0.00000000000E+00 -0.00000000000E+00 -0.66097031961E+02  0.66097031961E+02  0.00000000000E+00 0. -1.
         25    2    1    2    0    0 -0.66435781594E+01 -0.18788330791E+02  0.52419899163E+02  0.13702196724E+03  0.12502013907E+03 0.  0.
          5    1    3    3  501    0 -0.48918814995E+02 -0.28391131490E+02  0.70212527717E+02  0.90160500532E+02  0.10000000000E+00 0. -1.
         -5    1    3    3    0  501  0.42275236835E+02  0.96028006997E+01 -0.17792628554E+02  0.46861466703E+02  0.10000000000E+00 0. -1.
          1    1    1    2  502    0  0.66435781594E+01  0.18788330791E+02 -0.19623673382E+02  0.27968322468E+02  0.00000000000E+00 0. -1.
<mgrwt>
<rscale>  1 0.12659847E+03</rscale>
<asrwt>0</asrwt>
<pdfrwt beam="1">  1       21 0.15214347E-01 0.12659847E+03</pdfrwt>
<pdfrwt beam="2">  1        1 0.10168774E-01 0.12659847E+03</pdfrwt>
<totfact> 0.24883458E+05</totfact>
</mgrwt>
</event>
<event>
 6    2  0.1674964E-002  0.1294013E+03  0.7546771E-02  0.1228347E+00
         21   -1    0    0  502  503  0.00000000000E+00  0.00000000000E+00  0.17369292494E+03  0.17369292494E+03  0.00000000000E+00 0.  1.
          4   -1    0    0  503    0 -0.00000000000E+00 -0.00000000000E+00 -0.38763184988E+02  0.38763184988E+02  0.00000000000E+00 0.  1.
         25    2    1    2    0    0  0.13247668212E+01 -0.33434805186E+02  0.11720652206E+03  0.17459117024E+03  0.12500026683E+03 0.  0.
          5    1    3    3  501    0  0.36635656037E+02  0.18947575508E+02  0.10140508402E+03  0.10947229319E+03  0.10000000000E+00 0. -1.
         -5    1    3    3    0  501 -0.35310889216E+02 -0.52382380694E+02  0.15801438036E+02  0.65118877051E+02  0.10000000000E+00 0. -1.
          4    1    1    2  502    0 -0.13247668212E+01  0.33434805186E+02  0.17723217895E+02  0.37864939688E+02  0.00000000000E+00 0.  1.
<mgrwt>
<rscale>  1 0.12940134E+03</rscale>
<asrwt>0</asrwt>
<pdfrwt beam="1">  1       21 0.26721988E-01 0.12940134E+03</pdfrwt>
<pdfrwt beam="2">  1        4 0.59635670E-02 0.12940134E+03</pdfrwt>
<totfact> 0.96084981E+04</totfact>
</mgrwt>
</event>
<event>
 6    2  0.1674964E-002  0.1279899E+03  0.7546771E-02  0.1230469E+00
         21   -1    0    0  502  503  0.00000000000E+00  0.00000000000E+00  0.72019674782E+02  0.72019674782E+02  0.00000000000E+00 0. -1.
          2   -1    0    0  503    0 -0.00000000000E+00 -0.00000000000E+00 -0.16860759887E+04  0.16860759887E+04  0.00000000000E+00 0. -1.
         25    2    1    2    0    0 -0.25777580101E+02  0.95337057455E+01  0.14947717664E+02  0.12885979655E+03  0.12500415082E+03 0.  0.
          5    1    3    3  501    0  0.30537393876E+02 -0.40517701300E+02 -0.48248757570E+01  0.50965733287E+02  0.10000000000E+00 0. -1.
         -5    1    3    3    0  501 -0.56314973977E+02  0.50051407046E+02  0.19772593421E+02  0.77894063265E+02  0.10000000000E+00 0. -1.
          2    1    1    2  502    0  0.25777580101E+02 -0.95337057455E+01 -0.16290040315E+04  0.16292358669E+04  0.00000000000E+00 0. -1.
<mgrwt>
<rscale>  1 0.12798989E+03</rscale>
<asrwt>0</asrwt>
<pdfrwt beam="1">  1       21 0.11079950E-01 0.12798989E+03</pdfrwt>
<pdfrwt beam="2">  1        2 0.25939632E+00 0.12798989E+03</pdfrwt>
<totfact> 0.97592615E+03</totfact>
</mgrwt>
</event>
<event>
 6    2  0.1674964E-002  0.1280926E+03  0.7546771E-02  0.1230314E+00
          3   -1    0    0  503    0 -0.00000000000E+00  0.00000000000E+00  0.69128355141E+03  0.69128355141E+03  0.00000000000E+00 0. -1.
         21   -1    0    0  502  503  0.00000000000E+00 -0.00000000000E+00 -0.73024705118E+02  0.73024705118E+02  0.00000000000E+00 0. -1.
         25    2    1    2    0    0 -0.22919032898E+02 -0.16069094104E+02 -0.16306086490E+02  0.12912627334E+03  0.12499683258E+03 0.  0.
          5    1    3    3  501    0  0.43137827444E+02 -0.37265941331E+02  0.30964742850E+01  0.57089584802E+02  0.10000000000E+00 0. -1.
         -5    1    3    3    0  501 -0.66056860342E+02  0.21196847227E+02 -0.19402560775E+02  0.72036688536E+02  0.10000000000E+00 0. -1.
          3    1    1    2  502    0  0.22919032898E+02  0.16069094104E+02  0.63456493278E+03  0.63518198319E+03  0.00000000000E+00 0. -1.
<mgrwt>
<rscale>  1 0.12809257E+03</rscale>
<asrwt>0</asrwt>
<pdfrwt beam="1">  1       21 0.11234570E-01 0.12809257E+03</pdfrwt>
<pdfrwt beam="2">  1        3 0.10635131E+00 0.12809257E+03</pdfrwt>
<totfact> 0.25441621E+03</totfact>
</mgrwt>
</event>
<event>
 6    2  0.1674964E-002  0.1663081E+03  0.7546771E-02  0.1181754E+00
          2   -1    0    0  503    0 -0.00000000000E+00  0.00000000000E+00  0.14618128272E+03  0.14618128272E+03  0.00000000000E+00 0. -1.
         21   -1    0    0  502  503  0.00000000000E+00 -0.00000000000E+00 -0.34030410610E+03  0.34030410610E+03  0.00000000000E+00 0.  1.
         25    2    1    2    0    0 -0.56845669488E+02  0.93809181602E+02 -0.29423254459E+03  0.33798101523E+03  0.12500713446E+03 0.  0.
          5    1    3    3  501    0 -0.88716475980E+02  0.76902056562E+02 -0.15675636724E+03  0.19584970790E+03  0.10000000000E+00 0.  1.
         -5    1    3    3    0  501  0.31870806492E+02  0.16907125040E+02 -0.13747617736E+03  0.14213130733E+03  0.10000000000E+00 0.  1.
          2    1    1    2  502    0  0.56845669488E+02 -0.93809181602E+02  0.10010972122E+03  0.14850437359E+03  0.00000000000E+00 0. -1.
<mgrwt>
<rscale>  1 0.16630808E+03</rscale>
<asrwt>0</asrwt>
<pdfrwt beam="1">  1       21 0.52354477E-01 0.16630808E+03</pdfrwt>
<pdfrwt beam="2">  1        2 0.22489428E-01 0.16630808E+03</pdfrwt>
<totfact> 0.10343246E+04</totfact>
</mgrwt>
</event>
<event>
 6    2  0.1674964E-002  0.1264382E+03  0.7546771E-02  0.1232839E+00
         21   -1    0    0  502  503  0.00000000000E+00  0.00000000000E+00  0.22395453765E+02  0.22395453765E+02  0.00000000000E+00 0. -1.
          2   -1    0    0  503    0 -0.00000000000E+00 -0.00000000000E+00 -0.34946577377E+03  0.34946577377E+03  0.00000000000E+00 0. -1.
         25    2    1    2    0    0  0.14582745144E+02 -0.12223897480E+02 -0.16104435940E+03  0.20474839224E+03  0.12499815321E+03 0.  0.
          5    1    3    3  501    0 -0.52553100108E+02  0.12651850910E+02 -0.80715956378E+02  0.97144085134E+02  0.10000000000E+00 0.  1.
         -5    1    3    3    0  501  0.67135845252E+02 -0.24875748390E+02 -0.80328403023E+02  0.10760430711E+03  0.10000000000E+00 0.  1.
          2    1    1    2  502    0 -0.14582745144E+02  0.12223897480E+02 -0.16602596060E+03  0.16711283529E+03  0.00000000000E+00 0. -1.
<mgrwt>
<rscale>  1 0.12643820E+03</rscale>
<asrwt>0</asrwt>
<pdfrwt beam="1">  1       21 0.34454550E-02 0.12643820E+03</pdfrwt>
<pdfrwt beam="2">  1        2 0.53763956E-01 0.12643820E+03</pdfrwt>
<totfact> 0.56349854E+05</totfact>
</mgrwt>
</event>
<event>
 6    2  0.1674964E-002  0.1418683E+03  0.7546771E-02  0.1210837E+00
         21   -1    0    0  502  503  0.00000000000E+00  0.00000000000E+00  0.25387053665E+03  0.25387053665E+03  0.00000000000E+00 0. -1.
          1   -1    0    0  503    0 -0.00000000000E+00 -0.00000000000E+00 -0.22265192277E+03  0.22265192277E+03  0.00000000000E+00 0. -1.
         25    2    1    2    0    0  0.61907981419E+02  0.25851924094E+02  0.22804724137E+03  0.26857431987E+03  0.12500280340E+03 0.  0.
          5    1    3    3  501    0 -0.33123628364E+02  0.74228521926E+00  0.20588113357E+02  0.39007770444E+02  0.10000000000E+00 0. -1.
         -5    1    3    3    0  501  0.95031609784E+02  0.25109638874E+02  0.20745912801E+03  0.22956654943E+03  0.10000000000E+00 0. -1.
          1    1    1    2  502    0 -0.61907981419E+02 -0.25851924094E+02 -0.19682862748E+03  0.20794813954E+03  0.00000000000E+00 0. -1.
<mgrwt>
<rscale>  1 0.14186832E+03</rscale>
<asrwt>0</asrwt>
<pdfrwt beam="1">  1       21 0.39057005E-01 0.14186832E+03</pdfrwt>
<pdfrwt beam="2">  1        1 0.34254142E-01 0.14186832E+03</pdfrwt>
<totfact> 0.88815417E+03</totfact>
</mgrwt>
</event>
<event>
 6    2  0.1674964E-002  0.1714327E+03  0.7546771E-02  0.1176362E+00
         21   -1    0    0  502  503  0.00000000000E+00  0.00000000000E+00  0.81472221771E+02  0.81472221771E+02  0.00000000000E+00 0.  1.
          2   -1    0    0  503    0 -0.00000000000E+00 -0.00000000000E+00 -0.44615248215E+04  0.44615248215E+04  0.00000000000E+00 0. -1.
         25    2    1    2    0    0  0.11727732151E+03 -0.30174474223E+01 -0.10376551742E+02  0.17174643967E+03  0.12500436626E+03 0.  0.
          5    1    3    3  501    0  0.11487580684E+03 -0.11285061165E+01  0.39721920612E+02  0.12155478395E+03  0.10000000000E+00 0.  1.
         -5    1    3    3    0  501  0.24015146708E+01 -0.18889413058E+01 -0.50098472355E+02  0.50191655723E+02  0.10000000000E+00 0.  1.
          2    1    1    2  502    0 -0.11727732151E+03  0.30174474223E+01 -0.43696760480E+04  0.43712506036E+04  0.00000000000E+00 0. -1.
<mgrwt>
<rscale>  1 0.17143269E+03</rscale>
<asrwt>0</asrwt>
<pdfrwt beam="1">  1       21 0.12534188E-01 0.17143269E+03</pdfrwt>
<pdfrwt beam="2">  1        2 0.68638842E+00 0.17143269E+03</pdfrwt>
<totfact> 0.13895394E+02</totfact>
</mgrwt>
</event>
<event>
 6    2  0.1674964E-002  0.1300133E+03  0.7546771E-02  0.1227436E+00
          2   -1    0    0  503    0 -0.00000000000E+00  0.00000000000E+00  0.40711193884E+03  0.40711193884E+03  0.00000000000E+00 0.  1.
         21   -1    0    0  502  503  0.00000000000E+00 -0.00000000000E+00 -0.64312963915E+02  0.64312963915E+02  0.00000000000E+00 0.  1.
         25    2    1    2    0    0  0.34701034511E+02  0.76500954331E+01  0.32833101880E+01  0.13005476294E+03  0.12506308600E+03 0.  0.
          5    1    3    3  501    0  0.79242626311E+02 -0.10031079557E+02 -0.95487098046E+01  0.80443795539E+02  0.10000000000E+00 0. -1.
         -5    1    3    3    0  501 -0.44541591801E+02  0.17681174990E+02  0.12832019993E+02  0.49610967399E+02  0.10000000000E+00 0. -1.
          2    1    1    2  502    0 -0.34701034511E+02 -0.76500954331E+01  0.33951566474E+03  0.34137013982E+03  0.00000000000E+00 0.  1.
<mgrwt>
<rscale>  1 0.13001331E+03</rscale>
<asrwt>0</asrwt>
<pdfrwt beam="1">  1       21 0.98943024E-02 0.13001331E+03</pdfrwt>
<pdfrwt beam="2">  1        2 0.62632604E-01 0.13001331E+03</pdfrwt>
<totfact> 0.80259870E+04</totfact>
</mgrwt>
</event>
<event>
 6    2  0.1674964E-002  0.1834654E+03  0.7546771E-02  0.1164491E+00
          3   -1    0    0  503    0 -0.00000000000E+00  0.00000000000E+00  0.10213749543E+03  0.10213749543E+03  0.00000000000E+00 0. -1.
         21   -1    0    0  502  503  0.00000000000E+00 -0.00000000000E+00 -0.28127711795E+03  0.28127711795E+03  0.00000000000E+00 0. -1.
         25    2    1    2    0    0 -0.35278386122E+02 -0.12957104425E+03 -0.35665657750E+02  0.18689998644E+03  0.12500538291E+03 0.  0.
          5    1    3    3  501    0 -0.52562596940E+02 -0.69215402270E+02  0.33813521558E+02  0.93257507733E+02  0.10000000000E+00 0.  1.
         -5    1    3    3    0  501  0.17284210818E+02 -0.60355641976E+02 -0.69479179308E+02  0.93642478711E+02  0.10000000000E+00 0.  1.
          3    1    1    2  502    0  0.35278386122E+02  0.12957104425E+03 -0.14347396476E+03  0.19651462693E+03  0.00000000000E+00 0. -1.
<mgrwt>
<rscale>  1 0.18346543E+03</rscale>
<asrwt>0</asrwt>
<pdfrwt beam="1">  1       21 0.43273402E-01 0.18346543E+03</pdfrwt>
<pdfrwt beam="2">  1        3 0.15713461E-01 0.18346543E+03</pdfrwt>
<totfact> 0.86502788E+03</totfact>
</mgrwt>
</event>
<event>
 6    2  0.1674964E-002  0.1364630E+03  0.7546771E-02  0.1218169E+00
          2   -1    0    0  503    0 -0.00000000000E+00  0.00000000000E+00  0.24495861592E+04  0.24495861592E+04  0.00000000000E+00 0.  1.
         21   -1    0    0  502  503  0.00000000000E+00 -0.00000000000E+00 -0.11378371518E+02  0.11378371518E+02  0.00000000000E+00 0. -1.
         25    2    1    2    0    0 -0.54754837201E+02 -0.53608178611E+00  0.41189479707E+03  0.43391181421E+03  0.12499503621E+03 0.  0.
          5    1    3    3  501    0 -0.56622774452E+02 -0.54893667379E+02  0.28803318363E+03  0.29863452275E+03  0.10000000000E+00 0. -1.
         -5    1    3    3    0  501  0.18679372509E+01  0.54357585593E+02  0.12386161344E+03  0.13527729146E+03  0.10000000000E+00 0. -1.
          2    1    1    2  502    0  0.54754837201E+02  0.53608178611E+00  0.20263129906E+04  0.20270527165E+04  0.00000000000E+00 0.  1.
<mgrwt>
<rscale>  1 0.13646296E+03</rscale>
<asrwt>0</asrwt>
<pdfrwt beam="1">  1       21 0.17505206E-02 0.13646296E+03</pdfrwt>
<pdfrwt beam="2">  1        2 0.37685899E+00 0.13646296E+03</pdfrwt>
<totfact> 0.86409121E+04</totfact>
</mgrwt>
</event>
<event>
 6    2  0.1674964E-002  0.1546855E+03  0.7546771E-02  0.1194831E+00
          2   -1    0    0  503    0 -0.00000000000E+00  0.00000000000E+00  0.63727347230E+03  0.63727347230E+03  0.00000000000E+00 0.  1.
         21   -1    0    0  502  503  0.00000000000E+00 -0.00000000000E+00 -0.11608262498E+03  0.11608262498E+03  0.00000000000E+00 0.  1.
         25    2    1    2    0    0  0.44546971983E+02  0.79499024983E+02 -0.59369242816E+02  0.16568735901E+03  0.12499226479E+03 0.  0.
          5    1    3    3  501    0 -0.34152661349E+02  0.61830010821E+02 -0.45018940174E+02  0.83761981171E+02  0.10000000000E+00 0.  1.
         -5    1    3    3    0  501  0.78699633333E+02  0.17669014162E+02 -0.14350302642E+02  0.81925377839E+02  0.10000000000E+00 0.  1.
          2    1    1    2  502    0 -0.44546971983E+02 -0.79499024983E+02  0.58056009014E+03  0.58766873827E+03  0.00000000000E+00 0.  1.
<mgrwt>
<rscale>  1 0.15468547E+03</rscale>
<asrwt>0</asrwt>
<pdfrwt beam="1">  1       21 0.17858866E-01 0.15468547E+03</pdfrwt>
<pdfrwt beam="2">  1        2 0.98042070E-01 0.15468547E+03</pdfrwt>
<totfact> 0.16967640E+04</totfact>
</mgrwt>
</event>
<event>
 6    2  0.1674964E-002  0.1264009E+03  0.7546771E-02  0.1232896E+00
         21   -1    0    0  502  503  0.00000000000E+00  0.00000000000E+00  0.16404269022E+03  0.16404269022E+03  0.00000000000E+00 0.  1.
          4   -1    0    0  503    0 -0.00000000000E+00 -0.00000000000E+00 -0.26723692638E+03  0.26723692638E+03  0.00000000000E+00 0.  1.
         25    2    1    2    0    0 -0.18864641846E+02  0.34917131775E+01  0.13925824354E+03  0.18806927207E+03  0.12493648759E+03 0.  0.
          5    1    3    3  501    0  0.15975831011E+00  0.63251895167E+02  0.62143720413E+02  0.88671752839E+02  0.10000000000E+00 0.  1.
         -5    1    3    3    0  501 -0.19024400156E+02 -0.59760181989E+02  0.77114523123E+02  0.99397519230E+02  0.10000000000E+00 0.  1.
          4    1    1    2  502    0  0.18864641846E+02 -0.34917131775E+01 -0.24245247970E+03  0.24321034453E+03  0.00000000000E+00 0.  1.
<mgrwt>
<rscale>  1 0.12640092E+03</rscale>
<asrwt>0</asrwt>
<pdfrwt beam="1">  1       21 0.25237337E-01 0.12640092E+03</pdfrwt>
<pdfrwt beam="2">  1        4 0.41113373E-01 0.12640092E+03</pdfrwt>
<totfact> 0.35271258E+03</totfact>
</mgrwt>
</event>
<event>
 6    2  0.1674964E-002  0.1351142E+03  0.7546771E-02  0.1220059E+00
         21   -1    0    0  502  503  0.00000000000E+00  0.00000000000E+00  0.41315590191E+03  0.41315590191E+03  0.00000000000E+00 0. -1.
          2   -1    0    0  503    0 -0.00000000000E+00 -0.00000000000E+00 -0.77451779239E+03  0.77451779239E+03  0.00000000000E+00 0.  1.
         25    2    1    2    0    0 -0.39417686994E+02 -0.32809839001E+02  0.40122493608E+03  0.42336426245E+03  0.12500243917E+03 0.  0.
          5    1    3    3  501    0  0.17003634233E+02  0.24134187927E+02  0.24975317531E+02  0.38669873154E+02  0.10000000000E+00 0.  1.
         -5    1    3    3    0  501 -0.56421321226E+02 -0.56944026928E+02  0.37624961855E+03  0.38469438929E+03  0.10000000000E+00 0.  1.
          2    1    1    2  502    0  0.39417686994E+02  0.32809839001E+02 -0.76258682656E+03  0.76430943186E+03  0.00000000000E+00 0.  1.
<mgrwt>
<rscale>  1 0.13511421E+03</rscale>
<asrwt>0</asrwt>
<pdfrwt beam="1">  1       21 0.63562447E-01 0.13511421E+03</pdfrwt>
<pdfrwt beam="2">  1        2 0.11915658E+00 0.13511421E+03</pdfrwt>
<totfact> 0.11096366E+03</totfact>
</mgrwt>
</event>
<event>
 6    2  0.1674964E-002  0.1469147E+03  0.7546771E-02  0.1204316E+00
          1   -1    0    0  503    0 -0.00000000000E+00  0.00000000000E+00  0.77959805224E+03  0.77959805224E+03  0.00000000000E+00 0. -1.
         21   -1    0    0  502  503  0.00000000000E+00 -0.00000000000E+00 -0.52188965145E+02  0.52188965145E+02  0.00000000000E+00 0.  1.
         25    2    1    2    0    0  0.73521320441E+02 -0.23552292630E+02  0.58013158712E+02  0.15795394905E+03  0.12499531347E+03 0.  0.
          5    1    3    3  501    0  0.81768044918E+01  0.35038283563E+02  0.60232375278E+02  0.70160462358E+02  0.10000000000E+00 0.  1.
         -5    1    3    3    0  501  0.65344515949E+02 -0.58590576192E+02 -0.22192165657E+01  0.87793486691E+02  0.10000000000E+00 0.  1.
          1    1    1    2  502    0 -0.73521320441E+02  0.23552292630E+02  0.66939592838E+03  0.67383306833E+03  0.00000000000E+00 0. -1.
<mgrwt>
<rscale>  1 0.14691468E+03</rscale>
<asrwt>0</asrwt>
<pdfrwt beam="1">  1       21 0.80290721E-02 0.14691468E+03</pdfrwt>
<pdfrwt beam="2">  1        1 0.11993815E+00 0.14691468E+03</pdfrwt>
<totfact> 0.32087189E+04</totfact>
</mgrwt>
</event>
<event>
 6    2  0.1674964E-002  0.1277953E+03  0.7546771E-02  0.1230764E+00
         21   -1    0    0  502  503  0.00000000000E+00  0.00000000000E+00  0.17603673948E+03  0.17603673948E+03  0.00000000000E+00 0.  1.
          2   -1    0    0  503    0 -0.00000000000E+00 -0.00000000000E+00 -0.49043669311E+03  0.49043669311E+03  0.00000000000E+00 0. -1.
         25    2    1    2    0    0 -0.40656507697E+01  0.26085614402E+02  0.15242102075E+03  0.19890652730E+03  0.12503859501E+03 0.  0.
          5    1    3    3  501    0 -0.23931798907E+02  0.42618812968E+02  0.48830504343E+01  0.49121771134E+02  0.10000000000E+00 0. -1.
         -5    1    3    3    0  501  0.19866148138E+02 -0.16533198566E+02  0.14753797031E+03  0.14978475617E+03  0.10000000000E+00 0. -1.
          2    1    1    2  502    0  0.40656507697E+01 -0.26085614402E+02 -0.46682097438E+03  0.46756690529E+03  0.00000000000E+00 0. -1.
<mgrwt>
<rscale>  1 0.12779530E+03</rscale>
<asrwt>0</asrwt>
<pdfrwt beam="1">  1       21 0.27082575E-01 0.12779530E+03</pdfrwt>
<pdfrwt beam="2">  1        2 0.75451798E-01 0.12779530E+03</pdfrwt>
<totfact> 0.10509380E+04</totfact>
</mgrwt>
</event>
<event>
 6    2  0.1674964E-002  0.1345776E+03  0.7546771E-02  0.1220817E+00
         21   -1    0    0  502  503  0.00000000000E+00  0.00000000000E+00  0.47156645715E+01  0.47156645715E+01  0.00000000000E+00 0. -1.
          2   -1    0    0  503    0 -0.00000000000E+00 -0.00000000000E+00 -0.27998429263E+04  0.27998429263E+04  0.00000000000E+00 0. -1.
         25    2    1    2    0    0  0.46538655143E+02 -0.17895957367E+02 -0.25886688871E+04  0.25921646828E+04  0.12500009692E+03 0.  0.
          5    1    3    3  501    0 -0.33161075609E+02  0.99231950270E+00 -0.26726183829E+03  0.26931309258E+03  0.10000000000E+00 0. -1.
         -5    1    3    3    0  501  0.79699730752E+02 -0.18888276870E+02 -0.23214070488E+04  0.23228515903E+04  0.10000000000E+00 0. -1.
          2    1    1    2  502    0 -0.46538655143E+02  0.17895957367E+02 -0.20645837459E+03  0.21239390799E+03  0.00000000000E+00 0. -1.
<mgrwt>
<rscale>  1 0.13457762E+03</rscale>
<asrwt>0</asrwt>
<pdfrwt beam="1">  1       21 0.72548601E-03 0.13457762E+03</pdfrwt>
<pdfrwt beam="2">  1        2 0.43074557E+00 0.13457762E+03</pdfrwt>
<totfact> 0.22505741E+05</totfact>
</mgrwt>
</event>
<event>
 6    2  0.1674964E-002  0.1401466E+03  0.7546771E-02  0.1213132E+00
          2   -1    0    0  503    0 -0.00000000000E+00  0.00000000000E+00  0.39532824989E+03  0.39532824989E+03  0.00000000000E+00 0.  1.
         21   -1    0    0  502  503  0.00000000000E+00 -0.00000000000E+00 -0.64264713239E+02  0.64264713239E+02  0.00000000000E+00 0.  1.
         25    2    1    2    0    0  0.58324104687E+02 -0.24771656009E+02  0.36265155646E+03  0.38878943833E+03  0.12500295926E+03 0.  0.
          5    1    3    3  501    0  0.11001730566E+02 -0.19098713700E+02 -0.96536374776E+00  0.22062204505E+02  0.10000000000E+00 0.  1.
         -5    1    3    3    0  501  0.47322374121E+02 -0.56729423089E+01  0.36361692021E+03  0.36672723382E+03  0.10000000000E+00 0.  1.
          2    1    1    2  502    0 -0.58324104687E+02  0.24771656009E+02 -0.31588019807E+02  0.70803524801E+02  0.00000000000E+00 0.  1.
<mgrwt>
<rscale>  1 0.14014662E+03</rscale>
<asrwt>0</asrwt>
<pdfrwt beam="1">  1       21 0.98868792E-02 0.14014662E+03</pdfrwt>
<pdfrwt beam="2">  1        2 0.60819729E-01 0.14014662E+03</pdfrwt>
<totfact> 0.83063303E+04</totfact>
</mgrwt>
</event>
<event>
 6    2  0.1674964E-002  0.1286464E+03  0.7546771E-02  0.1229478E+00
          2   -1    0    0  503    0 -0.00000000000E+00  0.00000000000E+00  0.44852926071E+03  0.44852926071E+03  0.00000000000E+00 0.  1.
         21   -1    0    0  502  503  0.00000000000E+00 -0.00000000000E+00 -0.22411073461E+02  0.22411073461E+02  0.00000000000E+00 0.  1.
         25    2    1    2    0    0 -0.18472893522E+02  0.24404522732E+02  0.17097651707E+03  0.21396932338E+03  0.12495228463E+03 0.  0.
          5    1    3    3  501    0  0.41239294584E+02  0.42236216905E+02  0.47917432262E+02  0.76030702685E+02  0.10000000000E+00 0. -1.
         -5    1    3    3    0  501 -0.59712188106E+02 -0.17831694173E+02  0.12305908480E+03  0.13793862069E+03  0.10000000000E+00 0. -1.
          2    1    1    2  502    0  0.18472893522E+02 -0.24404522732E+02  0.25514167019E+03  0.25697101080E+03  0.00000000000E+00 0.  1.
<mgrwt>
<rscale>  1 0.12864642E+03</rscale>
<asrwt>0</asrwt>
<pdfrwt beam="1">  1       21 0.34478578E-02 0.12864642E+03</pdfrwt>
<pdfrwt beam="2">  1        2 0.69004495E-01 0.12864642E+03</pdfrwt>
<totfact> 0.43178572E+05</totfact>
</mgrwt>
</event>
<event>
 6    2  0.1674964E-002  0.1354121E+03  0.7546771E-02  0.1219639E+00
         21   -1    0    0  502  503  0.00000000000E+00  0.00000000000E+00  0.57835347044E+03  0.57835347044E+03  0.00000000000E+00 0.  1.
          3   -1    0    0  503    0 -0.00000000000E+00 -0.00000000000E+00 -0.19011524572E+02  0.19011524572E+02  0.00000000000E+00 0.  1.
         25    2    1    2    0    0 -0.35177804749E+02 -0.38449840799E+02  0.50171953665E+03  0.51967194353E+03  0.12498226767E+03 0.  0.
          5    1    3    3  501    0  0.44135561062E+02  0.34473413277E+01  0.20322901831E+03  0.20799489367E+03  0.10000000000E+00 0.  1.
         -5    1    3    3    0  501 -0.79313365810E+02 -0.41897182127E+02  0.29849051835E+03  0.31167704986E+03  0.10000000000E+00 0.  1.
          3    1    1    2  502    0  0.35177804749E+02  0.38449840799E+02  0.57622409213E+02  0.77693051478E+02  0.00000000000E+00 0.  1.
<mgrwt>
<rscale>  1 0.13541209E+03</rscale>
<asrwt>0</asrwt>
<pdfrwt beam="1">  1       21 0.88977443E-01 0.13541209E+03</pdfrwt>
<pdfrwt beam="2">  1        3 0.29248504E-02 0.13541209E+03</pdfrwt>
<totfact> 0.27619740E+04</totfact>
</mgrwt>
</event>
<event>
 6    2  0.1674964E-002  0.1260543E+03  0.7546771E-02  0.1233431E+00
          2   -1    0    0  503    0 -0.00000000000E+00  0.00000000000E+00  0.14422651100E+04  0.14422651100E+04  0.00000000000E+00 0. -1.
         21   -1    0    0  502  503  0.00000000000E+00 -0.00000000000E+00 -0.35672525304E+01  0.35672525304E+01  0.00000000000E+00 0. -1.
         25    2    1    2    0    0 -0.91573799128E+01 -0.13397347498E+02  0.13249353924E+04  0.13309182860E+04  0.12500537364E+03 0.  0.
          5    1    3    3  501    0 -0.55175346371E+02  0.26807825432E+02  0.50569093360E+03  0.50939798653E+03  0.10000000000E+00 0.  1.
         -5    1    3    3    0  501  0.46017966458E+02 -0.40205172929E+02  0.81924445882E+03  0.82152029949E+03  0.10000000000E+00 0.  1.
          2    1    1    2  502    0  0.91573799128E+01  0.13397347498E+02  0.11376246501E+03  0.11491407648E+03  0.00000000000E+00 0. -1.
<mgrwt>
<rscale>  1 0.12605431E+03</rscale>
<asrwt>0</asrwt>
<pdfrwt beam="1">  1       21 0.54880924E-03 0.12605431E+03</pdfrwt>
<pdfrwt beam="2">  1        2 0.22188647E+00 0.12605431E+03</pdfrwt>
<totfact> 0.17760110E+06</totfact>
</mgrwt>
</event>
<event>
 6    2  0.1674964E-002  0.1284003E+03  0.7546771E-02  0.1229849E+00
          2   -1    0    0  503    0 -0.00000000000E+00  0.00000000000E+00  0.55510903326E+03  0.55510903326E+03  0.00000000000E+00 0. -1.
         21   -1    0    0  502  503  0.00000000000E+00 -0.00000000000E+00 -0.20544379817E+02  0.20544379817E+02  0.00000000000E+00 0.  1.
         25    2    1    2    0    0 -0.18478058103E+02 -0.22809613914E+02  0.18692473375E+03  0.22677631310E+03  0.12499969192E+03 0.  0.
          5    1    3    3  501    0  0.34001624464E+02  0.16887450126E+02  0.14228051737E+03  0.14725845328E+03  0.10000000000E+00 0.  1.
         -5    1    3    3    0  501 -0.52479682567E+02 -0.39697064040E+02  0.44644216373E+02  0.79517859826E+02  0.10000000000E+00 0.  1.
          2    1    1    2  502    0  0.18478058103E+02  0.22809613914E+02  0.34763991970E+03  0.34887709997E+03  0.00000000000E+00 0. -1.
<mgrwt>
<rscale>  1 0.12840031E+03</rscale>
<asrwt>0</asrwt>
<pdfrwt beam="1">  1       21 0.31606742E-02 0.12840031E+03</pdfrwt>
<pdfrwt beam="2">  1        2 0.85401378E-01 0.12840031E+03</pdfrwt>
<totfact> 0.39438935E+05</totfact>
</mgrwt>
</event>
<event>
 6    2  0.1674964E-002  0.1591674E+03  0.7546771E-02  0.1189640E+00
          1   -1    0    0  503    0 -0.00000000000E+00  0.00000000000E+00  0.44404893426E+02  0.44404893426E+02  0.00000000000E+00 0.  1.
         21   -1    0    0  502  503  0.00000000000E+00 -0.00000000000E+00 -0.80329603128E+03  0.80329603128E+03  0.00000000000E+00 0. -1.
         25    2    1    2    0    0  0.39207855366E+02 -0.90398153846E+02 -0.72687135497E+03  0.74409422301E+03  0.12500065559E+03 0.  0.
          5    1    3    3  501    0 -0.22698911807E+02 -0.68308305486E+02 -0.18937218453E+03  0.20259096591E+03  0.10000000000E+00 0.  1.
         -5    1    3    3    0  501  0.61906767173E+02 -0.22089848361E+02 -0.53749917044E+03  0.54150325710E+03  0.10000000000E+00 0.  1.
          1    1    1    2  502    0 -0.39207855366E+02  0.90398153846E+02 -0.32019782890E+02  0.10360670170E+03  0.00000000000E+00 0.  1.
<mgrwt>
<rscale>  1 0.15916735E+03</rscale>
<asrwt>0</asrwt>
<pdfrwt beam="1">  1       21 0.12358399E+00 0.15916735E+03</pdfrwt>
<pdfrwt beam="2">  1        1 0.68315230E-02 0.15916735E+03</pdfrwt>
<totfact> 0.56578862E+03</totfact>
</mgrwt>
</event>
<event>
 6    2  0.1674964E-002  0.1471231E+03  0.7546771E-02  0.1204053E+00
         21   -1    0    0  502  503  0.00000000000E+00  0.00000000000E+00  0.33440109394E+03  0.33440109394E+03  0.00000000000E+00 0. -1.
          2   -1    0    0  503    0 -0.00000000000E+00 -0.00000000000E+00 -0.11257760374E+04  0.11257760374E+04  0.00000000000E+00 0.  1.
         25    2    1    2    0    0  0.74535202672E+02  0.21570743155E+02  0.31679648775E+03  0.34929247741E+03  0.12499770691E+03 0.  0.
          5    1    3    3  501    0  0.72326030231E+02  0.68028324467E+02  0.23651065669E+03  0.25650771588E+03  0.10000000000E+00 0. -1.
         -5    1    3    3    0  501  0.22091724418E+01 -0.46457581312E+02  0.80285831055E+02  0.92784761531E+02  0.10000000000E+00 0. -1.
          2    1    1    2  502    0 -0.74535202672E+02 -0.21570743155E+02 -0.11081714312E+04  0.11108846539E+04  0.00000000000E+00 0.  1.
<mgrwt>
<rscale>  1 0.14712315E+03</rscale>
<asrwt>0</asrwt>
<pdfrwt beam="1">  1       21 0.51446322E-01 0.14712315E+03</pdfrwt>
<pdfrwt beam="2">  1        2 0.17319631E+00 0.14712315E+03</pdfrwt>
<totfact> 0.10421929E+03</totfact>
</mgrwt>
</event>
<event>
 6    2  0.1674964E-002  0.1264582E+03  0.7546771E-02  0.1232808E+00
          4   -1    0    0  503    0 -0.00000000000E+00  0.00000000000E+00  0.38684156396E+03  0.38684156396E+03  0.00000000000E+00 0. -1.
         21   -1    0    0  502  503  0.00000000000E+00 -0.00000000000E+00 -0.37992276583E+02  0.37992276583E+02  0.00000000000E+00 0. -1.
         25    2    1    2    0    0 -0.14471616181E+01  0.19273195482E+02  0.68499834406E+02  0.14381895460E+03  0.12497245316E+03 0.  0.
          5    1    3    3  501    0 -0.22432054359E+02 -0.44078037120E+02  0.18378522756E+01  0.49492000567E+02  0.10000000000E+00 0. -1.
         -5    1    3    3    0  501  0.20984892741E+02  0.63351232602E+02  0.66661982130E+02  0.94326954033E+02  0.10000000000E+00 0. -1.
          4    1    1    2  502    0  0.14471616181E+01 -0.19273195482E+02  0.28034945297E+03  0.28101488595E+03  0.00000000000E+00 0. -1.
<mgrwt>
<rscale>  1 0.12645815E+03</rscale>
<asrwt>0</asrwt>
<pdfrwt beam="1">  1       21 0.58449659E-02 0.12645815E+03</pdfrwt>
<pdfrwt beam="2">  1        4 0.59514084E-01 0.12645815E+03</pdfrwt>
<totfact> 0.22444941E+04</totfact>
</mgrwt>
</event>
<event>
 6    2  0.1674964E-002  0.1474752E+03  0.7546771E-02  0.1203610E+00
          2   -1    0    0  503    0 -0.00000000000E+00  0.00000000000E+00  0.88650257605E+03  0.88650257605E+03  0.00000000000E+00 0.  1.
         21   -1    0    0  502  503  0.00000000000E+00 -0.00000000000E+00 -0.34672020762E+02  0.34672020762E+02  0.00000000000E+00 0. -1.
         25    2    1    2    0    0 -0.35112908931E+02 -0.70015444615E+02  0.13455359181E+03  0.19963366159E+03  0.12495539570E+03 0.  0.
          5    1    3    3  501    0 -0.80546406666E+01 -0.12579369368E+02  0.13531645881E+03  0.13613842880E+03  0.10000000000E+00 0.  1.
         -5    1    3    3    0  501 -0.27058268264E+02 -0.57436075247E+02 -0.76286700672E+00  0.63495232792E+02  0.10000000000E+00 0.  1.
          2    1    1    2  502    0  0.35112908931E+02  0.70015444615E+02  0.71727696348E+03  0.72154093522E+03  0.00000000000E+00 0.  1.
<mgrwt>
<rscale>  1 0.14747518E+03</rscale>
<asrwt>0</asrwt>
<pdfrwt beam="1">  1       21 0.53341577E-02 0.14747518E+03</pdfrwt>
<pdfrwt beam="2">  1        2 0.13638499E+00 0.14747518E+03</pdfrwt>
<totfact> 0.94668041E+04</totfact>
</mgrwt>
</event>
<event>
 6    2  0.1674964E-002  0.1407978E+03  0.7546771E-02  0.1212259E+00
          2   -1    0    0  503    0 -0.00000000000E+00  0.00000000000E+00  0.25488020216E+04  0.25488020216E+04  0.00000000000E+00 0.  1.
         21   -1    0    0  502  503  0.00000000000E+00 -0.00000000000E+00 -0.34087425397E+02  0.34087425397E+02  0.00000000000E+00 0.  1.
         25    2    1    2    0    0 -0.21239092385E+02 -0.61209891012E+02  0.11362871129E+03  0.18092958543E+03  0.12500512411E+03 0.  0.
          5    1    3    3  501    0  0.45040591231E+02 -0.36334266870E+02  0.88633665972E+02  0.10585258878E+03  0.10000000000E+00 0.  1.
         -5    1    3    3    0  501 -0.66279683616E+02 -0.24875624142E+02  0.24995045314E+02  0.75076996656E+02  0.10000000000E+00 0.  1.
          2    1    1    2  502    0  0.21239092385E+02  0.61209891012E+02  0.24010858849E+04  0.24019598615E+04  0.00000000000E+00 0.  1.
<mgrwt>
<rscale>  1 0.14079784E+03</rscale>
<asrwt>0</asrwt>
<pdfrwt beam="1">  1       21 0.52442213E-02 0.14079784E+03</pdfrwt>
<pdfrwt beam="2">  1        2 0.39212324E+00 0.14079784E+03</pdfrwt>
<totfact> 0.12562145E+04</totfact>
</mgrwt>
</event>
<event>
 6    2  0.1674964E-002  0.1343535E+03  0.7546771E-02  0.1221135E+00
         21   -1    0    0  502  503  0.00000000000E+00  0.00000000000E+00  0.27291883092E+03  0.27291883092E+03  0.00000000000E+00 0.  1.
          3   -1    0    0  503    0 -0.00000000000E+00 -0.00000000000E+00 -0.24367974992E+03  0.24367974992E+03  0.00000000000E+00 0.  1.
         25    2    1    2    0    0 -0.21534402615E+02  0.44299387840E+02  0.25354810019E+03  0.28694514117E+03  0.12499883469E+03 0.  0.
          5    1    3    3  501    0 -0.97252361037E+01 -0.82356862653E+01 -0.11084266118E+02  0.16890165804E+02  0.10000000000E+00 0. -1.
         -5    1    3    3    0  501 -0.11809166512E+02  0.52535074106E+02  0.26463236630E+03  0.27005497537E+03  0.10000000000E+00 0. -1.
          3    1    1    2  502    0  0.21534402615E+02 -0.44299387840E+02 -0.22430901919E+03  0.22965343967E+03  0.00000000000E+00 0.  1.
<mgrwt>
<rscale>  1 0.13435354E+03</rscale>
<asrwt>0</asrwt>
<pdfrwt beam="1">  1       21 0.41987512E-01 0.13435354E+03</pdfrwt>
<pdfrwt beam="2">  1        3 0.37489192E-01 0.13435354E+03</pdfrwt>
<totfact> 0.18931371E+03</totfact>
</mgrwt>
</event>
<event>
 6    2  0.1674964E-002  0.1275809E+03  0.7546771E-02  0.1231090E+00
         21   -1    0    0  502  503  0.00000000000E+00  0.00000000000E+00  0.22323726840E+01  0.22323726840E+01  0.00000000000E+00 0.  1.
          2   -1    0    0  503    0 -0.00000000000E+00 -0.00000000000E+00 -0.26906995286E+04  0.26906995286E+04  0.00000000000E+00 0.  1.
         25    2    1    2    0    0 -0.24536668410E+02  0.70601891635E+01 -0.20605529010E+04  0.20644987657E+04  0.12500000563E+03 0.  0.
          5    1    3    3  501    0 -0.55427130718E+01 -0.36055124617E+02 -0.17510983675E+04  0.17514782889E+04  0.10000000000E+00 0. -1.
         -5    1    3    3    0  501 -0.18993955338E+02  0.43115313780E+02 -0.30945453353E+03  0.31302047688E+03  0.10000000000E+00 0. -1.
          2    1    1    2  502    0  0.24536668410E+02 -0.70601891635E+01 -0.62791425493E+03  0.62843313559E+03  0.00000000000E+00 0.  1.
<mgrwt>
<rscale>  1 0.12758094E+03</rscale>
<asrwt>0</asrwt>
<pdfrwt beam="1">  1       21 0.34344149E-03 0.12758094E+03</pdfrwt>
<pdfrwt beam="2">  1        2 0.41395433E+00 0.12758094E+03</pdfrwt>
<totfact> 0.82121424E+05</totfact>
</mgrwt>
</event>
<event>
 6    2  0.1674964E-002  0.1326409E+03  0.7546771E-02  0.1223589E+00
          2   -1    0    0  503    0 -0.00000000000E+00  0.00000000000E+00  0.13871456690E+04  0.13871456690E+04  0.00000000000E+00 0.  1.
         21   -1    0    0  502  503  0.00000000000E+00 -0.00000000000E+00 -0.64555064563E+01  0.64555064563E+01  0.00000000000E+00 0.  1.
         25    2    1    2    0    0 -0.41524499647E+02  0.15637717164E+02  0.77336531250E+03  0.78465758550E+03  0.12499919053E+03 0.  0.
          5    1    3    3  501    0 -0.85531794660E+02  0.20507443257E+02  0.54269534246E+03  0.54977676183E+03  0.10000000000E+00 0. -1.
         -5    1    3    3    0  501  0.44007295013E+02 -0.48697260928E+01  0.23066997004E+03  0.23488082366E+03  0.10000000000E+00 0. -1.
          2    1    1    2  502    0  0.41524499647E+02 -0.15637717164E+02  0.60732485000E+03  0.60894358991E+03  0.00000000000E+00 0.  1.
<mgrwt>
<rscale>  1 0.13264094E+03</rscale>
<asrwt>0</asrwt>
<pdfrwt beam="1">  1       21 0.99315594E-03 0.13264094E+03</pdfrwt>
<pdfrwt beam="2">  1        2 0.21340679E+00 0.13264094E+03</pdfrwt>
<totfact> 0.75403626E+05</totfact>
</mgrwt>
</event>
<event>
 6    2  0.1674964E-002  0.1328020E+03  0.7546771E-02  0.1223356E+00
          1   -1    0    0  503    0 -0.00000000000E+00  0.00000000000E+00  0.17632903897E+04  0.17632903897E+04  0.00000000000E+00 0.  1.
         21   -1    0    0  502  503  0.00000000000E+00 -0.00000000000E+00 -0.51352538998E+01  0.51352538998E+01  0.00000000000E+00 0.  1.
         25    2    1    2    0    0 -0.11557104983E+02 -0.43349759702E+02  0.97716373873E+03  0.98614670956E+03  0.12499436847E+03 0.  0.
          5    1    3    3  501    0 -0.93143065273E+00 -0.73157386922E+02  0.32150093108E+03  0.32972068408E+03  0.10000000000E+00 0. -1.
         -5    1    3    3    0  501 -0.10625674330E+02  0.29807627220E+02  0.65566280765E+03  0.65642602548E+03  0.10000000000E+00 0. -1.
          1    1    1    2  502    0  0.11557104983E+02  0.43349759702E+02  0.78099139708E+03  0.78227893405E+03  0.00000000000E+00 0.  1.
<mgrwt>
<rscale>  1 0.13280196E+03</rscale>
<asrwt>0</asrwt>
<pdfrwt beam="1">  1       21 0.79004047E-03 0.13280196E+03</pdfrwt>
<pdfrwt beam="2">  1        1 0.27127496E+00 0.13280196E+03</pdfrwt>
<totfact> 0.29750092E+05</totfact>
</mgrwt>
</event>
<event>
 6    2  0.1674964E-002  0.1544825E+03  0.7546771E-02  0.1195071E+00
          2   -1    0    0  503    0 -0.00000000000E+00  0.00000000000E+00  0.78750014283E+03  0.78750014283E+03  0.00000000000E+00 0.  1.
         21   -1    0    0  502  503  0.00000000000E+00 -0.00000000000E+00 -0.80916446152E+02  0.80916446152E+02  0.00000000000E+00 0.  1.
         25    2    1    2    0    0  0.84864992031E+02 -0.32178219359E+02 -0.15499304055E+01  0.15449030534E+03  0.12500938959E+03 0.  0.
          5    1    3    3  501    0  0.90067012903E+02 -0.67190170851E+02  0.18391273266E+02  0.11386322850E+03  0.10000000000E+00 0. -1.
         -5    1    3    3    0  501 -0.52020208722E+01  0.35011951492E+02 -0.19941203671E+02  0.40627076837E+02  0.10000000000E+00 0. -1.
          2    1    1    2  502    0 -0.84864992031E+02  0.32178219359E+02  0.70813362708E+03  0.71392628365E+03  0.00000000000E+00 0.  1.
<mgrwt>
<rscale>  1 0.15448253E+03</rscale>
<asrwt>0</asrwt>
<pdfrwt beam="1">  1       21 0.12448685E-01 0.15448253E+03</pdfrwt>
<pdfrwt beam="2">  1        2 0.12115386E+00 0.15448253E+03</pdfrwt>
<totfact> 0.25301066E+04</totfact>
</mgrwt>
</event>
<event>
 6    2  0.1674964E-002  0.1367478E+03  0.7546771E-02  0.1217773E+00
         21   -1    0    0  502  503  0.00000000000E+00  0.00000000000E+00  0.39959070259E+03  0.39959070259E+03  0.00000000000E+00 0. -1.
          3   -1    0    0  503    0 -0.00000000000E+00 -0.00000000000E+00 -0.42884824921E+02  0.42884824921E+02  0.00000000000E+00 0. -1.
         25    2    1    2    0    0 -0.50037753620E+02 -0.23929677598E+02  0.36179625815E+03  0.38677706945E+03  0.12499425100E+03 0.  0.
          5    1    3    3  501    0  0.14822651240E+02  0.18204369767E+02  0.82715793849E+01  0.24890542258E+02  0.10000000000E+00 0.  1.
         -5    1    3    3    0  501 -0.64860404860E+02 -0.42134047365E+02  0.35352467876E+03  0.36188652719E+03  0.10000000000E+00 0.  1.
          3    1    1    2  502    0  0.50037753620E+02  0.23929677598E+02 -0.50903804797E+01  0.55698458064E+02  0.00000000000E+00 0. -1.
<mgrwt>
<rscale>  1 0.13674783E+03</rscale>
<asrwt>0</asrwt>
<pdfrwt beam="1">  1       21 0.61475490E-01 0.13674783E+03</pdfrwt>
<pdfrwt beam="2">  1        3 0.65976657E-02 0.13674783E+03</pdfrwt>
<totfact> 0.17384162E+04</totfact>
</mgrwt>
</event>
<event>
 6    2  0.1674964E-002  0.1265255E+03  0.7546771E-02  0.1232704E+00
         21   -1    0    0  502  503  0.00000000000E+00  0.00000000000E+00  0.30377389834E+02  0.30377389834E+02  0.00000000000E+00 0.  1.
          2   -1    0    0  503    0 -0.00000000000E+00 -0.00000000000E+00 -0.10464615814E+04  0.10464615814E+04  0.00000000000E+00 0.  1.
         25    2    1    2    0    0 -0.86316719122E+01 -0.17615911878E+02 -0.10193433725E+03  0.16247865808E+03  0.12499551637E+03 0.  0.
          5    1    3    3  501    0 -0.14666733966E+02 -0.55023127251E+02 -0.10988412478E+03  0.12376262965E+03  0.10000000000E+00 0. -1.
         -5    1    3    3    0  501  0.60350620536E+01  0.37407215373E+02  0.79497875384E+01  0.38716028436E+02  0.10000000000E+00 0. -1.
          2    1    1    2  502    0  0.86316719122E+01  0.17615911878E+02 -0.91414985436E+03  0.91436031319E+03  0.00000000000E+00 0.  1.
<mgrwt>
<rscale>  1 0.12652551E+03</rscale>
<asrwt>0</asrwt>
<pdfrwt beam="1">  1       21 0.46734442E-02 0.12652551E+03</pdfrwt>
<pdfrwt beam="2">  1        2 0.16099410E+00 0.12652551E+03</pdfrwt>
<totfact> 0.94370226E+04</totfact>
</mgrwt>
</event>
<event>
 6    2  0.1674964E-002  0.1263504E+03  0.7546771E-02  0.1232974E+00
          2   -1    0    0  503    0 -0.00000000000E+00  0.00000000000E+00  0.89238124777E+02  0.89238124777E+02  0.00000000000E+00 0.  1.
         21   -1    0    0  502  503  0.00000000000E+00 -0.00000000000E+00 -0.98411524713E+02  0.98411524713E+02  0.00000000000E+00 0.  1.
         25    2    1    2    0    0 -0.14411546066E+01 -0.18375834735E+02 -0.55340969253E+02  0.13793855731E+03  0.12499869794E+03 0.  0.
          5    1    3    3  501    0 -0.54132226304E+02 -0.72376403701E+01 -0.63182895246E+02  0.83515086148E+02  0.10000000000E+00 0.  1.
         -5    1    3    3    0  501  0.52691071697E+02 -0.11138194365E+02  0.78419259924E+01  0.54423471164E+02  0.10000000000E+00 0.  1.
          2    1    1    2  502    0  0.14411546066E+01  0.18375834735E+02  0.46167569318E+02  0.49711092178E+02  0.00000000000E+00 0.  1.
<mgrwt>
<rscale>  1 0.12635040E+03</rscale>
<asrwt>0</asrwt>
<pdfrwt beam="1">  1       21 0.15140235E-01 0.12635040E+03</pdfrwt>
<pdfrwt beam="2">  1        2 0.13728942E-01 0.12635040E+03</pdfrwt>
<totfact> 0.19923403E+05</totfact>
</mgrwt>
</event>
<event>
 6    2  0.1674964E-002  0.1309623E+03  0.7546771E-02  0.1226035E+00
         21   -1    0    0  502  503  0.00000000000E+00  0.00000000000E+00  0.10325374546E+02  0.10325374546E+02  0.00000000000E+00 0. -1.
          2   -1    0    0  503    0 -0.00000000000E+00 -0.00000000000E+00 -0.93441144185E+03  0.93441144185E+03  0.00000000000E+00 0. -1.
         25    2    1    2    0    0  0.35879176310E+02 -0.15429383999E+02 -0.43996379852E+03  0.45904169359E+03  0.12500300502E+03 0.  0.
          5    1    3    3  501    0 -0.28616139415E+02  0.37708830392E+02 -0.15256674648E+03  0.15974185881E+03  0.10000000000E+00 0.  1.
         -5    1    3    3    0  501  0.64495315725E+02 -0.53138214390E+02 -0.28739705204E+03  0.29929983478E+03  0.10000000000E+00 0.  1.
          2    1    1    2  502    0 -0.35879176310E+02  0.15429383999E+02 -0.48412226878E+03  0.48569512280E+03  0.00000000000E+00 0. -1.
<mgrwt>
<rscale>  1 0.13096233E+03</rscale>
<asrwt>0</asrwt>
<pdfrwt beam="1">  1       21 0.15885190E-02 0.13096233E+03</pdfrwt>
<pdfrwt beam="2">  1        2 0.14375562E+00 0.13096233E+03</pdfrwt>
<totfact> 0.64335215E+05</totfact>
</mgrwt>
</event>
<event>
 6    2  0.1674964E-002  0.1301085E+03  0.7546771E-02  0.1227295E+00
         21   -1    0    0  502  503  0.00000000000E+00  0.00000000000E+00  0.83012945278E+02  0.83012945278E+02  0.00000000000E+00 0.  1.
          2   -1    0    0  503    0 -0.00000000000E+00 -0.00000000000E+00 -0.39549656923E+03  0.39549656923E+03  0.00000000000E+00 0.  1.
         25    2    1    2    0    0 -0.35838356976E+02  0.44398222868E+01  0.30495476443E+02  0.13363451808E+03  0.12499644190E+03 0.  0.
          5    1    3    3  501    0 -0.57840815713E+02 -0.19482082814E+02 -0.27663113488E+02  0.67010218333E+02  0.10000000000E+00 0. -1.
         -5    1    3    3    0  501  0.22002458737E+02  0.23921905101E+02  0.58158589931E+02  0.66624299748E+02  0.10000000000E+00 0. -1.
          2    1    1    2  502    0  0.35838356976E+02 -0.44398222868E+01 -0.34297910040E+03  0.34487499643E+03  0.00000000000E+00 0.  1.
<mgrwt>
<rscale>  1 0.13010846E+03</rscale>
<asrwt>0</asrwt>
<pdfrwt beam="1">  1       21 0.12771222E-01 0.13010846E+03</pdfrwt>
<pdfrwt beam="2">  1        2 0.60845626E-01 0.13010846E+03</pdfrwt>
<totfact> 0.52771842E+04</totfact>
</mgrwt>
</event>
<event>
 6    2  0.1674964E-002  0.1322492E+03  0.7546771E-02  0.1224156E+00
         21   -1    0    0  502  503  0.00000000000E+00  0.00000000000E+00  0.93978713615E+02  0.93978713615E+02  0.00000000000E+00 0. -1.
          1   -1    0    0  503    0 -0.00000000000E+00 -0.00000000000E+00 -0.20404239231E+04  0.20404239231E+04  0.00000000000E+00 0.  1.
         25    2    1    2    0    0 -0.95584998340E+01  0.42125188884E+02  0.47102564871E+02  0.14038693339E+03  0.12499577190E+03 0.  0.
          5    1    3    3  501    0 -0.62095906189E+02  0.34384030018E+02  0.50596243118E+02  0.87167384401E+02  0.10000000000E+00 0. -1.
         -5    1    3    3    0  501  0.52537406355E+02  0.77411588661E+01 -0.34936782472E+01  0.53219548991E+02  0.10000000000E+00 0. -1.
          1    1    1    2  502    0  0.95584998340E+01 -0.42125188884E+02 -0.19935477743E+04  0.19940157033E+04  0.00000000000E+00 0.  1.
<mgrwt>
<rscale>  1 0.13224916E+03</rscale>
<asrwt>0</asrwt>
<pdfrwt beam="1">  1       21 0.14458264E-01 0.13224916E+03</pdfrwt>
<pdfrwt beam="2">  1        1 0.31391136E+00 0.13224916E+03</pdfrwt>
<totfact> 0.15917763E+03</totfact>
</mgrwt>
</event>
<event>
 6    2  0.1674964E-002  0.1358096E+03  0.7546771E-02  0.1219081E+00
          2   -1    0    0  503    0 -0.00000000000E+00  0.00000000000E+00  0.11451140569E+04  0.11451140569E+04  0.00000000000E+00 0.  1.
         21   -1    0    0  502  503  0.00000000000E+00 -0.00000000000E+00 -0.22558646227E+03  0.22558646227E+03  0.00000000000E+00 0.  1.
         25    2    1    2    0    0  0.31288460400E+02 -0.42909003298E+02 -0.20446224421E+03  0.24545685306E+03  0.12499642830E+03 0.  0.
          5    1    3    3  501    0 -0.33566095148E+02 -0.54620406921E+02 -0.13640707484E+03  0.15072150365E+03  0.10000000000E+00 0. -1.
         -5    1    3    3    0  501  0.64854555548E+02  0.11711403623E+02 -0.68055169365E+02  0.94735349408E+02  0.10000000000E+00 0. -1.
          2    1    1    2  502    0 -0.31288460400E+02  0.42909003298E+02  0.11239898388E+04  0.11252436661E+04  0.00000000000E+00 0.  1.
<mgrwt>
<rscale>  1 0.13580964E+03</rscale>
<asrwt>0</asrwt>
<pdfrwt beam="1">  1       21 0.34705610E-01 0.13580964E+03</pdfrwt>
<pdfrwt beam="2">  1        2 0.17617139E+00 0.13580964E+03</pdfrwt>
<totfact> 0.22689424E+03</totfact>
</mgrwt>
</event>
<event>
 6    2  0.1674964E-002  0.1689145E+03  0.7546771E-02  0.1178985E+00
         21   -1    0    0  502  503  0.00000000000E+00  0.00000000000E+00  0.13130982396E+03  0.13130982396E+03  0.00000000000E+00 0. -1.
          1   -1    0    0  503    0 -0.00000000000E+00 -0.00000000000E+00 -0.78604059831E+03  0.78604059831E+03  0.00000000000E+00 0. -1.
         25    2    1    2    0    0 -0.11152482260E+03 -0.21602962024E+02  0.70674892955E+02  0.18310396761E+03  0.12501059330E+03 0.  0.
          5    1    3    3  501    0 -0.54649811834E+01  0.33308275988E+02  0.52329961432E+02  0.62271519430E+02  0.10000000000E+00 0. -1.
         -5    1    3    3    0  501 -0.10605984142E+03 -0.54911238011E+02  0.18344931522E+02  0.12083244818E+03  0.10000000000E+00 0. -1.
          1    1    1    2  502    0  0.11152482260E+03  0.21602962024E+02 -0.72540566730E+03  0.73424645465E+03  0.00000000000E+00 0. -1.
<mgrwt>
<rscale>  1 0.16891454E+03</rscale>
<asrwt>0</asrwt>
<pdfrwt beam="1">  1       21 0.20201512E-01 0.16891454E+03</pdfrwt>
<pdfrwt beam="2">  1        1 0.12092932E+00 0.16891454E+03</pdfrwt>
<totfact> 0.60403765E+03</totfact>
</mgrwt>
</event>
<event>
 6    2  0.1674964E-002  0.1297772E+03  0.7546771E-02  0.1227787E+00
          1   -1    0    0  503    0 -0.00000000000E+00  0.00000000000E+00  0.20244229793E+04  0.20244229793E+04  0.00000000000E+00 0. -1.
         21   -1    0    0  502  503  0.00000000000E+00 -0.00000000000E+00 -0.33382917891E+03  0.33382917891E+03  0.00000000000E+00 0. -1.
         25    2    1    2    0    0  0.23389501783E+01  0.34862922350E+02 -0.32105889426E+03  0.34629603098E+03  0.12498493288E+03 0.  0.
          5    1    3    3  501    0 -0.26630420801E+02 -0.19785427262E+02 -0.24956311000E+03  0.25175861121E+03  0.10000000000E+00 0. -1.
         -5    1    3    3    0  501  0.28969370980E+02  0.54648349612E+02 -0.71495784253E+02  0.94537419768E+02  0.10000000000E+00 0. -1.
          1    1    1    2  502    0 -0.23389501783E+01 -0.34862922350E+02  0.20116526947E+04  0.20119561273E+04  0.00000000000E+00 0. -1.
<mgrwt>
<rscale>  1 0.12977722E+03</rscale>
<asrwt>0</asrwt>
<pdfrwt beam="1">  1       21 0.51358336E-01 0.12977722E+03</pdfrwt>
<pdfrwt beam="2">  1        1 0.31144968E+00 0.12977722E+03</pdfrwt>
<totfact> 0.14378508E+02</totfact>
</mgrwt>
</event>
<event>
 6    2  0.1674964E-002  0.2118654E+03  0.7546771E-02  0.1140097E+00
          2   -1    0    0  503    0 -0.00000000000E+00  0.00000000000E+00  0.11005409070E+04  0.11005409070E+04  0.00000000000E+00 0.  1.
         21   -1    0    0  502  503  0.00000000000E+00 -0.00000000000E+00 -0.42309515918E+02  0.42309515918E+02  0.00000000000E+00 0.  1.
         25    2    1    2    0    0  0.16717556819E+03  0.36248638048E+02  0.83587919420E+03  0.86231141704E+03  0.12500127317E+03 0.  0.
          5    1    3    3  501    0  0.11981445905E+03  0.65854441091E+02  0.39678618569E+03  0.41968035356E+03  0.10000000000E+00 0. -1.
         -5    1    3    3    0  501  0.47361109144E+02 -0.29605803043E+02  0.43909300851E+03  0.44263106347E+03  0.10000000000E+00 0. -1.
          2    1    1    2  502    0 -0.16717556819E+03 -0.36248638048E+02  0.22235219687E+03  0.28053900587E+03  0.00000000000E+00 0.  1.
<mgrwt>
<rscale>  1 0.21186541E+03</rscale>
<asrwt>0</asrwt>
<pdfrwt beam="1">  1       21 0.65091571E-02 0.21186541E+03</pdfrwt>
<pdfrwt beam="2">  1        2 0.16931396E+00 0.21186541E+03</pdfrwt>
<totfact> 0.49771778E+04</totfact>
</mgrwt>
</event>
<event>
 6    2  0.1674964E-002  0.1317601E+03  0.7546771E-02  0.1224867E+00
         21   -1    0    0  502  503  0.00000000000E+00  0.00000000000E+00  0.13540531998E+02  0.13540531998E+02  0.00000000000E+00 0.  1.
          2   -1    0    0  503    0 -0.00000000000E+00 -0.00000000000E+00 -0.10077778530E+04  0.10077778530E+04  0.00000000000E+00 0. -1.
         25    2    1    2    0    0  0.41665328498E+02 -0.37054719213E-01 -0.32371362860E+03  0.34950142850E+03  0.12499893682E+03 0.  0.
          5    1    3    3  501    0  0.43802465813E+01  0.23946463653E+02 -0.29646770394E+03  0.29746550919E+03  0.10000000000E+00 0.  1.
         -5    1    3    3    0  501  0.37285081917E+02 -0.23983518372E+02 -0.27245924667E+02  0.52035919306E+02  0.10000000000E+00 0.  1.
          2    1    1    2  502    0 -0.41665328498E+02  0.37054719213E-01 -0.67052369236E+03  0.67181695646E+03  0.00000000000E+00 0. -1.
<mgrwt>
<rscale>  1 0.13176014E+03</rscale>
<asrwt>0</asrwt>
<pdfrwt beam="1">  1       21 0.20831581E-02 0.13176014E+03</pdfrwt>
<pdfrwt beam="2">  1        2 0.15504280E+00 0.13176014E+03</pdfrwt>
<totfact> 0.37566110E+05</totfact>
</mgrwt>
</event>
<event>
 6    2  0.1674964E-002  0.1261052E+03  0.7546771E-02  0.1233352E+00
         21   -1    0    0  502  503  0.00000000000E+00  0.00000000000E+00  0.37979645262E+02  0.37979645262E+02  0.00000000000E+00 0. -1.
          1   -1    0    0  503    0 -0.00000000000E+00 -0.00000000000E+00 -0.12423935518E+04  0.12423935518E+04  0.00000000000E+00 0.  1.
         25    2    1    2    0    0  0.16641935354E+02  0.13812082065E+00 -0.66927155067E+02  0.14276470427E+03  0.12500217443E+03 0.  0.
          5    1    3    3  501    0  0.56988998410E+02 -0.26325553791E+02 -0.32349432626E+01  0.62859013515E+02  0.10000000000E+00 0.  1.
         -5    1    3    3    0  501 -0.40347063056E+02  0.26463674611E+02 -0.63692211804E+02  0.79905690759E+02  0.10000000000E+00 0.  1.
          1    1    1    2  502    0 -0.16641935354E+02 -0.13812082065E+00 -0.11374867515E+04  0.11376084928E+04  0.00000000000E+00 0.  1.
<mgrwt>
<rscale>  1 0.12610518E+03</rscale>
<asrwt>0</asrwt>
<pdfrwt beam="1">  1       21 0.58430213E-02 0.12610518E+03</pdfrwt>
<pdfrwt beam="2">  1        1 0.19113750E+00 0.12610518E+03</pdfrwt>
<totfact> 0.25279537E+04</totfact>
</mgrwt>
</event>
<event>
 6    2  0.1674964E-002  0.1266519E+03  0.7546771E-02  0.1232510E+00
          2   -1    0    0  503    0 -0.00000000000E+00  0.00000000000E+00  0.18928947195E+04  0.18928947195E+04  0.00000000000E+00 0. -1.
         21   -1    0    0  502  503  0.00000000000E+00 -0.00000000000E+00 -0.33089715749E+01  0.33089715749E+01  0.00000000000E+00 0.  1.
         25    2    1    2    0    0 -0.37252569902E+00 -0.20348465728E+02  0.12736146956E+04  0.12798965143E+04  0.12500598247E+03 0.  0.
          5    1    3    3  501    0  0.12590416338E+02  0.49893386975E+02  0.69234561025E+03  0.69425522878E+03  0.10000000000E+00 0. -1.
         -5    1    3    3    0  501 -0.12962942037E+02 -0.70241852704E+02  0.58126908536E+03  0.58564128555E+03  0.10000000000E+00 0. -1.
          2    1    1    2  502    0  0.37252569902E+00  0.20348465728E+02  0.61597105235E+03  0.61630717679E+03  0.00000000000E+00 0. -1.
<mgrwt>
<rscale>  1 0.12665186E+03</rscale>
<asrwt>0</asrwt>
<pdfrwt beam="1">  1       21 0.50907406E-03 0.12665186E+03</pdfrwt>
<pdfrwt beam="2">  1        2 0.29121371E+00 0.12665186E+03</pdfrwt>
<totfact> 0.11718019E+06</totfact>
</mgrwt>
</event>
<event>
 6    2  0.1674964E-002  0.1299709E+03  0.7546771E-02  0.1227499E+00
          2   -1    0    0  503    0 -0.00000000000E+00  0.00000000000E+00  0.13481716470E+03  0.13481716470E+03  0.00000000000E+00 0. -1.
         21   -1    0    0  502  503  0.00000000000E+00 -0.00000000000E+00 -0.53986820042E+02  0.53986820042E+02  0.00000000000E+00 0. -1.
         25    2    1    2    0    0  0.30443102043E+02  0.18461260444E+02  0.81102891352E+02  0.15319956253E+03  0.12499930550E+03 0.  0.
          5    1    3    3  501    0  0.92180107659E+01  0.57285157058E+02 -0.30722992051E+01  0.58103441929E+02  0.10000000000E+00 0.  1.
         -5    1    3    3    0  501  0.21225091277E+02 -0.38823896614E+02  0.84175190558E+02  0.95096120601E+02  0.10000000000E+00 0.  1.
          2    1    1    2  502    0 -0.30443102043E+02 -0.18461260444E+02 -0.27254669708E+00  0.35604422209E+02  0.00000000000E+00 0. -1.
<mgrwt>
<rscale>  1 0.12997087E+03</rscale>
<asrwt>0</asrwt>
<pdfrwt beam="1">  1       21 0.83056646E-02 0.12997087E+03</pdfrwt>
<pdfrwt beam="2">  1        2 0.20741102E-01 0.12997087E+03</pdfrwt>
<totfact> 0.35777036E+05</totfact>
</mgrwt>
</event>
<event>
 6    2  0.1674964E-002  0.1318545E+03  0.7546771E-02  0.1224730E+00
          1   -1    0    0  503    0 -0.00000000000E+00  0.00000000000E+00  0.87885001396E+02  0.87885001396E+02  0.00000000000E+00 0. -1.
         21   -1    0    0  502  503  0.00000000000E+00 -0.00000000000E+00 -0.23863738367E+03  0.23863738367E+03  0.00000000000E+00 0. -1.
         25    2    1    2    0    0 -0.29028329026E+02 -0.30325001667E+02 -0.21355545051E+03  0.25098117119E+03  0.12499347278E+03 0.  0.
          5    1    3    3  501    0  0.55108787139E+01  0.35735851353E+02 -0.15461762718E+02  0.39325525584E+02  0.10000000000E+00 0.  1.
         -5    1    3    3    0  501 -0.34539207740E+02 -0.66060853021E+02 -0.19809368780E+03  0.21165564561E+03  0.10000000000E+00 0.  1.
          1    1    1    2  502    0  0.29028329026E+02  0.30325001667E+02  0.62803068243E+02  0.75541213870E+02  0.00000000000E+00 0. -1.
<mgrwt>
<rscale>  1 0.13185453E+03</rscale>
<asrwt>0</asrwt>
<pdfrwt beam="1">  1       21 0.36713443E-01 0.13185453E+03</pdfrwt>
<pdfrwt beam="2">  1        1 0.13520770E-01 0.13185453E+03</pdfrwt>
<totfact> 0.32651219E+04</totfact>
</mgrwt>
</event>
<event>
 6    2  0.1674964E-002  0.2309769E+03  0.7546771E-02  0.1125954E+00
         21   -1    0    0  502  503  0.00000000000E+00  0.00000000000E+00  0.10148861499E+03  0.10148861499E+03  0.00000000000E+00 0.  1.
          1   -1    0    0  503    0 -0.00000000000E+00 -0.00000000000E+00 -0.32670419545E+04  0.32670419545E+04  0.00000000000E+00 0. -1.
         25    2    1    2    0    0  0.67719798834E+02 -0.18203756738E+03 -0.36961353921E+02  0.23391552783E+03  0.12500674135E+03 0.  0.
          5    1    3    3  501    0  0.83766241067E+01  0.72040453473E+01  0.24007272394E+02  0.26427735971E+02  0.10000000000E+00 0.  1.
         -5    1    3    3    0  501  0.59343174727E+02 -0.18924161273E+03 -0.60968626315E+02  0.20748779186E+03  0.10000000000E+00 0.  1.
          1    1    1    2  502    0 -0.67719798834E+02  0.18203756738E+03 -0.31285919856E+04  0.31346150417E+04  0.00000000000E+00 0. -1.
<mgrwt>
<rscale>  1 0.23097691E+03</rscale>
<asrwt>0</asrwt>
<pdfrwt beam="1">  1       21 0.15613633E-01 0.23097691E+03</pdfrwt>
<pdfrwt beam="2">  1        1 0.50262184E+00 0.23097691E+03</pdfrwt>
<totfact> 0.19222862E+02</totfact>
</mgrwt>
</event>
<event>
 6    2  0.1674964E-002  0.1623132E+03  0.7546771E-02  0.1186110E+00
          2   -1    0    0  503    0 -0.00000000000E+00  0.00000000000E+00  0.81334687662E+03  0.81334687662E+03  0.00000000000E+00 0.  1.
         21   -1    0    0  502  503  0.00000000000E+00 -0.00000000000E+00 -0.27064253474E+02  0.27064253474E+02  0.00000000000E+00 0.  1.
         25    2    1    2    0    0  0.68445561681E+02  0.77686914543E+02  0.27994995209E+03  0.32360088892E+03  0.12500203210E+03 0.  0.
          5    1    3    3  501    0 -0.27530858648E+02 -0.12535794452E+02  0.44514840221E+02  0.53820770344E+02  0.10000000000E+00 0. -1.
         -5    1    3    3    0  501  0.95976420329E+02  0.90222708995E+02  0.23543511187E+03  0.26978011858E+03  0.10000000000E+00 0. -1.
          2    1    1    2  502    0 -0.68445561681E+02 -0.77686914543E+02  0.50633267106E+03  0.51681024118E+03  0.00000000000E+00 0.  1.
<mgrwt>
<rscale>  1 0.16231315E+03</rscale>
<asrwt>0</asrwt>
<pdfrwt beam="1">  1       21 0.41637319E-02 0.16231315E+03</pdfrwt>
<pdfrwt beam="2">  1        2 0.12513027E+00 0.16231315E+03</pdfrwt>
<totfact> 0.16059753E+05</totfact>
</mgrwt>
</event>
<event>
 6    2  0.1674964E-002  0.1266443E+03  0.7546771E-02  0.1232522E+00
          1   -1    0    0  503    0 -0.00000000000E+00  0.00000000000E+00  0.87295898945E+02  0.87295898945E+02  0.00000000000E+00 0.  1.
         21   -1    0    0  502  503  0.00000000000E+00 -0.00000000000E+00 -0.12519832289E+03  0.12519832289E+03  0.00000000000E+00 0.  1.
         25    2    1    2    0    0  0.19856670380E+02  0.47222296802E+01 -0.90776376243E+02  0.15581758075E+03  0.12498872420E+03 0.  0.
          5    1    3    3  501    0 -0.51025625624E+02  0.17264180046E+02 -0.47555063113E+02  0.71855134894E+02  0.10000000000E+00 0. -1.
         -5    1    3    3    0  501  0.70882296004E+02 -0.12541950366E+02 -0.43221313131E+02  0.83962445859E+02  0.10000000000E+00 0. -1.
          1    1    1    2  502    0 -0.19856670380E+02 -0.47222296802E+01  0.52873952303E+02  0.56676641078E+02  0.00000000000E+00 0.  1.
<mgrwt>
<rscale>  1 0.12664426E+03</rscale>
<asrwt>0</asrwt>
<pdfrwt beam="1">  1       21 0.19261280E-01 0.12664426E+03</pdfrwt>
<pdfrwt beam="2">  1        1 0.13430138E-01 0.12664426E+03</pdfrwt>
<totfact> 0.11242506E+05</totfact>
</mgrwt>
</event>
<event>
 6    2  0.1674964E-002  0.1479129E+03  0.7546771E-02  0.1203061E+00
          2   -1    0    0  503    0 -0.00000000000E+00  0.00000000000E+00  0.28751112226E+04  0.28751112226E+04  0.00000000000E+00 0. -1.
         21   -1    0    0  502  503  0.00000000000E+00 -0.00000000000E+00 -0.48793337622E+01  0.48793337622E+01  0.00000000000E+00 0. -1.
         25    2    1    2    0    0 -0.77315611384E+02 -0.16620742567E+02  0.22286828211E+04  0.22335857612E+04  0.12499713150E+03 0.  0.
          5    1    3    3  501    0 -0.11119610635E+03 -0.62229405736E+01  0.17989170310E+04  0.18023611718E+04  0.10000000000E+00 0.  1.
         -5    1    3    3    0  501  0.33880494971E+02 -0.10397801993E+02  0.42976579004E+03  0.43122458941E+03  0.10000000000E+00 0.  1.
          2    1    1    2  502    0  0.77315611384E+02  0.16620742567E+02  0.64154906778E+03  0.64640479517E+03  0.00000000000E+00 0. -1.
<mgrwt>
<rscale>  1 0.14791293E+03</rscale>
<asrwt>0</asrwt>
<pdfrwt beam="1">  1       21 0.75066903E-03 0.14791293E+03</pdfrwt>
<pdfrwt beam="2">  1        2 0.44232345E+00 0.14791293E+03</pdfrwt>
<totfact> 0.19318998E+05</totfact>
</mgrwt>
</event>
<event>
 6    2  0.1674964E-002  0.1300543E+03  0.7546771E-02  0.1227375E+00
          1   -1    0    0  503    0 -0.00000000000E+00  0.00000000000E+00  0.32530221479E+02  0.32530221479E+02  0.00000000000E+00 0.  1.
         21   -1    0    0  502  503  0.00000000000E+00 -0.00000000000E+00 -0.22915477026E+03  0.22915477026E+03  0.00000000000E+00 0.  1.
         25    2    1    2    0    0 -0.33578619613E+02 -0.12686681569E+02 -0.18015042441E+03  0.22218977231E+03  0.12500257564E+03 0.  0.
          5    1    3    3  501    0  0.86551667776E+01  0.43772632701E+02 -0.23561409586E+02  0.50458946751E+02  0.10000000000E+00 0. -1.
         -5    1    3    3    0  501 -0.42233786391E+02 -0.56459314270E+02 -0.15658901483E+03  0.17173082555E+03  0.10000000000E+00 0. -1.
          1    1    1    2  502    0  0.33578619613E+02  0.12686681569E+02 -0.16474124364E+02  0.39495219431E+02  0.00000000000E+00 0.  1.
<mgrwt>
<rscale>  1 0.13005429E+03</rscale>
<asrwt>0</asrwt>
<pdfrwt beam="1">  1       21 0.35254580E-01 0.13005429E+03</pdfrwt>
<pdfrwt beam="2">  1        1 0.50046495E-02 0.13005429E+03</pdfrwt>
<totfact> 0.13341776E+05</totfact>
</mgrwt>
</event>
<event>
 6    2  0.1674964E-002  0.1292384E+03  0.7546771E-02  0.1228590E+00
          1   -1    0    0  503    0 -0.00000000000E+00  0.00000000000E+00  0.52803763662E+03  0.52803763662E+03  0.00000000000E+00 0. -1.
         21   -1    0    0  502  503  0.00000000000E+00 -0.00000000000E+00 -0.28303694837E+02  0.28303694837E+02  0.00000000000E+00 0.  1.
         25    2    1    2    0    0 -0.29105935765E+02  0.15168835724E+02  0.12376440323E+03  0.17894188393E+03  0.12500128497E+03 0.  0.
          5    1    3    3  501    0 -0.35052096094E+02 -0.45262663285E+02  0.96886178492E+02  0.11253577081E+03  0.10000000000E+00 0.  1.
         -5    1    3    3    0  501  0.59461603287E+01  0.60431499010E+02  0.26878224740E+02  0.66406113125E+02  0.10000000000E+00 0.  1.
          1    1    1    2  502    0  0.29105935765E+02 -0.15168835724E+02  0.37596953855E+03  0.37739944753E+03  0.00000000000E+00 0. -1.
<mgrwt>
<rscale>  1 0.12923842E+03</rscale>
<asrwt>0</asrwt>
<pdfrwt beam="1">  1       21 0.43544150E-02 0.12923842E+03</pdfrwt>
<pdfrwt beam="2">  1        1 0.81236553E-01 0.12923842E+03</pdfrwt>
<totfact> 0.15585708E+05</totfact>
</mgrwt>
</event>
<event>
 6    2  0.1674964E-002  0.1744747E+03  0.7546771E-02  0.1173260E+00
          2   -1    0    0  503    0 -0.00000000000E+00  0.00000000000E+00  0.15148414452E+03  0.15148414452E+03  0.00000000000E+00 0.  1.
         21   -1    0    0  502  503  0.00000000000E+00 -0.00000000000E+00 -0.15601032798E+03  0.15601032798E+03  0.00000000000E+00 0.  1.
         25    2    1    2    0    0  0.12129580230E+03  0.10197985116E+02  0.37983431831E+02  0.17856139704E+03  0.12499904345E+03 0.  0.
          5    1    3    3  501    0  0.37668020051E+02  0.54651138980E+02  0.49991006633E+02  0.83094749958E+02  0.10000000000E+00 0. -1.
         -5    1    3    3    0  501  0.83627782245E+02 -0.44453153863E+02 -0.12007574803E+02  0.95466647078E+02  0.10000000000E+00 0. -1.
          2    1    1    2  502    0 -0.12129580230E+03 -0.10197985116E+02 -0.42509615296E+02  0.12893307546E+03  0.00000000000E+00 0.  1.
<mgrwt>
<rscale>  1 0.17447473E+03</rscale>
<asrwt>0</asrwt>
<pdfrwt beam="1">  1       21 0.24001589E-01 0.17447473E+03</pdfrwt>
<pdfrwt beam="2">  1        2 0.23305253E-01 0.17447473E+03</pdfrwt>
<totfact> 0.46747282E+04</totfact>
</mgrwt>
</event>
<event>
 6    2  0.1674964E-002  0.1622382E+03  0.7546771E-02  0.1186193E+00
         21   -1    0    0  502  503  0.00000000000E+00  0.00000000000E+00  0.93918330585E+01  0.93918330585E+01  0.00000000000E+00 0.  1.
          2   -1    0    0  503    0 -0.00000000000E+00 -0.00000000000E+00 -0.48333784562E+04  0.48333784562E+04  0.00000000000E+00 0.  1.
         25    2    1    2    0    0 -0.73234028614E+02  0.73030489648E+02 -0.74446742588E+03  0.76194028101E+03  0.12499827307E+03 0.  0.
          5    1    3    3  501    0 -0.83810776207E+02  0.34628453057E+01 -0.51937952669E+03  0.52610962760E+03  0.10000000000E+00 0.  1.
         -5    1    3    3    0  501  0.10576747592E+02  0.69567644343E+02 -0.22508789919E+03  0.23583065342E+03  0.10000000000E+00 0.  1.
          2    1    1    2  502    0  0.73234028614E+02 -0.73030489648E+02 -0.40795191973E+04  0.40808300083E+04  0.00000000000E+00 0.  1.
<mgrwt>
<rscale>  1 0.16223823E+03</rscale>
<asrwt>0</asrwt>
<pdfrwt beam="1">  1       21 0.14448970E-02 0.16223823E+03</pdfrwt>
<pdfrwt beam="2">  1        2 0.74359687E+00 0.16223823E+03</pdfrwt>
<totfact> 0.22968206E+03</totfact>
</mgrwt>
</event>
<event>
 6    2  0.1674964E-002  0.1289057E+03  0.7546771E-02  0.1229089E+00
          2   -1    0    0  503    0 -0.00000000000E+00  0.00000000000E+00  0.28454871089E+03  0.28454871089E+03  0.00000000000E+00 0. -1.
         21   -1    0    0  502  503  0.00000000000E+00 -0.00000000000E+00 -0.23789120925E+02  0.23789120925E+02  0.00000000000E+00 0. -1.
         25    2    1    2    0    0 -0.33884530880E+01 -0.31292043936E+02  0.17783263828E+03  0.21963860440E+03  0.12500398265E+03 0.  0.
          5    1    3    3  501    0 -0.51611640372E+01 -0.63437900255E+02  0.17626648602E+03  0.18740568000E+03  0.10000000000E+00 0. -1.
         -5    1    3    3    0  501  0.17727109492E+01  0.32145856318E+02  0.15661522623E+01  0.32232924401E+02  0.10000000000E+00 0. -1.
          2    1    1    2  502    0  0.33884530880E+01  0.31292043936E+02  0.82926951685E+02  0.88699227414E+02  0.00000000000E+00 0. -1.
<mgrwt>
<rscale>  1 0.12890566E+03</rscale>
<asrwt>0</asrwt>
<pdfrwt beam="1">  1       21 0.36598650E-02 0.12890566E+03</pdfrwt>
<pdfrwt beam="2">  1        2 0.43776722E-01 0.12890566E+03</pdfrwt>
<totfact> 0.63481882E+05</totfact>
</mgrwt>
</event>
<event>
 6    2  0.1674964E-002  0.1325193E+03  0.7546771E-02  0.1223765E+00
         21   -1    0    0  502  503  0.00000000000E+00  0.00000000000E+00  0.86262495450E+02  0.86262495450E+02  0.00000000000E+00 0.  1.
          1   -1    0    0  503    0 -0.00000000000E+00 -0.00000000000E+00 -0.13470263396E+04  0.13470263396E+04  0.00000000000E+00 0.  1.
         25    2    1    2    0    0 -0.43343775131E+02  0.75836177277E+01  0.34772520936E+02  0.13700542956E+03  0.12500066166E+03 0.  0.
          5    1    3    3  501    0  0.16575674867E+02 -0.40017759848E+02  0.41752208413E+02  0.60161707156E+02  0.10000000000E+00 0.  1.
         -5    1    3    3    0  501 -0.59919449998E+02  0.47601377575E+02 -0.69796874772E+01  0.76843722401E+02  0.10000000000E+00 0.  1.
          1    1    1    2  502    0  0.43343775131E+02 -0.75836177277E+01 -0.12955363651E+04  0.12962834055E+04  0.00000000000E+00 0.  1.
<mgrwt>
<rscale>  1 0.13251928E+03</rscale>
<asrwt>0</asrwt>
<pdfrwt beam="1">  1       21 0.13271154E-01 0.13251928E+03</pdfrwt>
<pdfrwt beam="2">  1        1 0.20723480E+00 0.13251928E+03</pdfrwt>
<totfact> 0.51675621E+03</totfact>
</mgrwt>
</event>
<event>
 6    2  0.1674964E-002  0.1264321E+03  0.7546771E-02  0.1232848E+00
          2   -1    0    0  503    0 -0.00000000000E+00  0.00000000000E+00  0.25982782514E+02  0.25982782514E+02  0.00000000000E+00 0. -1.
         21   -1    0    0  502  503  0.00000000000E+00 -0.00000000000E+00 -0.25089737887E+03  0.25089737887E+03  0.00000000000E+00 0. -1.
         25    2    1    2    0    0  0.18270053777E+02  0.50513827075E+01 -0.22481081119E+03  0.25792436798E+03  0.12500306972E+03 0.  0.
          5    1    3    3  501    0 -0.12060296753E+02 -0.17077087850E+02  0.77915986950E+01  0.22311358037E+02  0.10000000000E+00 0.  1.
         -5    1    3    3    0  501  0.30330350530E+02  0.22128470558E+02 -0.23260240988E+03  0.23561300995E+03  0.10000000000E+00 0.  1.
          2    1    1    2  502    0 -0.18270053777E+02 -0.50513827075E+01 -0.10378517185E+00  0.18955793405E+02  0.00000000000E+00 0. -1.
<mgrwt>
<rscale>  1 0.12643211E+03</rscale>
<asrwt>0</asrwt>
<pdfrwt beam="1">  1       21 0.38599598E-01 0.12643211E+03</pdfrwt>
<pdfrwt beam="2">  1        2 0.39973511E-02 0.12643211E+03</pdfrwt>
<totfact> 0.16093576E+05</totfact>
</mgrwt>
</event>
<event>
 6    2  0.1674964E-002  0.1270448E+03  0.7546771E-02  0.1231908E+00
         21   -1    0    0  502  503  0.00000000000E+00  0.00000000000E+00  0.19443805459E+02  0.19443805459E+02  0.00000000000E+00 0. -1.
          2   -1    0    0  503    0 -0.00000000000E+00 -0.00000000000E+00 -0.59149899327E+03  0.59149899327E+03  0.00000000000E+00 0.  1.
         25    2    1    2    0    0  0.22409189595E+02  0.37672278637E+01 -0.19210924294E+03  0.23031793773E+03  0.12499610968E+03 0.  0.
          5    1    3    3  501    0  0.12247198589E+01  0.59901726548E+02 -0.13403459902E+03  0.14681621340E+03  0.10000000000E+00 0. -1.
         -5    1    3    3    0  501  0.21184469736E+02 -0.56134498684E+02 -0.58074643923E+02  0.83501724338E+02  0.10000000000E+00 0. -1.
          2    1    1    2  502    0 -0.22409189595E+02 -0.37672278637E+01 -0.37994594487E+03  0.38062486099E+03  0.00000000000E+00 0.  1.
<mgrwt>
<rscale>  1 0.12704484E+03</rscale>
<asrwt>0</asrwt>
<pdfrwt beam="1">  1       21 0.29913543E-02 0.12704484E+03</pdfrwt>
<pdfrwt beam="2">  1        2 0.90999856E-01 0.12704484E+03</pdfrwt>
<totfact> 0.40172792E+05</totfact>
</mgrwt>
</event>
<event>
 6    2  0.1674964E-002  0.1265935E+03  0.7546771E-02  0.1232600E+00
         21   -1    0    0  502  503  0.00000000000E+00  0.00000000000E+00  0.25466396011E+01  0.25466396011E+01  0.00000000000E+00 0. -1.
          1   -1    0    0  503    0 -0.00000000000E+00 -0.00000000000E+00 -0.21723707708E+04  0.21723707708E+04  0.00000000000E+00 0. -1.
         25    2    1    2    0    0  0.17650295041E+02 -0.93813568878E+01 -0.19802753067E+04  0.19843175687E+04  0.12500552194E+03 0.  0.
          5    1    3    3  501    0  0.39627117606E+01 -0.67117745704E+02 -0.10703937254E+04  0.10725032552E+04  0.10000000000E+00 0. -1.
         -5    1    3    3    0  501  0.13687583280E+02  0.57736388816E+02 -0.90988158127E+03  0.91181431359E+03  0.10000000000E+00 0. -1.
          1    1    1    2  502    0 -0.17650295041E+02  0.93813568878E+01 -0.18954882449E+03  0.19059984165E+03  0.00000000000E+00 0. -1.
<mgrwt>
<rscale>  1 0.12659354E+03</rscale>
<asrwt>0</asrwt>
<pdfrwt beam="1">  1       21 0.39179092E-03 0.12659354E+03</pdfrwt>
<pdfrwt beam="2">  1        1 0.33421071E+00 0.12659354E+03</pdfrwt>
<totfact> 0.48432321E+05</totfact>
</mgrwt>
</event>
<event>
 6    2  0.1674964E-002  0.1312906E+03  0.7546771E-02  0.1225553E+00
         21   -1    0    0  502  503  0.00000000000E+00  0.00000000000E+00  0.57560727064E+02  0.57560727064E+02  0.00000000000E+00 0. -1.
          1   -1    0    0  503    0 -0.00000000000E+00 -0.00000000000E+00 -0.46829080710E+03  0.46829080710E+03  0.00000000000E+00 0. -1.
         25    2    1    2    0    0 -0.82514060697E+01  0.39252742138E+02 -0.19689051639E+02  0.13275873423E+03  0.12501343645E+03 0.  0.
          5    1    3    3  501    0  0.28412726076E+02  0.19957961682E+02  0.44448649494E+02  0.56402975803E+02  0.10000000000E+00 0. -1.
         -5    1    3    3    0  501 -0.36664132145E+02  0.19294780456E+02 -0.64137701133E+02  0.76355758430E+02  0.10000000000E+00 0. -1.
          1    1    1    2  502    0  0.82514060697E+01 -0.39252742138E+02 -0.39104102839E+03  0.39309279993E+03  0.00000000000E+00 0. -1.
<mgrwt>
<rscale>  1 0.13129060E+03</rscale>
<asrwt>0</asrwt>
<pdfrwt beam="1">  1       21 0.88554965E-02 0.13129060E+03</pdfrwt>
<pdfrwt beam="2">  1        1 0.72044739E-01 0.13129060E+03</pdfrwt>
<totfact> 0.54526302E+04</totfact>
</mgrwt>
</event>
<event>
 6    2  0.1674964E-002  0.1704327E+03  0.7546771E-02  0.1177397E+00
         21   -1    0    0  502  503  0.00000000000E+00  0.00000000000E+00  0.66639489087E+02  0.66639489087E+02  0.00000000000E+00 0. -1.
          2   -1    0    0  503    0 -0.00000000000E+00 -0.00000000000E+00 -0.27540586642E+04  0.27540586642E+04  0.00000000000E+00 0. -1.
         25    2    1    2    0    0  0.11289411791E+03 -0.26086446667E+02 -0.45719252426E+02  0.17645836346E+03  0.12498687705E+03 0.  0.
          5    1    3    3  501    0  0.63974534521E+02  0.43431055377E+02  0.49768753593E+01  0.77484043045E+02  0.10000000000E+00 0.  1.
         -5    1    3    3    0  501  0.48919583393E+02 -0.69517502044E+02 -0.50696127786E+02  0.98974320418E+02  0.10000000000E+00 0.  1.
          2    1    1    2  502    0 -0.11289411791E+03  0.26086446667E+02 -0.26416999226E+04  0.26442397898E+04  0.00000000000E+00 0. -1.
<mgrwt>
<rscale>  1 0.17043270E+03</rscale>
<asrwt>0</asrwt>
<pdfrwt beam="1">  1       21 0.10252230E-01 0.17043270E+03</pdfrwt>
<pdfrwt beam="2">  1        2 0.42370131E+00 0.17043270E+03</pdfrwt>
<totfact> 0.29955195E+03</totfact>
</mgrwt>
</event>
<event>
 6    2  0.1674964E-002  0.1264826E+03  0.7546771E-02  0.1232770E+00
         21   -1    0    0  502  503  0.00000000000E+00  0.00000000000E+00  0.22735394354E+02  0.22735394354E+02  0.00000000000E+00 0.  1.
          1   -1    0    0  503    0 -0.00000000000E+00 -0.00000000000E+00 -0.34900073132E+03  0.34900073132E+03  0.00000000000E+00 0.  1.
         25    2    1    2    0    0  0.18844014356E+02 -0.43746430651E+01 -0.32874067637E+03  0.35223326218E+03  0.12499441711E+03 0.  0.
          5    1    3    3  501    0  0.47406119977E+02 -0.30782390750E+02 -0.29611993706E+03  0.30146628819E+03  0.10000000000E+00 0. -1.
         -5    1    3    3    0  501 -0.28562105622E+02  0.26407747685E+02 -0.32620739313E+02  0.50766973995E+02  0.10000000000E+00 0. -1.
          1    1    1    2  502    0 -0.18844014356E+02  0.43746430651E+01  0.24753394074E+01  0.19502863486E+02  0.00000000000E+00 0.  1.
<mgrwt>
<rscale>  1 0.12648256E+03</rscale>
<asrwt>0</asrwt>
<pdfrwt beam="1">  1       21 0.34977531E-02 0.12648256E+03</pdfrwt>
<pdfrwt beam="2">  1        1 0.53692418E-01 0.12648256E+03</pdfrwt>
<totfact> 0.37927489E+05</totfact>
</mgrwt>
</event>
<event>
 6    2  0.1674964E-002  0.1268600E+03  0.7546771E-02  0.1232191E+00
          2   -1    0    0  503    0 -0.00000000000E+00  0.00000000000E+00  0.25896192521E+03  0.25896192521E+03  0.00000000000E+00 0. -1.
         21   -1    0    0  502  503  0.00000000000E+00 -0.00000000000E+00 -0.22261521710E+02  0.22261521710E+02  0.00000000000E+00 0. -1.
         25    2    1    2    0    0  0.21609581654E+02  0.13203590248E+01  0.17738158487E+03  0.21807727039E+03  0.12499900736E+03 0.  0.
          5    1    3    3  501    0  0.99362241377E-01 -0.56025869764E+02  0.12686162572E+03  0.13868233499E+03  0.10000000000E+00 0.  1.
         -5    1    3    3    0  501  0.21510219412E+02  0.57346228789E+02  0.50519959150E+02  0.79394935405E+02  0.10000000000E+00 0.  1.
          2    1    1    2  502    0 -0.21609581654E+02 -0.13203590248E+01  0.59318818629E+02  0.63146176533E+02  0.00000000000E+00 0. -1.
<mgrwt>
<rscale>  1 0.12686004E+03</rscale>
<asrwt>0</asrwt>
<pdfrwt beam="1">  1       21 0.34248497E-02 0.12686004E+03</pdfrwt>
<pdfrwt beam="2">  1        2 0.39840294E-01 0.12686004E+03</pdfrwt>
<totfact> 0.78164219E+05</totfact>
</mgrwt>
</event>
<event>
 6    2  0.1674964E-002  0.1262208E+03  0.7546771E-02  0.1233174E+00
          2   -1    0    0  503    0 -0.00000000000E+00  0.00000000000E+00  0.12308226107E+04  0.12308226107E+04  0.00000000000E+00 0. -1.
         21   -1    0    0  502  503  0.00000000000E+00 -0.00000000000E+00 -0.99587716402E+01  0.99587716402E+01  0.00000000000E+00 0.  1.
         25    2    1    2    0    0  0.11631882492E+02 -0.13106099689E+02  0.39383768233E+03  0.41356959903E+03  0.12499849069E+03 0.  0.
          5    1    3    3  501    0  0.39622319226E+02 -0.22924759010E+02  0.47513360426E+02  0.65977285300E+02  0.10000000000E+00 0.  1.
         -5    1    3    3    0  501 -0.27990436734E+02  0.98186593214E+01  0.34632432190E+03  0.34759231373E+03  0.10000000000E+00 0.  1.
          2    1    1    2  502    0 -0.11631882492E+02  0.13106099689E+02  0.82702615677E+03  0.82721178336E+03  0.00000000000E+00 0. -1.
<mgrwt>
<rscale>  1 0.12622081E+03</rscale>
<asrwt>0</asrwt>
<pdfrwt beam="1">  1       21 0.15321197E-02 0.12622081E+03</pdfrwt>
<pdfrwt beam="2">  1        2 0.18935720E+00 0.12622081E+03</pdfrwt>
<totfact> 0.45887394E+05</totfact>
</mgrwt>
</event>
<event>
 6    2  0.1674964E-002  0.1318205E+03  0.7546771E-02  0.1224779E+00
         21   -1    0    0  502  503  0.00000000000E+00  0.00000000000E+00  0.48791173226E+01  0.48791173226E+01  0.00000000000E+00 0. -1.
          2   -1    0    0  503    0 -0.00000000000E+00 -0.00000000000E+00 -0.17466948081E+04  0.17466948081E+04  0.00000000000E+00 0. -1.
         25    2    1    2    0    0  0.41047535013E+02 -0.82998452365E+01 -0.15293361252E+04  0.15350067226E+04  0.12499146750E+03 0.  0.
          5    1    3    3  501    0  0.38893810625E+02  0.81239153714E-01 -0.15246869994E+04  0.15251830026E+04  0.10000000000E+00 0. -1.
         -5    1    3    3    0  501  0.21537243886E+01 -0.83810843902E+01 -0.46491257734E+01  0.98237200059E+01  0.10000000000E+00 0. -1.
          2    1    1    2  502    0 -0.41047535013E+02  0.82998452365E+01 -0.21247956561E+03  0.21656720288E+03  0.00000000000E+00 0. -1.
<mgrwt>
<rscale>  1 0.13182054E+03</rscale>
<asrwt>0</asrwt>
<pdfrwt beam="1">  1       21 0.75063267E-03 0.13182054E+03</pdfrwt>
<pdfrwt beam="2">  1        2 0.26872255E+00 0.13182054E+03</pdfrwt>
<totfact> 0.76211301E+05</totfact>
</mgrwt>
</event>
<event>
 6    2  0.1674964E-002  0.1304895E+03  0.7546771E-02  0.1226731E+00
         21   -1    0    0  502  503  0.00000000000E+00  0.00000000000E+00  0.26493426054E+02  0.26493426054E+02  0.00000000000E+00 0. -1.
          1   -1    0    0  503    0 -0.00000000000E+00 -0.00000000000E+00 -0.15854191550E+04  0.15854191550E+04  0.00000000000E+00 0. -1.
         25    2    1    2    0    0 -0.79972338323E+01 -0.36568850967E+02 -0.13593612635E+03  0.18843070702E+03  0.12500505706E+03 0.  0.
          5    1    3    3  501    0 -0.12653670526E+02  0.40673664135E+02 -0.15604284094E+02  0.45364810305E+02  0.10000000000E+00 0.  1.
         -5    1    3    3    0  501  0.46564366935E+01 -0.77242515101E+02 -0.12033184226E+03  0.14306589672E+03  0.10000000000E+00 0.  1.
          1    1    1    2  502    0  0.79972338323E+01  0.36568850967E+02 -0.14229896026E+04  0.14234818740E+04  0.00000000000E+00 0. -1.
<mgrwt>
<rscale>  1 0.13048947E+03</rscale>
<asrwt>0</asrwt>
<pdfrwt beam="1">  1       21 0.40759101E-02 0.13048947E+03</pdfrwt>
<pdfrwt beam="2">  1        1 0.24391073E+00 0.13048947E+03</pdfrwt>
<totfact> 0.27534861E+04</totfact>
</mgrwt>
</event>
<event>
 6    2  0.1674964E-002  0.1267715E+03  0.7546771E-02  0.1232326E+00
          1   -1    0    0  503    0 -0.00000000000E+00  0.00000000000E+00  0.31581539501E+03  0.31581539501E+03  0.00000000000E+00 0. -1.
         21   -1    0    0  502  503  0.00000000000E+00 -0.00000000000E+00 -0.30244398541E+02  0.30244398541E+02  0.00000000000E+00 0. -1.
         25    2    1    2    0    0 -0.95392603085E+00 -0.21096328395E+02  0.10599150447E+03  0.16524287235E+03  0.12500017118E+03 0.  0.
          5    1    3    3  501    0 -0.48847265979E+02 -0.31519726890E+02  0.12176629158E+02  0.59395529078E+02  0.10000000000E+00 0.  1.
         -5    1    3    3    0  501  0.47893339948E+02  0.10423398495E+02  0.93814875310E+02  0.10584734327E+03  0.10000000000E+00 0.  1.
          1    1    1    2  502    0  0.95392603085E+00  0.21096328395E+02  0.17957949200E+03  0.18081692120E+03  0.00000000000E+00 0. -1.
<mgrwt>
<rscale>  1 0.12677148E+03</rscale>
<asrwt>0</asrwt>
<pdfrwt beam="1">  1       21 0.46529846E-02 0.12677148E+03</pdfrwt>
<pdfrwt beam="2">  1        1 0.48586982E-01 0.12677148E+03</pdfrwt>
<totfact> 0.26726969E+05</totfact>
</mgrwt>
</event>
<event>
 6    2  0.1674964E-002  0.1279143E+03  0.7546771E-02  0.1230584E+00
         21   -1    0    0  502  503  0.00000000000E+00  0.00000000000E+00  0.25477115548E+02  0.25477115548E+02  0.00000000000E+00 0.  1.
          2   -1    0    0  503    0 -0.00000000000E+00 -0.00000000000E+00 -0.54267279220E+03  0.54267279220E+03  0.00000000000E+00 0.  1.
         25    2    1    2    0    0 -0.21721521393E+02 -0.16267992660E+02 -0.13868621083E+03  0.18866883076E+03  0.12500236217E+03 0.  0.
          5    1    3    3  501    0 -0.67484072786E+02 -0.36679699878E+02 -0.95203574085E+02  0.12232428615E+03  0.10000000000E+00 0. -1.
         -5    1    3    3    0  501  0.45762551393E+02  0.20411707218E+02 -0.43482636750E+02  0.66344544616E+02  0.10000000000E+00 0. -1.
          2    1    1    2  502    0  0.21721521393E+02  0.16267992660E+02 -0.37850946581E+03  0.37948107698E+03  0.00000000000E+00 0.  1.
<mgrwt>
<rscale>  1 0.12791428E+03</rscale>
<asrwt>0</asrwt>
<pdfrwt beam="1">  1       21 0.39195562E-02 0.12791428E+03</pdfrwt>
<pdfrwt beam="2">  1        2 0.83488124E-01 0.12791428E+03</pdfrwt>
<totfact> 0.28344174E+05</totfact>
</mgrwt>
</event>
<event>
 6    2  0.1674964E-002  0.1263432E+03  0.7546771E-02  0.1232985E+00
          1   -1    0    0  503    0 -0.00000000000E+00  0.00000000000E+00  0.19439996998E+03  0.19439996998E+03  0.00000000000E+00 0. -1.
         21   -1    0    0  502  503  0.00000000000E+00 -0.00000000000E+00 -0.12946619450E+03  0.12946619450E+03  0.00000000000E+00 0. -1.
         25    2    1    2    0    0 -0.61296920654E+01  0.17288626412E+02 -0.98004677561E+02  0.15989845666E+03  0.12500451948E+03 0.  0.
          5    1    3    3  501    0  0.44954397650E+02 -0.29137963623E+02 -0.62354164221E+02  0.82206876767E+02  0.10000000000E+00 0.  1.
         -5    1    3    3    0  501 -0.51084089715E+02  0.46426590036E+02 -0.35650513340E+02  0.77691579890E+02  0.10000000000E+00 0.  1.
          1    1    1    2  502    0  0.61296920654E+01 -0.17288626412E+02  0.16293845305E+03  0.16396770782E+03  0.00000000000E+00 0. -1.
<mgrwt>
<rscale>  1 0.12634318E+03</rscale>
<asrwt>0</asrwt>
<pdfrwt beam="1">  1       21 0.19917876E-01 0.12634318E+03</pdfrwt>
<pdfrwt beam="2">  1        1 0.29907688E-01 0.12634318E+03</pdfrwt>
<totfact> 0.38252841E+04</totfact>
</mgrwt>
</event>
<event>
 6    2  0.1674964E-002  0.1389677E+03  0.7546771E-02  0.1214725E+00
          1   -1    0    0  503    0 -0.00000000000E+00  0.00000000000E+00  0.76160160537E+02  0.76160160537E+02  0.00000000000E+00 0.  1.
         21   -1    0    0  502  503  0.00000000000E+00 -0.00000000000E+00 -0.13524376566E+03  0.13524376566E+03  0.00000000000E+00 0.  1.
         25    2    1    2    0    0 -0.57203612652E+02  0.20547683429E+02 -0.58072299866E+02  0.15061343901E+03  0.12497021807E+03 0.  0.
          5    1    3    3  501    0 -0.24109286128E+02  0.52456128641E+02  0.19080527680E+02  0.60802793079E+02  0.10000000000E+00 0.  1.
         -5    1    3    3    0  501 -0.33094326525E+02 -0.31908445213E+02 -0.77152827546E+02  0.89810645930E+02  0.10000000000E+00 0.  1.
          1    1    1    2  502    0  0.57203612652E+02 -0.20547683429E+02 -0.10113052615E+01  0.60790487192E+02  0.00000000000E+00 0.  1.
<mgrwt>
<rscale>  1 0.13896768E+03</rscale>
<asrwt>0</asrwt>
<pdfrwt beam="1">  1       21 0.20806733E-01 0.13896768E+03</pdfrwt>
<pdfrwt beam="2">  1        1 0.11716948E-01 0.13896768E+03</pdfrwt>
<totfact> 0.11698074E+05</totfact>
</mgrwt>
</event>
<event>
 6    2  0.1674964E-002  0.1262386E+03  0.7546771E-02  0.1233146E+00
         21   -1    0    0  502  503  0.00000000000E+00  0.00000000000E+00  0.10371158228E+04  0.10371158228E+04  0.00000000000E+00 0. -1.
          4   -1    0    0  503    0 -0.00000000000E+00 -0.00000000000E+00 -0.26233323642E+02  0.26233323642E+02  0.00000000000E+00 0. -1.
         25    2    1    2    0    0  0.87829246136E+01  0.15322285686E+02  0.10297769626E+04  0.10374857950E+04  0.12499707985E+03 0.  0.
          5    1    3    3  501    0 -0.19406284671E+02  0.35129730290E+02  0.11048536840E+03  0.11754883439E+03  0.10000000000E+00 0.  1.
         -5    1    3    3    0  501  0.28189209284E+02 -0.19807444604E+02  0.91929159418E+03  0.91993696062E+03  0.10000000000E+00 0.  1.
          4    1    1    2  502    0 -0.87829246136E+01 -0.15322285686E+02 -0.18894463380E+02  0.25863351480E+02  0.00000000000E+00 0. -1.
<mgrwt>
<rscale>  1 0.12623859E+03</rscale>
<asrwt>0</asrwt>
<pdfrwt beam="1">  1       21 0.15955625E+00 0.12623859E+03</pdfrwt>
<pdfrwt beam="2">  1        4 0.40358967E-02 0.12623859E+03</pdfrwt>
<totfact> 0.35826650E+03</totfact>
</mgrwt>
</event>
<event>
 6    2  0.1674964E-002  0.1273080E+03  0.7546771E-02  0.1231506E+00
          2   -1    0    0  503    0 -0.00000000000E+00  0.00000000000E+00  0.44455225450E+03  0.44455225450E+03  0.00000000000E+00 0. -1.
         21   -1    0    0  502  503  0.00000000000E+00 -0.00000000000E+00 -0.49672657209E+02  0.49672657209E+02  0.00000000000E+00 0.  1.
         25    2    1    2    0    0  0.24142187083E+02 -0.29801489407E+00  0.32966097373E+02  0.13150695594E+03  0.12499752748E+03 0.  0.
          5    1    3    3  501    0  0.59737294895E+02 -0.41506933885E+02  0.16114226689E+02  0.74505357282E+02  0.10000000000E+00 0. -1.
         -5    1    3    3    0  501 -0.35595107812E+02  0.41208918991E+02  0.16851870683E+02  0.57001598663E+02  0.10000000000E+00 0. -1.
          2    1    1    2  502    0 -0.24142187083E+02  0.29801489407E+00  0.36191349992E+03  0.36271795576E+03  0.00000000000E+00 0. -1.
<mgrwt>
<rscale>  1 0.12730796E+03</rscale>
<asrwt>0</asrwt>
<pdfrwt beam="1">  1       21 0.76419475E-02 0.12730796E+03</pdfrwt>
<pdfrwt beam="2">  1        2 0.68392652E-01 0.12730796E+03</pdfrwt>
<totfact> 0.11420522E+05</totfact>
</mgrwt>
</event>
<event>
 6    2  0.1674964E-002  0.1271703E+03  0.7546771E-02  0.1231716E+00
         21   -1    0    0  502  503  0.00000000000E+00  0.00000000000E+00  0.10759177282E+02  0.10759177282E+02  0.00000000000E+00 0. -1.
          1   -1    0    0  503    0 -0.00000000000E+00 -0.00000000000E+00 -0.14200621315E+04  0.14200621315E+04  0.00000000000E+00 0. -1.
         25    2    1    2    0    0  0.43530165503E+01 -0.22979103685E+02 -0.36980181052E+03  0.39105709719E+03  0.12500114495E+03 0.  0.
          5    1    3    3  501    0 -0.26445691053E+02  0.38999607567E+02 -0.23331581544E+03  0.23802651890E+03  0.10000000000E+00 0. -1.
         -5    1    3    3    0  501  0.30798707603E+02 -0.61978711252E+02 -0.13648599509E+03  0.15303057830E+03  0.10000000000E+00 0. -1.
          1    1    1    2  502    0 -0.43530165503E+01  0.22979103685E+02 -0.10395011437E+04  0.10397642116E+04  0.00000000000E+00 0. -1.
<mgrwt>
<rscale>  1 0.12717026E+03</rscale>
<asrwt>0</asrwt>
<pdfrwt beam="1">  1       21 0.16552589E-02 0.12717026E+03</pdfrwt>
<pdfrwt beam="2">  1        1 0.21847099E+00 0.12717026E+03</pdfrwt>
<totfact> 0.15319019E+05</totfact>
</mgrwt>
</event>
<event>
 6    2  0.1674964E-002  0.1274603E+03  0.7546771E-02  0.1231274E+00
          2   -1    0    0  503    0 -0.00000000000E+00  0.00000000000E+00  0.12176579494E+04  0.12176579494E+04  0.00000000000E+00 0. -1.
         21   -1    0    0  502  503  0.00000000000E+00 -0.00000000000E+00 -0.18075032696E+02  0.18075032696E+02  0.00000000000E+00 0. -1.
         25    2    1    2    0    0 -0.17615054146E+02  0.17642306224E+02  0.20875222059E+03  0.24458868914E+03  0.12499838460E+03 0.  0.
          5    1    3    3  501    0 -0.66679052408E+00  0.54538075071E+02  0.32007568118E+02  0.63240340439E+02  0.10000000000E+00 0. -1.
         -5    1    3    3    0  501 -0.16948263622E+02 -0.36895768847E+02  0.17674465247E+03  0.18134834870E+03  0.10000000000E+00 0. -1.
          2    1    1    2  502    0  0.17615054146E+02 -0.17642306224E+02  0.99083069608E+03  0.99114429293E+03  0.00000000000E+00 0. -1.
<mgrwt>
<rscale>  1 0.12746034E+03</rscale>
<asrwt>0</asrwt>
<pdfrwt beam="1">  1       21 0.27807752E-02 0.12746034E+03</pdfrwt>
<pdfrwt beam="2">  1        2 0.18733193E+00 0.12746034E+03</pdfrwt>
<totfact> 0.17820459E+05</totfact>
</mgrwt>
</event>
<event>
 6    2  0.1674964E-002  0.1279556E+03  0.7546771E-02  0.1230521E+00
          2   -1    0    0  503    0 -0.00000000000E+00  0.00000000000E+00  0.70271921900E+03  0.70271921900E+03  0.00000000000E+00 0. -1.
         21   -1    0    0  502  503  0.00000000000E+00 -0.00000000000E+00 -0.35105104770E+02  0.35105104770E+02  0.00000000000E+00 0.  1.
         25    2    1    2    0    0 -0.74624895913E+01 -0.26205724157E+02  0.82872760895E+02  0.15244847952E+03  0.12502086098E+03 0.  0.
          5    1    3    3  501    0 -0.56145732056E+02 -0.36935318718E+02  0.77076058579E+02  0.10226089088E+03  0.10000000000E+00 0.  1.
         -5    1    3    3    0  501  0.48683242464E+02  0.10729594561E+02  0.57967023160E+01  0.50187588645E+02  0.10000000000E+00 0.  1.
          2    1    1    2  502    0  0.74624895913E+01  0.26205724157E+02  0.58474135334E+03  0.58537584425E+03  0.00000000000E+00 0. -1.
<mgrwt>
<rscale>  1 0.12795563E+03</rscale>
<asrwt>0</asrwt>
<pdfrwt beam="1">  1       21 0.54007859E-02 0.12795563E+03</pdfrwt>
<pdfrwt beam="2">  1        2 0.10811064E+00 0.12795563E+03</pdfrwt>
<totfact> 0.12335101E+05</totfact>
</mgrwt>
</event>
<event>
 6    2  0.1674964E-002  0.1429216E+03  0.7546771E-02  0.1209451E+00
         21   -1    0    0  502  503  0.00000000000E+00  0.00000000000E+00  0.69620933125E+02  0.69620933125E+02  0.00000000000E+00 0. -1.
          2   -1    0    0  503    0 -0.00000000000E+00 -0.00000000000E+00 -0.23961363982E+03  0.23961363982E+03  0.00000000000E+00 0. -1.
         25    2    1    2    0    0  0.19528041078E+01 -0.69261876807E+02 -0.18940431511E+03  0.23727742206E+03  0.12500223765E+03 0.  0.
          5    1    3    3  501    0  0.58527010822E+02 -0.57892783796E+02 -0.87285960229E+02  0.11998264151E+03  0.10000000000E+00 0.  1.
         -5    1    3    3    0  501 -0.56574206714E+02 -0.11369093011E+02 -0.10211835488E+03  0.11729478055E+03  0.10000000000E+00 0.  1.
          2    1    1    2  502    0 -0.19528041078E+01  0.69261876807E+02  0.19411608406E+02  0.71957150886E+02  0.00000000000E+00 0. -1.
<mgrwt>
<rscale>  1 0.14292159E+03</rscale>
<asrwt>0</asrwt>
<pdfrwt beam="1">  1       21 0.10710913E-01 0.14292159E+03</pdfrwt>
<pdfrwt beam="2">  1        2 0.36863636E-01 0.14292159E+03</pdfrwt>
<totfact> 0.12299191E+05</totfact>
</mgrwt>
</event>
<event>
 6    2  0.1674964E-002  0.1462549E+03  0.7546771E-02  0.1205152E+00
          1   -1    0    0  503    0 -0.00000000000E+00  0.00000000000E+00  0.24520983612E+03  0.24520983612E+03  0.00000000000E+00 0. -1.
         21   -1    0    0  502  503  0.00000000000E+00 -0.00000000000E+00 -0.66297106823E+02  0.66297106823E+02  0.00000000000E+00 0. -1.
         25    2    1    2    0    0 -0.66651207285E+02 -0.36365309552E+02  0.37477220620E+02  0.15098024022E+03  0.12500268677E+03 0.  0.
          5    1    3    3  501    0 -0.23205459123E+02  0.12650178288E+02 -0.40988033116E+02  0.48770372179E+02  0.10000000000E+00 0. -1.
         -5    1    3    3    0  501 -0.43445748163E+02 -0.49015487840E+02  0.78465253736E+02  0.10220986804E+03  0.10000000000E+00 0. -1.
          1    1    1    2  502    0  0.66651207285E+02  0.36365309552E+02  0.14143550868E+03  0.16052670272E+03  0.00000000000E+00 0. -1.
<mgrwt>
<rscale>  1 0.14625488E+03</rscale>
<asrwt>0</asrwt>
<pdfrwt beam="1">  1       21 0.10199555E-01 0.14625488E+03</pdfrwt>
<pdfrwt beam="2">  1        1 0.37724590E-01 0.14625488E+03</pdfrwt>
<totfact> 0.95929177E+04</totfact>
</mgrwt>
</event>
<event>
 6    2  0.1674964E-002  0.1268474E+03  0.7546771E-02  0.1232210E+00
         21   -1    0    0  502  503  0.00000000000E+00  0.00000000000E+00  0.65978530142E+03  0.65978530142E+03  0.00000000000E+00 0.  1.
          4   -1    0    0  503    0 -0.00000000000E+00 -0.00000000000E+00 -0.20578875780E+03  0.20578875780E+03  0.00000000000E+00 0. -1.
         25    2    1    2    0    0  0.15481554252E+02  0.14940665157E+02  0.65310362894E+03  0.66530790277E+03  0.12500941306E+03 0.  0.
          5    1    3    3  501    0  0.68621568003E+02  0.22569562824E+02  0.41362487974E+03  0.41988552714E+03  0.10000000000E+00 0. -1.
         -5    1    3    3    0  501 -0.53140013751E+02 -0.76288976669E+01  0.23947874920E+03  0.24542237563E+03  0.10000000000E+00 0. -1.
          4    1    1    2  502    0 -0.15481554252E+02 -0.14940665157E+02 -0.19910708531E+03  0.20026615645E+03  0.00000000000E+00 0. -1.
<mgrwt>
<rscale>  1 0.12684737E+03</rscale>
<asrwt>0</asrwt>
<pdfrwt beam="1">  1       21 0.10150543E+00 0.12684737E+03</pdfrwt>
<pdfrwt beam="2">  1        4 0.31659809E-01 0.12684737E+03</pdfrwt>
<totfact> 0.32218170E+02</totfact>
</mgrwt>
</event>
<event>
 6    2  0.1674964E-002  0.1559270E+03  0.7546771E-02  0.1193373E+00
         21   -1    0    0  502  503  0.00000000000E+00  0.00000000000E+00  0.13584367824E+03  0.13584367824E+03  0.00000000000E+00 0.  1.
          2   -1    0    0  503    0 -0.00000000000E+00 -0.00000000000E+00 -0.14446275279E+03  0.14446275279E+03  0.00000000000E+00 0.  1.
         25    2    1    2    0    0 -0.52306032682E+02 -0.77148769495E+02  0.57323258675E+02  0.16613005431E+03  0.12500154108E+03 0.  0.
          5    1    3    3  501    0 -0.76430149657E+02 -0.53385311007E+02 -0.69445151608E+01  0.93486873403E+02  0.10000000000E+00 0.  1.
         -5    1    3    3    0  501  0.24124116974E+02 -0.23763458488E+02  0.64267773836E+02  0.72643180911E+02  0.10000000000E+00 0.  1.
          2    1    1    2  502    0  0.52306032682E+02  0.77148769495E+02 -0.65942333220E+02  0.11417637672E+03  0.00000000000E+00 0.  1.
<mgrwt>
<rscale>  1 0.15592703E+03</rscale>
<asrwt>0</asrwt>
<pdfrwt beam="1">  1       21 0.20899028E-01 0.15592703E+03</pdfrwt>
<pdfrwt beam="2">  1        2 0.22225039E-01 0.15592703E+03</pdfrwt>
<totfact> 0.63893737E+04</totfact>
</mgrwt>
</event>
<event>
 6    2  0.1674964E-002  0.1301332E+03  0.7546771E-02  0.1227258E+00
         21   -1    0    0  502  503  0.00000000000E+00  0.00000000000E+00  0.14920379283E+03  0.14920379283E+03  0.00000000000E+00 0.  1.
          3   -1    0    0  503    0 -0.00000000000E+00 -0.00000000000E+00 -0.67450197049E+02  0.67450197049E+02  0.00000000000E+00 0.  1.
         25    2    1    2    0    0 -0.35609553431E+02 -0.64589810021E+01  0.11027676468E+03  0.17057438598E+03  0.12499959037E+03 0.  0.
          5    1    3    3  501    0  0.41718087255E+02 -0.16499272004E+02  0.69119709827E+02  0.82402482168E+02  0.10000000000E+00 0. -1.
         -5    1    3    3    0  501 -0.77327640686E+02  0.10040291002E+02  0.41157054857E+02  0.88171903813E+02  0.10000000000E+00 0. -1.
          3    1    1    2  502    0  0.35609553431E+02  0.64589810021E+01 -0.28523168902E+02  0.46079603898E+02  0.00000000000E+00 0.  1.
<mgrwt>
<rscale>  1 0.13013323E+03</rscale>
<asrwt>0</asrwt>
<pdfrwt beam="1">  1       21 0.22954430E-01 0.13013323E+03</pdfrwt>
<pdfrwt beam="2">  1        3 0.10376953E-01 0.13013323E+03</pdfrwt>
<totfact> 0.58840151E+04</totfact>
</mgrwt>
</event>
<event>
 6    2  0.1674964E-002  0.1379846E+03  0.7546771E-02  0.1216067E+00
          2   -1    0    0  503    0 -0.00000000000E+00  0.00000000000E+00  0.75441505674E+03  0.75441505674E+03  0.00000000000E+00 0.  1.
         21   -1    0    0  502  503  0.00000000000E+00 -0.00000000000E+00 -0.19339819124E+04  0.19339819124E+04  0.00000000000E+00 0. -1.
         25    2    1    2    0    0 -0.32028844836E+01  0.58353416453E+02 -0.19303837523E+04  0.19353090647E+04  0.12499746120E+03 0.  0.
          5    1    3    3  501    0  0.17957132422E+02 -0.27894034476E+01 -0.14980956086E+04  0.14982058276E+04  0.10000000000E+00 0. -1.
         -5    1    3    3    0  501 -0.21160016906E+02  0.61142819901E+02 -0.43228814363E+03  0.43710323708E+03  0.10000000000E+00 0. -1.
          2    1    1    2  502    0  0.32028844836E+01 -0.58353416453E+02  0.75081689656E+03  0.75308790446E+03  0.00000000000E+00 0.  1.
<mgrwt>
<rscale>  1 0.13798458E+03</rscale>
<asrwt>0</asrwt>
<pdfrwt beam="1">  1       21 0.29753568E+00 0.13798458E+03</pdfrwt>
<pdfrwt beam="2">  1        2 0.11606386E+00 0.13798458E+03</pdfrwt>
<totfact> 0.18711548E+01</totfact>
</mgrwt>
</event>
<event>
 6    2  0.1674964E-002  0.1270749E+03  0.7546771E-02  0.1231862E+00
         21   -1    0    0  502  503  0.00000000000E+00  0.00000000000E+00  0.16860082791E+02  0.16860082791E+02  0.00000000000E+00 0.  1.
          1   -1    0    0  503    0 -0.00000000000E+00 -0.00000000000E+00 -0.14677234813E+04  0.14677234813E+04  0.00000000000E+00 0. -1.
         25    2    1    2    0    0 -0.13955108124E+02 -0.18091757622E+02 -0.22420840373E+03  0.25771579088E+03  0.12500385525E+03 0.  0.
          5    1    3    3  501    0  0.47730633172E+02 -0.36460812134E+02 -0.82233373353E+02  0.10183291147E+03  0.10000000000E+00 0.  1.
         -5    1    3    3    0  501 -0.61685741296E+02  0.18369054512E+02 -0.14197503038E+03  0.15588287941E+03  0.10000000000E+00 0.  1.
          1    1    1    2  502    0  0.13955108124E+02  0.18091757622E+02 -0.12266549948E+04  0.12268677732E+04  0.00000000000E+00 0. -1.
<mgrwt>
<rscale>  1 0.12707486E+03</rscale>
<asrwt>0</asrwt>
<pdfrwt beam="1">  1       21 0.25938585E-02 0.12707486E+03</pdfrwt>
<pdfrwt beam="2">  1        1 0.22580365E+00 0.12707486E+03</pdfrwt>
<totfact> 0.69036536E+04</totfact>
</mgrwt>
</event>
<event>
 6    2  0.1674964E-002  0.1957486E+03  0.7546771E-02  0.1153376E+00
         21   -1    0    0  502  503  0.00000000000E+00  0.00000000000E+00  0.11473185847E+03  0.11473185847E+03  0.00000000000E+00 0. -1.
          2   -1    0    0  503    0 -0.00000000000E+00 -0.00000000000E+00 -0.28317835294E+03  0.28317835294E+03  0.00000000000E+00 0. -1.
         25    2    1    2    0    0  0.13245353731E+03  0.71747833040E+02 -0.39663433767E+02  0.19972653949E+03  0.12500324598E+03 0.  0.
          5    1    3    3  501    0  0.11853533622E+03  0.10050988471E+03 -0.54241048452E+02  0.16460548045E+03  0.10000000000E+00 0.  1.
         -5    1    3    3    0  501  0.13918201094E+02 -0.28762051671E+02  0.14577614685E+02  0.35121059037E+02  0.10000000000E+00 0.  1.
          2    1    1    2  502    0 -0.13245353731E+03 -0.71747833040E+02 -0.12878306071E+03  0.19818367192E+03  0.00000000000E+00 0. -1.
<mgrwt>
<rscale>  1 0.19574857E+03</rscale>
<asrwt>0</asrwt>
<pdfrwt beam="1">  1       21 0.17651056E-01 0.19574857E+03</pdfrwt>
<pdfrwt beam="2">  1        2 0.43565899E-01 0.19574857E+03</pdfrwt>
<totfact> 0.41989080E+04</totfact>
</mgrwt>
</event>
<event>
 6    2  0.1674964E-002  0.1274629E+03  0.7546771E-02  0.1231270E+00
          1   -1    0    0  503    0 -0.00000000000E+00  0.00000000000E+00  0.12347423642E+04  0.12347423642E+04  0.00000000000E+00 0. -1.
         21   -1    0    0  502  503  0.00000000000E+00 -0.00000000000E+00 -0.45811429229E+02  0.45811429229E+02  0.00000000000E+00 0. -1.
         25    2    1    2    0    0  0.15249075346E+02 -0.19720007570E+02  0.43248533664E+02  0.13460022645E+03  0.12500148919E+03 0.  0.
          5    1    3    3  501    0 -0.20362473665E+02 -0.58749744654E+02  0.51986293929E+02  0.81047810502E+02  0.10000000000E+00 0.  1.
         -5    1    3    3    0  501  0.35611549011E+02  0.39029737084E+02 -0.87377602648E+01  0.53552415952E+02  0.10000000000E+00 0.  1.
          1    1    1    2  502    0 -0.15249075346E+02  0.19720007570E+02  0.11456824013E+04  0.11459535669E+04  0.00000000000E+00 0. -1.
<mgrwt>
<rscale>  1 0.12746288E+03</rscale>
<asrwt>0</asrwt>
<pdfrwt beam="1">  1       21 0.70479131E-02 0.12746288E+03</pdfrwt>
<pdfrwt beam="2">  1        1 0.18996034E+00 0.12746288E+03</pdfrwt>
<totfact> 0.18589291E+04</totfact>
</mgrwt>
</event>
<event>
 6    2  0.1674964E-002  0.1266354E+03  0.7546771E-02  0.1232535E+00
          2   -1    0    0  503    0 -0.00000000000E+00  0.00000000000E+00  0.61973223123E+02  0.61973223123E+02  0.00000000000E+00 0.  1.
         21   -1    0    0  502  503  0.00000000000E+00 -0.00000000000E+00 -0.90689761165E+02  0.90689761165E+02  0.00000000000E+00 0.  1.
         25    2    1    2    0    0 -0.20068066611E+02  0.19504074830E+01 -0.13399744124E+02  0.12734232942E+03  0.12501993575E+03 0.  0.
          5    1    3    3  501    0  0.20923624517E+02  0.55294285025E+02 -0.10177631838E+02  0.59990417645E+02  0.10000000000E+00 0. -1.
         -5    1    3    3    0  501 -0.40991691128E+02 -0.53343877542E+02 -0.32221122862E+01  0.67351911779E+02  0.10000000000E+00 0. -1.
          2    1    1    2  502    0  0.20068066611E+02 -0.19504074830E+01 -0.15316793918E+02  0.25320654864E+02  0.00000000000E+00 0.  1.
<mgrwt>
<rscale>  1 0.12663537E+03</rscale>
<asrwt>0</asrwt>
<pdfrwt beam="1">  1       21 0.13952271E-01 0.12663537E+03</pdfrwt>
<pdfrwt beam="2">  1        2 0.95343420E-02 0.12663537E+03</pdfrwt>
<totfact> 0.35823686E+05</totfact>
</mgrwt>
</event>
<event>
 6    2  0.1674964E-002  0.1520361E+03  0.7546771E-02  0.1197993E+00
         21   -1    0    0  502  503  0.00000000000E+00  0.00000000000E+00  0.12007262891E+03  0.12007262891E+03  0.00000000000E+00 0. -1.
          2   -1    0    0  503    0 -0.00000000000E+00 -0.00000000000E+00 -0.30504972532E+03  0.30504972532E+03  0.00000000000E+00 0. -1.
         25    2    1    2    0    0  0.26695758866E+02  0.82344240691E+02 -0.26611110646E+03  0.30648018170E+03  0.12498697242E+03 0.  0.
          5    1    3    3  501    0 -0.45630426921E+02  0.57135277965E+01 -0.94611063074E+02  0.10519526376E+03  0.10000000000E+00 0. -1.
         -5    1    3    3    0  501  0.72326185786E+02  0.76630712894E+02 -0.17150004339E+03  0.20128491794E+03  0.10000000000E+00 0. -1.
          2    1    1    2  502    0 -0.26695758866E+02 -0.82344240691E+02  0.81134010054E+02  0.11864217254E+03  0.00000000000E+00 0. -1.
<mgrwt>
<rscale>  1 0.15203612E+03</rscale>
<asrwt>0</asrwt>
<pdfrwt beam="1">  1       21 0.18472712E-01 0.15203612E+03</pdfrwt>
<pdfrwt beam="2">  1        2 0.46930727E-01 0.15203612E+03</pdfrwt>
<totfact> 0.35691696E+04</totfact>
</mgrwt>
</event>
<event>
 6    2  0.1674964E-002  0.1293088E+03  0.7546771E-02  0.1228485E+00
          2   -1    0    0  503    0 -0.00000000000E+00  0.00000000000E+00  0.24160213399E+04  0.24160213399E+04  0.00000000000E+00 0. -1.
         21   -1    0    0  502  503  0.00000000000E+00 -0.00000000000E+00 -0.42052950073E+02  0.42052950073E+02  0.00000000000E+00 0. -1.
         25    2    1    2    0    0  0.23190068662E+02 -0.23604796015E+02  0.57748409961E+02  0.14161795306E+03  0.12500320035E+03 0.  0.
          5    1    3    3  501    0  0.74323266355E+02 -0.22806513190E+02  0.40412074211E+02  0.87619807735E+02  0.10000000000E+00 0. -1.
         -5    1    3    3    0  501 -0.51133197692E+02 -0.79828282509E+00  0.17336335750E+02  0.53998145329E+02  0.10000000000E+00 0. -1.
          2    1    1    2  502    0 -0.23190068662E+02  0.23604796015E+02  0.23162199798E+04  0.23164563369E+04  0.00000000000E+00 0. -1.
<mgrwt>
<rscale>  1 0.12930880E+03</rscale>
<asrwt>0</asrwt>
<pdfrwt beam="1">  1       21 0.64696865E-02 0.12930880E+03</pdfrwt>
<pdfrwt beam="2">  1        2 0.37169548E+00 0.12930880E+03</pdfrwt>
<totfact> 0.10425783E+04</totfact>
</mgrwt>
</event>
<event>
 6    2  0.1674964E-002  0.1262465E+03  0.7546771E-02  0.1233134E+00
         21   -1    0    0  502  503  0.00000000000E+00  0.00000000000E+00  0.20424298227E+02  0.20424298227E+02  0.00000000000E+00 0. -1.
          4   -1    0    0  503    0 -0.00000000000E+00 -0.00000000000E+00 -0.66814453886E+03  0.66814453886E+03  0.00000000000E+00 0.  1.
         25    2    1    2    0    0  0.13305863852E+02  0.11775430740E+02 -0.17644391487E+03  0.21695768157E+03  0.12498989446E+03 0.  0.
          5    1    3    3  501    0 -0.53240629339E+01 -0.32656052364E+02  0.98676090281E+00  0.33102070920E+02  0.10000000000E+00 0. -1.
         -5    1    3    3    0  501  0.18629926786E+02  0.44431483105E+02 -0.17743067577E+03  0.18385561065E+03  0.10000000000E+00 0. -1.
          4    1    1    2  502    0 -0.13305863852E+02 -0.11775430740E+02 -0.47127632577E+03  0.47161115552E+03  0.00000000000E+00 0.  1.
<mgrwt>
<rscale>  1 0.12624651E+03</rscale>
<asrwt>0</asrwt>
<pdfrwt beam="1">  1       21 0.31421997E-02 0.12624651E+03</pdfrwt>
<pdfrwt beam="2">  1        4 0.10279147E+00 0.12624651E+03</pdfrwt>
<totfact> 0.18962194E+04</totfact>
</mgrwt>
</event>
<event>
 6    2  0.1674964E-002  0.1532457E+03  0.7546771E-02  0.1196540E+00
         21   -1    0    0  502  503  0.00000000000E+00  0.00000000000E+00  0.10797863145E+03  0.10797863145E+03  0.00000000000E+00 0. -1.
          2   -1    0    0  503    0 -0.00000000000E+00 -0.00000000000E+00 -0.36767677569E+03  0.36767677569E+03  0.00000000000E+00 0.  1.
         25    2    1    2    0    0  0.69456343804E+02  0.55091223082E+02  0.43874734859E+02  0.15940278742E+03  0.12500011889E+03 0.  0.
          5    1    3    3  501    0  0.57115045777E+02  0.44204749150E+02 -0.33987248417E+02  0.79820619871E+02  0.10000000000E+00 0. -1.
         -5    1    3    3    0  501  0.12341298027E+02  0.10886473932E+02  0.77861983276E+02  0.79582167546E+02  0.10000000000E+00 0. -1.
          2    1    1    2  502    0 -0.69456343804E+02 -0.55091223082E+02 -0.30357287910E+03  0.31625261972E+03  0.00000000000E+00 0.  1.
<mgrwt>
<rscale>  1 0.15324574E+03</rscale>
<asrwt>0</asrwt>
<pdfrwt beam="1">  1       21 0.16612097E-01 0.15324574E+03</pdfrwt>
<pdfrwt beam="2">  1        2 0.56565657E-01 0.15324574E+03</pdfrwt>
<totfact> 0.35540544E+04</totfact>
</mgrwt>
</event>
<event>
 6    2  0.1674964E-002  0.1288308E+03  0.7546771E-02  0.1229201E+00
          2   -1    0    0  503    0 -0.00000000000E+00  0.00000000000E+00  0.53142426786E+02  0.53142426786E+02  0.00000000000E+00 0.  1.
         21   -1    0    0  502  503  0.00000000000E+00 -0.00000000000E+00 -0.16138158386E+03  0.16138158386E+03  0.00000000000E+00 0. -1.
         25    2    1    2    0    0 -0.58473728118E+01  0.30646906655E+02 -0.12465783238E+03  0.17926784019E+03  0.12499583471E+03 0.  0.
          5    1    3    3  501    0  0.51986025717E+02  0.97210898675E+01 -0.99768849828E+02  0.11291979390E+03  0.10000000000E+00 0. -1.
         -5    1    3    3    0  501 -0.57833398528E+02  0.20925816787E+02 -0.24888982554E+02  0.66348046287E+02  0.10000000000E+00 0. -1.
          2    1    1    2  502    0  0.58473728118E+01 -0.30646906655E+02  0.16418675312E+02  0.35256170457E+02  0.00000000000E+00 0.  1.
<mgrwt>
<rscale>  1 0.12883083E+03</rscale>
<asrwt>0</asrwt>
<pdfrwt beam="1">  1       21 0.24827936E-01 0.12883083E+03</pdfrwt>
<pdfrwt beam="2">  1        2 0.81757581E-02 0.12883083E+03</pdfrwt>
<totfact> 0.15052733E+05</totfact>
</mgrwt>
</event>
<event>
 6    2  0.1674964E-002  0.1282824E+03  0.7546771E-02  0.1230027E+00
          1   -1    0    0  503    0 -0.00000000000E+00  0.00000000000E+00  0.15310280652E+03  0.15310280652E+03  0.00000000000E+00 0. -1.
         21   -1    0    0  502  503  0.00000000000E+00 -0.00000000000E+00 -0.61521132390E+03  0.61521132390E+03  0.00000000000E+00 0. -1.
         25    2    1    2    0    0 -0.19239375992E+02 -0.21460290802E+02 -0.60709003913E+03  0.62049552768E+03  0.12500274630E+03 0.  0.
          5    1    3    3  501    0  0.12708798236E+02  0.49151323675E+02 -0.24438729102E+03  0.24960473590E+03  0.10000000000E+00 0.  1.
         -5    1    3    3    0  501 -0.31948174228E+02 -0.70611614476E+02 -0.36270274812E+03  0.37089079178E+03  0.10000000000E+00 0.  1.
          1    1    1    2  502    0  0.19239375992E+02  0.21460290802E+02  0.14498152175E+03  0.14781860275E+03  0.00000000000E+00 0. -1.
<mgrwt>
<rscale>  1 0.12828244E+03</rscale>
<asrwt>0</asrwt>
<pdfrwt beam="1">  1       21 0.94647896E-01 0.12828244E+03</pdfrwt>
<pdfrwt beam="2">  1        1 0.23554278E-01 0.12828244E+03</pdfrwt>
<totfact> 0.21448628E+03</totfact>
</mgrwt>
</event>
<event>
 6    2  0.1674964E-002  0.2171036E+03  0.7546771E-02  0.1136061E+00
         21   -1    0    0  502  503  0.00000000000E+00  0.00000000000E+00  0.63247276271E+02  0.63247276271E+02  0.00000000000E+00 0.  1.
          3   -1    0    0  503    0 -0.00000000000E+00 -0.00000000000E+00 -0.62693936225E+03  0.62693936225E+03  0.00000000000E+00 0.  1.
         25    2    1    2    0    0 -0.29189410680E+02 -0.17509248167E+03 -0.35596092656E+03  0.41694382814E+03  0.12499830299E+03 0.  0.
          5    1    3    3  501    0 -0.94184732874E+01 -0.63455690183E+01 -0.14785576033E+03  0.14829130031E+03  0.10000000000E+00 0.  1.
         -5    1    3    3    0  501 -0.19770937393E+02 -0.16874691265E+03 -0.20810516624E+03  0.26865252783E+03  0.10000000000E+00 0.  1.
          3    1    1    2  502    0  0.29189410680E+02  0.17509248167E+03 -0.20773115941E+03  0.27324281038E+03  0.00000000000E+00 0.  1.
<mgrwt>
<rscale>  1 0.21710360E+03</rscale>
<asrwt>0</asrwt>
<pdfrwt beam="1">  1       21 0.97303499E-02 0.21710360E+03</pdfrwt>
<pdfrwt beam="2">  1        3 0.96452213E-01 0.21710360E+03</pdfrwt>
<totfact> 0.41511223E+03</totfact>
</mgrwt>
</event>
<event>
 6    2  0.1674964E-002  0.1259115E+03  0.7546771E-02  0.1233652E+00
          2   -1    0    0  503    0 -0.00000000000E+00  0.00000000000E+00  0.56331998638E+03  0.56331998638E+03  0.00000000000E+00 0. -1.
         21   -1    0    0  502  503  0.00000000000E+00 -0.00000000000E+00 -0.71319580871E+02  0.71319580871E+02  0.00000000000E+00 0.  1.
         25    2    1    2    0    0 -0.10342297564E+02  0.11097203451E+02 -0.15545015117E+02  0.12686750713E+03  0.12499442318E+03 0.  0.
          5    1    3    3  501    0 -0.33198205248E+02  0.61879275090E+02 -0.88648921447E+01  0.70779671023E+02  0.10000000000E+00 0. -1.
         -5    1    3    3    0  501  0.22855907684E+02 -0.50782071639E+02 -0.66801229719E+01  0.56087836105E+02  0.10000000000E+00 0. -1.
          2    1    1    2  502    0  0.10342297564E+02 -0.11097203451E+02  0.50754542062E+03  0.50777206012E+03  0.00000000000E+00 0. -1.
<mgrwt>
<rscale>  1 0.12591154E+03</rscale>
<asrwt>0</asrwt>
<pdfrwt beam="1">  1       21 0.10972244E-01 0.12591154E+03</pdfrwt>
<pdfrwt beam="2">  1        2 0.86664610E-01 0.12591154E+03</pdfrwt>
<totfact> 0.46964810E+04</totfact>
</mgrwt>
</event>
<event>
 6    2  0.1674964E-002  0.1266186E+03  0.7546771E-02  0.1232561E+00
          1   -1    0    0  503    0 -0.00000000000E+00  0.00000000000E+00  0.82490177943E+03  0.82490177943E+03  0.00000000000E+00 0.  1.
         21   -1    0    0  502  503  0.00000000000E+00 -0.00000000000E+00 -0.70796325188E+01  0.70796325188E+01  0.00000000000E+00 0.  1.
         25    2    1    2    0    0 -0.15157134740E+02 -0.13282155449E+02  0.59917861457E+03  0.61241103913E+03  0.12500445711E+03 0.  0.
          5    1    3    3  501    0 -0.48112490897E+02 -0.54300123988E+02  0.30053123118E+03  0.30916394706E+03  0.10000000000E+00 0.  1.
         -5    1    3    3    0  501  0.32955356157E+02  0.41017968539E+02  0.29864738339E+03  0.30324709207E+03  0.10000000000E+00 0.  1.
          1    1    1    2  502    0  0.15157134740E+02  0.13282155449E+02  0.21864353234E+03  0.21957037282E+03  0.00000000000E+00 0.  1.
<mgrwt>
<rscale>  1 0.12661860E+03</rscale>
<asrwt>0</asrwt>
<pdfrwt beam="1">  1       21 0.10891749E-02 0.12661860E+03</pdfrwt>
<pdfrwt beam="2">  1        1 0.12690789E+00 0.12661860E+03</pdfrwt>
<totfact> 0.78548436E+05</totfact>
</mgrwt>
</event>
<event>
 6    2  0.1674964E-002  0.1510587E+03  0.7546771E-02  0.1199178E+00
          1   -1    0    0  503    0 -0.00000000000E+00  0.00000000000E+00  0.16577266780E+04  0.16577266780E+04  0.00000000000E+00 0. -1.
         21   -1    0    0  502  503  0.00000000000E+00 -0.00000000000E+00 -0.46339504096E+02  0.46339504096E+02  0.00000000000E+00 0. -1.
         25    2    1    2    0    0  0.75848075535E+02 -0.37975411345E+02  0.81142926239E+02  0.17147278529E+03  0.12499471663E+03 0.  0.
          5    1    3    3  501    0  0.89087422550E+02 -0.72002128588E+02  0.61728748913E+02  0.13012042046E+03  0.10000000000E+00 0.  1.
         -5    1    3    3    0  501 -0.13239347015E+02  0.34026717243E+02  0.19414177326E+02  0.41352364829E+02  0.10000000000E+00 0.  1.
          1    1    1    2  502    0 -0.75848075535E+02  0.37975411345E+02  0.15302442477E+04  0.15325933968E+04  0.00000000000E+00 0. -1.
<mgrwt>
<rscale>  1 0.15105874E+03</rscale>
<asrwt>0</asrwt>
<pdfrwt beam="1">  1       21 0.71291558E-02 0.15105874E+03</pdfrwt>
<pdfrwt beam="2">  1        1 0.25503483E+00 0.15105874E+03</pdfrwt>
<totfact> 0.95543455E+03</totfact>
</mgrwt>
</event>
<event>
 6    2  0.1674964E-002  0.1363769E+03  0.7546771E-02  0.1218289E+00
         21   -1    0    0  502  503  0.00000000000E+00  0.00000000000E+00  0.99652532477E+02  0.99652532477E+02  0.00000000000E+00 0.  1.
          2   -1    0    0  503    0 -0.00000000000E+00 -0.00000000000E+00 -0.17984388863E+03  0.17984388863E+03  0.00000000000E+00 0.  1.
         25    2    1    2    0    0  0.28899256398E+02  0.46245777637E+02  0.44457747340E+02  0.14344041069E+03  0.12499928460E+03 0.  0.
          5    1    3    3  501    0  0.75416992198E+02  0.38699305525E+02  0.45694354657E+02  0.96298198362E+02  0.10000000000E+00 0. -1.
         -5    1    3    3    0  501 -0.46517735799E+02  0.75464721117E+01 -0.12366073161E+01  0.47142212325E+02  0.10000000000E+00 0. -1.
          2    1    1    2  502    0 -0.28899256398E+02 -0.46245777637E+02 -0.12464910349E+03  0.13605601042E+03  0.00000000000E+00 0.  1.
<mgrwt>
<rscale>  1 0.13637690E+03</rscale>
<asrwt>0</asrwt>
<pdfrwt beam="1">  1       21 0.15331159E-01 0.13637690E+03</pdfrwt>
<pdfrwt beam="2">  1        2 0.27668290E-01 0.13637690E+03</pdfrwt>
<totfact> 0.88264285E+04</totfact>
</mgrwt>
</event>
<event>
 6    2  0.1674964E-002  0.1276381E+03  0.7546771E-02  0.1231003E+00
          1   -1    0    0  503    0 -0.00000000000E+00  0.00000000000E+00  0.39343286894E+02  0.39343286894E+02  0.00000000000E+00 0.  1.
         21   -1    0    0  502  503  0.00000000000E+00 -0.00000000000E+00 -0.16135656163E+03  0.16135656163E+03  0.00000000000E+00 0.  1.
         25    2    1    2    0    0  0.24418325473E+02 -0.84184264100E+01 -0.11933085141E+03  0.17473217792E+03  0.12499742949E+03 0.  0.
          5    1    3    3  501    0  0.51283235762E+02  0.16462224063E+02 -0.12643814481E+03  0.13743212708E+03  0.10000000000E+00 0. -1.
         -5    1    3    3    0  501 -0.26864910290E+02 -0.24880650473E+02  0.71072933977E+01  0.37300050835E+02  0.10000000000E+00 0. -1.
          1    1    1    2  502    0 -0.24418325473E+02  0.84184264100E+01 -0.26824233284E+01  0.25967670612E+02  0.00000000000E+00 0.  1.
<mgrwt>
<rscale>  1 0.12763809E+03</rscale>
<asrwt>0</asrwt>
<pdfrwt beam="1">  1       21 0.24824086E-01 0.12763809E+03</pdfrwt>
<pdfrwt beam="2">  1        1 0.60528134E-02 0.12763809E+03</pdfrwt>
<totfact> 0.20222804E+05</totfact>
</mgrwt>
</event>
<event>
 6    2  0.1674964E-002  0.1329687E+03  0.7546771E-02  0.1223116E+00
          2   -1    0    0  503    0 -0.00000000000E+00  0.00000000000E+00  0.89612075155E+03  0.89612075155E+03  0.00000000000E+00 0. -1.
         21   -1    0    0  502  503  0.00000000000E+00 -0.00000000000E+00 -0.50195716240E+02  0.50195716240E+02  0.00000000000E+00 0.  1.
         25    2    1    2    0    0  0.42838551514E+02  0.14841108764E+02  0.39631198691E+02  0.13874903966E+03  0.12500105636E+03 0.  0.
          5    1    3    3  501    0 -0.22023864369E+02  0.25649141630E+02  0.60886147902E+02  0.69642387053E+02  0.10000000000E+00 0.  1.
         -5    1    3    3    0  501  0.64862415883E+02 -0.10808032867E+02 -0.21254949211E+02  0.69106652607E+02  0.10000000000E+00 0.  1.
          2    1    1    2  502    0 -0.42838551514E+02 -0.14841108764E+02  0.80629383662E+03  0.80756742813E+03  0.00000000000E+00 0. -1.
<mgrwt>
<rscale>  1 0.13296866E+03</rscale>
<asrwt>0</asrwt>
<pdfrwt beam="1">  1       21 0.77224185E-02 0.13296866E+03</pdfrwt>
<pdfrwt beam="2">  1        2 0.13786472E+00 0.13296866E+03</pdfrwt>
<totfact> 0.49647072E+04</totfact>
</mgrwt>
</event>
<event>
 6    2  0.1674964E-002  0.1326306E+03  0.7546771E-02  0.1223604E+00
         21   -1    0    0  502  503  0.00000000000E+00  0.00000000000E+00  0.11445786700E+03  0.11445786700E+03  0.00000000000E+00 0. -1.
          2   -1    0    0  503    0 -0.00000000000E+00 -0.00000000000E+00 -0.91979767874E+02  0.91979767874E+02  0.00000000000E+00 0. -1.
         25    2    1    2    0    0 -0.33820169302E+02  0.28659780295E+02  0.62586372670E+02  0.14665586118E+03  0.12500280284E+03 0.  0.
          5    1    3    3  501    0 -0.15881967524E+02  0.75274042883E+02  0.16469115783E+02  0.78674393541E+02  0.10000000000E+00 0. -1.
         -5    1    3    3    0  501 -0.17938201778E+02 -0.46614262589E+02  0.46117256887E+02  0.67981467640E+02  0.10000000000E+00 0. -1.
          2    1    1    2  502    0  0.33820169302E+02 -0.28659780295E+02 -0.40108273548E+02  0.59781773687E+02  0.00000000000E+00 0. -1.
<mgrwt>
<rscale>  1 0.13263064E+03</rscale>
<asrwt>0</asrwt>
<pdfrwt beam="1">  1       21 0.17608903E-01 0.13263064E+03</pdfrwt>
<pdfrwt beam="2">  1        2 0.14150734E-01 0.13263064E+03</pdfrwt>
<totfact> 0.14651798E+05</totfact>
</mgrwt>
</event>
<event>
 6    2  0.1674964E-002  0.1370083E+03  0.7546771E-02  0.1217412E+00
         21   -1    0    0  502  503  0.00000000000E+00  0.00000000000E+00  0.51028428264E+03  0.51028428264E+03  0.00000000000E+00 0.  1.
          1   -1    0    0  503    0 -0.00000000000E+00 -0.00000000000E+00 -0.18919689985E+02  0.18919689985E+02  0.00000000000E+00 0. -1.
         25    2    1    2    0    0 -0.16895969038E+02 -0.53485711871E+02  0.30033248544E+03  0.33010736007E+03  0.12500028887E+03 0.  0.
          5    1    3    3  501    0  0.44269422577E+02 -0.59144109627E+02  0.13779493662E+03  0.15634980664E+03  0.10000000000E+00 0.  1.
         -5    1    3    3    0  501 -0.61165391615E+02  0.56583977561E+01  0.16253754882E+03  0.17375755343E+03  0.10000000000E+00 0.  1.
          1    1    1    2  502    0  0.16895969038E+02  0.53485711871E+02  0.19103210721E+03  0.19909661255E+03  0.00000000000E+00 0. -1.
<mgrwt>
<rscale>  1 0.13700827E+03</rscale>
<asrwt>0</asrwt>
<pdfrwt beam="1">  1       21 0.78505264E-01 0.13700827E+03</pdfrwt>
<pdfrwt beam="2">  1        1 0.29107219E-02 0.13700827E+03</pdfrwt>
<totfact> 0.53026767E+04</totfact>
</mgrwt>
</event>
<event>
 6    2  0.1674964E-002  0.1270447E+03  0.7546771E-02  0.1231908E+00
          2   -1    0    0  503    0 -0.00000000000E+00  0.00000000000E+00  0.79206313020E+03  0.79206313020E+03  0.00000000000E+00 0. -1.
         21   -1    0    0  502  503  0.00000000000E+00 -0.00000000000E+00 -0.73663941904E+03  0.73663941904E+03  0.00000000000E+00 0.  1.
         25    2    1    2    0    0  0.12678780720E+02 -0.18567901110E+02 -0.73099985321E+03  0.74195764711E+03  0.12503937894E+03 0.  0.
          5    1    3    3  501    0  0.37720951723E+02 -0.59354758114E+02 -0.29168369800E+03  0.30004207570E+03  0.10000000000E+00 0. -1.
         -5    1    3    3    0  501 -0.25042171003E+02  0.40786857004E+02 -0.43931615521E+03  0.44191557142E+03  0.10000000000E+00 0. -1.
          2    1    1    2  502    0 -0.12678780720E+02  0.18567901110E+02  0.78642356437E+03  0.78674490213E+03  0.00000000000E+00 0. -1.
<mgrwt>
<rscale>  1 0.12704474E+03</rscale>
<asrwt>0</asrwt>
<pdfrwt beam="1">  1       21 0.11332914E+00 0.12704474E+03</pdfrwt>
<pdfrwt beam="2">  1        2 0.12185587E+00 0.12704474E+03</pdfrwt>
<totfact> 0.29321417E+02</totfact>
</mgrwt>
</event>
<event>
 6    2  0.1674964E-002  0.1365423E+03  0.7546771E-02  0.1218059E+00
          1   -1    0    0  503    0 -0.00000000000E+00  0.00000000000E+00  0.86420106981E+02  0.86420106981E+02  0.00000000000E+00 0. -1.
         21   -1    0    0  502  503  0.00000000000E+00 -0.00000000000E+00 -0.46891925088E+03  0.46891925088E+03  0.00000000000E+00 0. -1.
         25    2    1    2    0    0  0.51162746798E+02 -0.19959194773E+02 -0.44887899371E+03  0.46918669931E+03  0.12501124628E+03 0.  0.
          5    1    3    3  501    0 -0.57383463702E+01  0.74775410866E+01 -0.36011942672E+03  0.36024277056E+03  0.10000000000E+00 0. -1.
         -5    1    3    3    0  501  0.56901093168E+02 -0.27436735860E+02 -0.88759566985E+02  0.10894392874E+03  0.10000000000E+00 0. -1.
          1    1    1    2  502    0 -0.51162746798E+02  0.19959194773E+02  0.66379849808E+02  0.86152658557E+02  0.00000000000E+00 0. -1.
<mgrwt>
<rscale>  1 0.13654233E+03</rscale>
<asrwt>0</asrwt>
<pdfrwt beam="1">  1       21 0.72141423E-01 0.13654233E+03</pdfrwt>
<pdfrwt beam="2">  1        1 0.13295401E-01 0.13654233E+03</pdfrwt>
<totfact> 0.81938101E+03</totfact>
</mgrwt>
</event>
<event>
 6    2  0.1674964E-002  0.1853344E+03  0.7546771E-02  0.1162738E+00
         21   -1    0    0  502  503  0.00000000000E+00  0.00000000000E+00  0.24000747718E+03  0.24000747718E+03  0.00000000000E+00 0. -1.
          3   -1    0    0  503    0 -0.00000000000E+00 -0.00000000000E+00 -0.21596095341E+03  0.21596095341E+03  0.00000000000E+00 0. -1.
         25    2    1    2    0    0  0.11901229335E+03  0.67518784480E+02  0.17312391536E+03  0.25361532113E+03  0.12500451520E+03 0.  0.
          5    1    3    3  501    0  0.34913938417E+02  0.19561747883E+02 -0.14435336924E+02  0.42544494687E+02  0.10000000000E+00 0. -1.
         -5    1    3    3    0  501  0.84098354929E+02  0.47957036597E+02  0.18755925228E+03  0.21107082645E+03  0.10000000000E+00 0. -1.
          3    1    1    2  502    0 -0.11901229335E+03 -0.67518784480E+02 -0.14907739159E+03  0.20235310946E+03  0.00000000000E+00 0. -1.
<mgrwt>
<rscale>  1 0.18533440E+03</rscale>
<asrwt>0</asrwt>
<pdfrwt beam="1">  1       21 0.36924228E-01 0.18533440E+03</pdfrwt>
<pdfrwt beam="2">  1        3 0.33224762E-01 0.18533440E+03</pdfrwt>
<totfact> 0.30914738E+03</totfact>
</mgrwt>
</event>
<event>
 6    2  0.1674964E-002  0.1261855E+03  0.7546771E-02  0.1233228E+00
         21   -1    0    0  502  503  0.00000000000E+00  0.00000000000E+00  0.28619973082E+02  0.28619973082E+02  0.00000000000E+00 0.  1.
          2   -1    0    0  503    0 -0.00000000000E+00 -0.00000000000E+00 -0.30481307920E+03  0.30481307920E+03  0.00000000000E+00 0.  1.
         25    2    1    2    0    0 -0.11335812518E+02  0.13105534313E+02 -0.11319551293E+03  0.16951700347E+03  0.12499013818E+03 0.  0.
          5    1    3    3  501    0 -0.12782547596E+02 -0.49324969000E+02 -0.88984203235E+02  0.10254045307E+03  0.10000000000E+00 0. -1.
         -5    1    3    3    0  501  0.14467350773E+01  0.62430503312E+02 -0.24211309698E+02  0.66976550400E+02  0.10000000000E+00 0. -1.
          2    1    1    2  502    0  0.11335812518E+02 -0.13105534313E+02 -0.16299759319E+03  0.16391604882E+03  0.00000000000E+00 0.  1.
<mgrwt>
<rscale>  1 0.12618554E+03</rscale>
<asrwt>0</asrwt>
<pdfrwt beam="1">  1       21 0.44030727E-02 0.12618554E+03</pdfrwt>
<pdfrwt beam="2">  1        2 0.46894321E-01 0.12618554E+03</pdfrwt>
<totfact> 0.43351869E+05</totfact>
</mgrwt>
</event>
<event>
 6    2  0.1674964E-002  0.1274451E+03  0.7546771E-02  0.1231297E+00
          1   -1    0    0  503    0 -0.00000000000E+00  0.00000000000E+00  0.25182012930E+03  0.25182012930E+03  0.00000000000E+00 0.  1.
         21   -1    0    0  502  503  0.00000000000E+00 -0.00000000000E+00 -0.77774239139E+02  0.77774239139E+02  0.00000000000E+00 0.  1.
         25    2    1    2    0    0 -0.11334133300E+02 -0.22102489635E+02 -0.24264510541E+02  0.12973442335E+03  0.12500108601E+03 0.  0.
          5    1    3    3  501    0  0.22944392895E+02 -0.21468438228E+02  0.43575586555E+02  0.53723186325E+02  0.10000000000E+00 0.  1.
         -5    1    3    3    0  501 -0.34278526195E+02 -0.63405140668E+00 -0.67840097097E+02  0.76011237021E+02  0.10000000000E+00 0.  1.
          1    1    1    2  502    0  0.11334133300E+02  0.22102489635E+02  0.19831040070E+03  0.19985994509E+03  0.00000000000E+00 0.  1.
<mgrwt>
<rscale>  1 0.12744510E+03</rscale>
<asrwt>0</asrwt>
<pdfrwt beam="1">  1       21 0.11965268E-01 0.12744510E+03</pdfrwt>
<pdfrwt beam="2">  1        1 0.38741558E-01 0.12744510E+03</pdfrwt>
<totfact> 0.69766261E+04</totfact>
</mgrwt>
</event>
<event>
 6    2  0.1674964E-002  0.1316517E+03  0.7546771E-02  0.1225025E+00
         21   -1    0    0  502  503  0.00000000000E+00  0.00000000000E+00  0.58479432042E+02  0.58479432042E+02  0.00000000000E+00 0.  1.
          1   -1    0    0  503    0 -0.00000000000E+00 -0.00000000000E+00 -0.70926374728E+03  0.70926374728E+03  0.00000000000E+00 0. -1.
         25    2    1    2    0    0 -0.21663209141E+02  0.35188623766E+02 -0.17151360067E+02  0.13276423814E+03  0.12499855960E+03 0.  0.
          5    1    3    3  501    0  0.49722442976E+02  0.33575847273E+02 -0.37560977984E+01  0.60114699751E+02  0.10000000000E+00 0. -1.
         -5    1    3    3    0  501 -0.71385652117E+02  0.16127764936E+01 -0.13395262269E+02  0.72649538384E+02  0.10000000000E+00 0. -1.
          1    1    1    2  502    0  0.21663209141E+02 -0.35188623766E+02 -0.63363295518E+03  0.63497894119E+03  0.00000000000E+00 0. -1.
<mgrwt>
<rscale>  1 0.13165171E+03</rscale>
<asrwt>0</asrwt>
<pdfrwt beam="1">  1       21 0.89968360E-02 0.13165171E+03</pdfrwt>
<pdfrwt beam="2">  1        1 0.10911750E+00 0.13165171E+03</pdfrwt>
<totfact> 0.30284304E+04</totfact>
</mgrwt>
</event>
<event>
 6    2  0.1674964E-002  0.1431108E+03  0.7546771E-02  0.1209203E+00
          2   -1    0    0  503    0 -0.00000000000E+00  0.00000000000E+00  0.61970737587E+03  0.61970737587E+03  0.00000000000E+00 0. -1.
         21   -1    0    0  502  503  0.00000000000E+00 -0.00000000000E+00 -0.20612735823E+03  0.20612735823E+03  0.00000000000E+00 0.  1.
         25    2    1    2    0    0 -0.19960162837E+02  0.66748433312E+02 -0.17899843270E+03  0.22917488020E+03  0.12500770120E+03 0.  0.
          5    1    3    3  501    0  0.68102611396E+01 -0.23030946217E+02 -0.11060017469E+03  0.11317779280E+03  0.10000000000E+00 0. -1.
         -5    1    3    3    0  501 -0.26770423976E+02  0.89779379529E+02 -0.68398258001E+02  0.11599708740E+03  0.10000000000E+00 0. -1.
          2    1    1    2  502    0  0.19960162837E+02 -0.66748433312E+02  0.59257845033E+03  0.59665985389E+03  0.00000000000E+00 0. -1.
<mgrwt>
<rscale>  1 0.14311075E+03</rscale>
<asrwt>0</asrwt>
<pdfrwt beam="1">  1       21 0.31711901E-01 0.14311075E+03</pdfrwt>
<pdfrwt beam="2">  1        2 0.95339596E-01 0.14311075E+03</pdfrwt>
<totfact> 0.59410057E+03</totfact>
</mgrwt>
</event>
<event>
 6    2  0.1674964E-002  0.1363735E+03  0.7546771E-02  0.1218294E+00
         21   -1    0    0  502  503  0.00000000000E+00  0.00000000000E+00  0.42744017425E+03  0.42744017425E+03  0.00000000000E+00 0.  1.
          4   -1    0    0  503    0 -0.00000000000E+00 -0.00000000000E+00 -0.26282930978E+02  0.26282930978E+02  0.00000000000E+00 0.  1.
         25    2    1    2    0    0 -0.41994099319E+02 -0.34768626020E+02  0.36132215424E+03  0.38620128616E+03  0.12500149019E+03 0.  0.
          5    1    3    3  501    0 -0.25071566699E+02  0.13731727544E+02  0.87332590592E+01  0.29890192570E+02  0.10000000000E+00 0. -1.
         -5    1    3    3    0  501 -0.16922532620E+02 -0.48500353563E+02  0.35258889518E+03  0.35631109359E+03  0.10000000000E+00 0. -1.
          4    1    1    2  502    0  0.41994099319E+02  0.34768626020E+02  0.39835089032E+02  0.67521819074E+02  0.00000000000E+00 0.  1.
<mgrwt>
<rscale>  1 0.13637351E+03</rscale>
<asrwt>0</asrwt>
<pdfrwt beam="1">  1       21 0.65760022E-01 0.13637351E+03</pdfrwt>
<pdfrwt beam="2">  1        4 0.40435282E-02 0.13637351E+03</pdfrwt>
<totfact> 0.29263491E+04</totfact>
</mgrwt>
</event>
<event>
 6    2  0.1674964E-002  0.1488049E+03  0.7546771E-02  0.1201949E+00
          4   -1    0    0  503    0 -0.00000000000E+00  0.00000000000E+00  0.46503950773E+03  0.46503950773E+03  0.00000000000E+00 0. -1.
         21   -1    0    0  502  503  0.00000000000E+00 -0.00000000000E+00 -0.81667495591E+03  0.81667495591E+03  0.00000000000E+00 0. -1.
         25    2    1    2    0    0 -0.80705112825E+02  0.25764476201E+01 -0.80630980428E+03  0.81992585029E+03  0.12499178447E+03 0.  0.
          5    1    3    3  501    0 -0.70440811519E+01 -0.34691554907E+02 -0.53895194377E+03  0.54011325734E+03  0.10000000000E+00 0.  1.
         -5    1    3    3    0  501 -0.73661031673E+02  0.37268002528E+02 -0.26735786051E+03  0.27981259296E+03  0.10000000000E+00 0.  1.
          4    1    1    2  502    0  0.80705112825E+02 -0.25764476201E+01  0.45467435611E+03  0.46178861335E+03  0.00000000000E+00 0. -1.
<mgrwt>
<rscale>  1 0.14880490E+03</rscale>
<asrwt>0</asrwt>
<pdfrwt beam="1">  1       21 0.12564230E+00 0.14880490E+03</pdfrwt>
<pdfrwt beam="2">  1        4 0.71544541E-01 0.14880490E+03</pdfrwt>
<totfact> 0.36696343E+01</totfact>
</mgrwt>
</event>
<event>
 6    2  0.1674964E-002  0.1290610E+03  0.7546771E-02  0.1228856E+00
          1   -1    0    0  503    0 -0.00000000000E+00  0.00000000000E+00  0.25305883637E+03  0.25305883637E+03  0.00000000000E+00 0.  1.
         21   -1    0    0  502  503  0.00000000000E+00 -0.00000000000E+00 -0.41629573416E+02  0.41629573416E+02  0.00000000000E+00 0.  1.
         25    2    1    2    0    0  0.25502403282E+02 -0.19563737138E+02  0.64493127060E+02  0.14427783697E+03  0.12499447355E+03 0.  0.
          5    1    3    3  501    0 -0.30082194568E+02 -0.23423446559E+02  0.78111155732E+02  0.86919266728E+02  0.10000000000E+00 0.  1.
         -5    1    3    3    0  501  0.55584597850E+02  0.38597094214E+01 -0.13618028673E+02  0.57358570239E+02  0.10000000000E+00 0.  1.
          1    1    1    2  502    0 -0.25502403282E+02  0.19563737138E+02  0.14693613589E+03  0.15041057281E+03  0.00000000000E+00 0.  1.
<mgrwt>
<rscale>  1 0.12906096E+03</rscale>
<asrwt>0</asrwt>
<pdfrwt beam="1">  1       21 0.64045499E-02 0.12906096E+03</pdfrwt>
<pdfrwt beam="2">  1        1 0.38932128E-01 0.12906096E+03</pdfrwt>
<totfact> 0.20515186E+05</totfact>
</mgrwt>
</event>
<event>
 6    2  0.1674964E-002  0.1263213E+03  0.7546771E-02  0.1233019E+00
          2   -1    0    0  503    0 -0.00000000000E+00  0.00000000000E+00  0.61218488729E+03  0.61218488729E+03  0.00000000000E+00 0. -1.
         21   -1    0    0  502  503  0.00000000000E+00 -0.00000000000E+00 -0.29264487459E+03  0.29264487459E+03  0.00000000000E+00 0. -1.
         25    2    1    2    0    0  0.34017783246E+01 -0.17831013113E+02 -0.27886905509E+03  0.30614542975E+03  0.12501022818E+03 0.  0.
          5    1    3    3  501    0 -0.29359223712E+02 -0.34820528105E+02 -0.26135861851E+03  0.26529751349E+03  0.10000000000E+00 0.  1.
         -5    1    3    3    0  501  0.32761002036E+02  0.16989514993E+02 -0.17510436581E+02  0.40847916267E+02  0.10000000000E+00 0.  1.
          2    1    1    2  502    0 -0.34017783246E+01  0.17831013113E+02  0.59840906779E+03  0.59868433213E+03  0.00000000000E+00 0. -1.
<mgrwt>
<rscale>  1 0.12632131E+03</rscale>
<asrwt>0</asrwt>
<pdfrwt beam="1">  1       21 0.45022289E-01 0.12632131E+03</pdfrwt>
<pdfrwt beam="2">  1        2 0.94182290E-01 0.12632131E+03</pdfrwt>
<totfact> 0.30255220E+03</totfact>
</mgrwt>
</event>
<event>
 6    2  0.1674964E-002  0.1277174E+03  0.7546771E-02  0.1230883E+00
         21   -1    0    0  502  503  0.00000000000E+00  0.00000000000E+00  0.60618336946E+01  0.60618336946E+01  0.00000000000E+00 0. -1.
          2   -1    0    0  503    0 -0.00000000000E+00 -0.00000000000E+00 -0.13204847499E+04  0.13204847499E+04  0.00000000000E+00 0. -1.
         25    2    1    2    0    0  0.13046412624E+02  0.22727925122E+02 -0.69940079775E+03  0.71096639089E+03  0.12499986247E+03 0.  0.
          5    1    3    3  501    0 -0.50092091329E+02  0.35788055677E+02 -0.39927086867E+03  0.40398915717E+03  0.10000000000E+00 0. -1.
         -5    1    3    3    0  501  0.63138503953E+02 -0.13060130555E+02 -0.30012992908E+03  0.30697723372E+03  0.10000000000E+00 0. -1.
          2    1    1    2  502    0 -0.13046412624E+02 -0.22727925122E+02 -0.61502211842E+03  0.61558019267E+03  0.00000000000E+00 0. -1.
<mgrwt>
<rscale>  1 0.12771740E+03</rscale>
<asrwt>0</asrwt>
<pdfrwt beam="1">  1       21 0.93259000E-03 0.12771740E+03</pdfrwt>
<pdfrwt beam="2">  1        2 0.20315146E+00 0.12771740E+03</pdfrwt>
<totfact> 0.90168028E+05</totfact>
</mgrwt>
</event>
<event>
 6    2  0.1674964E-002  0.1270669E+03  0.7546771E-02  0.1231874E+00
          1   -1    0    0  503    0 -0.00000000000E+00  0.00000000000E+00  0.56980795988E+03  0.56980795988E+03  0.00000000000E+00 0. -1.
         21   -1    0    0  502  503  0.00000000000E+00 -0.00000000000E+00 -0.66820113735E+02  0.66820113735E+02  0.00000000000E+00 0. -1.
         25    2    1    2    0    0  0.19943231109E+02  0.10980035396E+02 -0.59262744732E+01  0.12720499227E+03  0.12501078227E+03 0.  0.
          5    1    3    3  501    0 -0.20261536610E+02 -0.91819362874E+01  0.50419843755E+02  0.55109059727E+02  0.10000000000E+00 0.  1.
         -5    1    3    3    0  501  0.40204767719E+02  0.20161971684E+02 -0.56346118228E+02  0.72095932540E+02  0.10000000000E+00 0.  1.
          1    1    1    2  502    0 -0.19943231109E+02 -0.10980035396E+02  0.50891412062E+03  0.50942308135E+03  0.00000000000E+00 0. -1.
<mgrwt>
<rscale>  1 0.12706687E+03</rscale>
<asrwt>0</asrwt>
<pdfrwt beam="1">  1       21 0.10280018E-01 0.12706687E+03</pdfrwt>
<pdfrwt beam="2">  1        1 0.87662760E-01 0.12706687E+03</pdfrwt>
<totfact> 0.32493085E+04</totfact>
</mgrwt>
</event>
<event>
 6    2  0.1674964E-002  0.1269759E+03  0.7546771E-02  0.1232013E+00
          1   -1    0    0  503    0 -0.00000000000E+00  0.00000000000E+00  0.25333864339E+02  0.25333864339E+02  0.00000000000E+00 0. -1.
         21   -1    0    0  502  503  0.00000000000E+00 -0.00000000000E+00 -0.23637736851E+03  0.23637736851E+03  0.00000000000E+00 0. -1.
         25    2    1    2    0    0 -0.16000538686E+02 -0.15507716687E+02 -0.19984807346E+03  0.23677442905E+03  0.12500548496E+03 0.  0.
          5    1    3    3  501    0 -0.14826773056E+02 -0.49735332138E+02 -0.19547654707E+03  0.20224867593E+03  0.10000000000E+00 0. -1.
         -5    1    3    3    0  501 -0.11737656304E+01  0.34227615452E+02 -0.43715263912E+01  0.34525753116E+02  0.10000000000E+00 0. -1.
          1    1    1    2  502    0  0.16000538686E+02  0.15507716687E+02 -0.11195430715E+02  0.24936803804E+02  0.00000000000E+00 0. -1.
<mgrwt>
<rscale>  1 0.12697589E+03</rscale>
<asrwt>0</asrwt>
<pdfrwt beam="1">  1       21 0.36365749E-01 0.12697589E+03</pdfrwt>
<pdfrwt beam="2">  1        1 0.38975176E-02 0.12697589E+03</pdfrwt>
<totfact> 0.17653424E+05</totfact>
</mgrwt>
</event>
<event>
 6    2  0.1674964E-002  0.1262682E+03  0.7546771E-02  0.1233101E+00
         21   -1    0    0  502  503  0.00000000000E+00  0.00000000000E+00  0.32262970962E+02  0.32262970962E+02  0.00000000000E+00 0. -1.
          1   -1    0    0  503    0 -0.00000000000E+00 -0.00000000000E+00 -0.10048772758E+04  0.10048772758E+04  0.00000000000E+00 0. -1.
         25    2    1    2    0    0  0.43810279564E+01  0.17283885896E+02 -0.91718190851E+02  0.15606369517E+03  0.12500289717E+03 0.  0.
          5    1    3    3  501    0 -0.49058037007E+02  0.40157899337E+02 -0.26538098856E+02  0.68728658978E+02  0.10000000000E+00 0.  1.
         -5    1    3    3    0  501  0.53439064963E+02 -0.22874013441E+02 -0.65180091994E+02  0.87335036196E+02  0.10000000000E+00 0.  1.
          1    1    1    2  502    0 -0.43810279564E+01 -0.17283885896E+02 -0.88089611394E+03  0.88107655154E+03  0.00000000000E+00 0. -1.
<mgrwt>
<rscale>  1 0.12626817E+03</rscale>
<asrwt>0</asrwt>
<pdfrwt beam="1">  1       21 0.49635331E-02 0.12626817E+03</pdfrwt>
<pdfrwt beam="2">  1        1 0.15459653E+00 0.12626817E+03</pdfrwt>
<totfact> 0.48760820E+04</totfact>
</mgrwt>
</event>
<event>
 6    2  0.1674964E-002  0.1528817E+03  0.7546771E-02  0.1196976E+00
         21   -1    0    0  502  503  0.00000000000E+00  0.00000000000E+00  0.15180577951E+03  0.15180577951E+03  0.00000000000E+00 0.  1.
          3   -1    0    0  503    0 -0.00000000000E+00 -0.00000000000E+00 -0.52252830108E+03  0.52252830108E+03  0.00000000000E+00 0.  1.
         25    2    1    2    0    0  0.85003018551E+02  0.22836252132E+02  0.10826023284E+03  0.18733152763E+03  0.12500326259E+03 0.  0.
          5    1    3    3  501    0  0.43801016129E+02 -0.14756898680E+02  0.12151039867E+03  0.13000416169E+03  0.10000000000E+00 0.  1.
         -5    1    3    3    0  501  0.41202002421E+02  0.37593150811E+02 -0.13250165829E+02  0.57327365943E+02  0.10000000000E+00 0.  1.
          3    1    1    2  502    0 -0.85003018551E+02 -0.22836252132E+02 -0.47898275441E+03  0.48700255296E+03  0.00000000000E+00 0.  1.
<mgrwt>
<rscale>  1 0.15288173E+03</rscale>
<asrwt>0</asrwt>
<pdfrwt beam="1">  1       21 0.23354736E-01 0.15288173E+03</pdfrwt>
<pdfrwt beam="2">  1        3 0.80388967E-01 0.15288173E+03</pdfrwt>
<totfact> 0.12587115E+03</totfact>
</mgrwt>
</event>
<event>
 6    2  0.1674964E-002  0.1278938E+03  0.7546771E-02  0.1230615E+00
         21   -1    0    0  502  503  0.00000000000E+00  0.00000000000E+00  0.10923027103E+02  0.10923027103E+02  0.00000000000E+00 0.  1.
          2   -1    0    0  503    0 -0.00000000000E+00 -0.00000000000E+00 -0.54954450559E+03  0.54954450559E+03  0.00000000000E+00 0.  1.
         25    2    1    2    0    0  0.23516763761E+02 -0.13386630261E+02 -0.44496341320E+03  0.46297869620E+03  0.12499837599E+03 0.  0.
          5    1    3    3  501    0  0.61044122599E+02  0.27245940818E+02 -0.17339370641E+03  0.18583356429E+03  0.10000000000E+00 0. -1.
         -5    1    3    3    0  501 -0.37527358838E+02 -0.40632571079E+02 -0.27156970679E+03  0.27714513191E+03  0.10000000000E+00 0. -1.
          2    1    1    2  502    0 -0.23516763761E+02  0.13386630261E+02 -0.93658065283E+02  0.97488836490E+02  0.00000000000E+00 0.  1.
<mgrwt>
<rscale>  1 0.12789384E+03</rscale>
<asrwt>0</asrwt>
<pdfrwt beam="1">  1       21 0.16804657E-02 0.12789384E+03</pdfrwt>
<pdfrwt beam="2">  1        2 0.84545311E-01 0.12789384E+03</pdfrwt>
<totfact> 0.11112313E+06</totfact>
</mgrwt>
</event>
<event>
 6    2  0.1674964E-002  0.1581524E+03  0.7546771E-02  0.1190799E+00
         21   -1    0    0  502  503  0.00000000000E+00  0.00000000000E+00  0.46648390775E+02  0.46648390775E+02  0.00000000000E+00 0.  1.
          2   -1    0    0  503    0 -0.00000000000E+00 -0.00000000000E+00 -0.13093752948E+04  0.13093752948E+04  0.00000000000E+00 0.  1.
         25    2    1    2    0    0 -0.24514387819E+02 -0.93745465624E+02 -0.95433219221E+02  0.18471513779E+03  0.12499206080E+03 0.  0.
          5    1    3    3  501    0 -0.18281806898E+02 -0.71828221682E+02 -0.12624414249E+03  0.14639368636E+03  0.10000000000E+00 0.  1.
         -5    1    3    3    0  501 -0.62325809208E+01 -0.21917243942E+02  0.30810923268E+02  0.38321451428E+02  0.10000000000E+00 0.  1.
          2    1    1    2  502    0  0.24514387819E+02  0.93745465624E+02 -0.11672936848E+04  0.11713085478E+04  0.00000000000E+00 0.  1.
<mgrwt>
<rscale>  1 0.15815240E+03</rscale>
<asrwt>0</asrwt>
<pdfrwt beam="1">  1       21 0.71766758E-02 0.15815240E+03</pdfrwt>
<pdfrwt beam="2">  1        2 0.20144234E+00 0.15815240E+03</pdfrwt>
<totfact> 0.32410638E+04</totfact>
</mgrwt>
</event>
<event>
 6    2  0.1674964E-002  0.1322295E+03  0.7546771E-02  0.1224185E+00
         21   -1    0    0  502  503  0.00000000000E+00  0.00000000000E+00  0.60093760484E+01  0.60093760484E+01  0.00000000000E+00 0.  1.
          2   -1    0    0  503    0 -0.00000000000E+00 -0.00000000000E+00 -0.23859542903E+04  0.23859542903E+04  0.00000000000E+00 0. -1.
         25    2    1    2    0    0  0.60191397403E+01 -0.42746887108E+02 -0.75817885588E+03  0.76962317358E+03  0.12498450065E+03 0.  0.
          5    1    3    3  501    0 -0.30804079413E+02 -0.13025777436E+02 -0.65779501740E+03  0.65864471235E+03  0.10000000000E+00 0. -1.
         -5    1    3    3    0  501  0.36823219153E+02 -0.29721109673E+02 -0.10038383848E+03  0.11097846123E+03  0.10000000000E+00 0. -1.
          2    1    1    2  502    0 -0.60191397403E+01  0.42746887108E+02 -0.16217660584E+04  0.16223404928E+04  0.00000000000E+00 0. -1.
<mgrwt>
<rscale>  1 0.13222954E+03</rscale>
<asrwt>0</asrwt>
<pdfrwt beam="1">  1       21 0.92451945E-03 0.13222954E+03</pdfrwt>
<pdfrwt beam="2">  1        2 0.36706987E+00 0.13222954E+03</pdfrwt>
<totfact> 0.25773422E+05</totfact>
</mgrwt>
</event>
<event>
 6    2  0.1674964E-002  0.1291147E+03  0.7546771E-02  0.1228775E+00
         21   -1    0    0  502  503  0.00000000000E+00  0.00000000000E+00  0.78142317032E+01  0.78142317032E+01  0.00000000000E+00 0. -1.
          2   -1    0    0  503    0 -0.00000000000E+00 -0.00000000000E+00 -0.14431014945E+04  0.14431014945E+04  0.00000000000E+00 0. -1.
         25    2    1    2    0    0  0.32104272919E+02  0.39258446095E+01 -0.54668730843E+03  0.56172734600E+03  0.12499800577E+03 0.  0.
          5    1    3    3  501    0  0.24188280717E+02 -0.57460831089E+02 -0.19780930596E+03  0.20740142612E+03  0.10000000000E+00 0. -1.
         -5    1    3    3    0  501  0.79159922012E+01  0.61386675699E+02 -0.34887800247E+03  0.35432591988E+03  0.10000000000E+00 0. -1.
          2    1    1    2  502    0 -0.32104272919E+02 -0.39258446095E+01 -0.88859995433E+03  0.88918838017E+03  0.00000000000E+00 0. -1.
<mgrwt>
<rscale>  1 0.12911467E+03</rscale>
<asrwt>0</asrwt>
<pdfrwt beam="1">  1       21 0.12021897E-02 0.12911467E+03</pdfrwt>
<pdfrwt beam="2">  1        2 0.22201557E+00 0.12911467E+03</pdfrwt>
<totfact> 0.52037228E+05</totfact>
</mgrwt>
</event>
<event>
 6    2  0.1674964E-002  0.1649324E+03  0.7546771E-02  0.1183238E+00
          1   -1    0    0  503    0 -0.00000000000E+00  0.00000000000E+00  0.25438867655E+03  0.25438867655E+03  0.00000000000E+00 0.  1.
         21   -1    0    0  502  503  0.00000000000E+00 -0.00000000000E+00 -0.11674053455E+03  0.11674053455E+03  0.00000000000E+00 0. -1.
         25    2    1    2    0    0 -0.10746826736E+03  0.52992152633E+01 -0.34137211956E+02  0.16842815534E+03  0.12500073640E+03 0.  0.
          5    1    3    3  501    0 -0.84435431791E+02  0.28906526300E+02 -0.74534363155E+02  0.11627687085E+03  0.10000000000E+00 0. -1.
         -5    1    3    3    0  501 -0.23032835568E+02 -0.23607311037E+02  0.40397151199E+02  0.52151284488E+02  0.10000000000E+00 0. -1.
          1    1    1    2  502    0  0.10746826736E+03 -0.52992152633E+01  0.17178535396E+03  0.20270105576E+03  0.00000000000E+00 0.  1.
<mgrwt>
<rscale>  1 0.16493239E+03</rscale>
<asrwt>0</asrwt>
<pdfrwt beam="1">  1       21 0.17960082E-01 0.16493239E+03</pdfrwt>
<pdfrwt beam="2">  1        1 0.39136719E-01 0.16493239E+03</pdfrwt>
<totfact> 0.33210374E+04</totfact>
</mgrwt>
</event>
<event>
 6    2  0.1674964E-002  0.1655272E+03  0.7546771E-02  0.1182594E+00
          1   -1    0    0  503    0 -0.00000000000E+00  0.00000000000E+00  0.49617582131E+03  0.49617582131E+03  0.00000000000E+00 0.  1.
         21   -1    0    0  502  503  0.00000000000E+00 -0.00000000000E+00 -0.73903070142E+02  0.73903070142E+02  0.00000000000E+00 0.  1.
         25    2    1    2    0    0 -0.83319250614E+02  0.69514699092E+02  0.36724881955E+02  0.16955230012E+03  0.12499949843E+03 0.  0.
          5    1    3    3  501    0 -0.95664276594E+01  0.63356419894E+02 -0.29222413521E+02  0.70423802311E+02  0.10000000000E+00 0.  1.
         -5    1    3    3    0  501 -0.73752822954E+02  0.61582791979E+01  0.65947295476E+02  0.99128497805E+02  0.10000000000E+00 0.  1.
          1    1    1    2  502    0  0.83319250614E+02 -0.69514699092E+02  0.38554786921E+03  0.40052659133E+03  0.00000000000E+00 0.  1.
<mgrwt>
<rscale>  1 0.16552723E+03</rscale>
<asrwt>0</asrwt>
<pdfrwt beam="1">  1       21 0.11369703E-01 0.16552723E+03</pdfrwt>
<pdfrwt beam="2">  1        1 0.76334740E-01 0.16552723E+03</pdfrwt>
<totfact> 0.32636617E+04</totfact>
</mgrwt>
</event>
<event>
 6    2  0.1674964E-002  0.2280442E+03  0.7546771E-02  0.1128024E+00
         21   -1    0    0  502  503  0.00000000000E+00  0.00000000000E+00  0.26477712389E+03  0.26477712389E+03  0.00000000000E+00 0. -1.
          1   -1    0    0  503    0 -0.00000000000E+00 -0.00000000000E+00 -0.83879325346E+03  0.83879325346E+03  0.00000000000E+00 0.  1.
         25    2    1    2    0    0 -0.18685641831E+03 -0.38298395107E+02  0.20188503275E+03  0.30456806083E+03  0.12498819585E+03 0.  0.
          5    1    3    3  501    0 -0.19061691322E+03 -0.61612916025E+02  0.15958351973E+03  0.25612080899E+03  0.10000000000E+00 0. -1.
         -5    1    3    3    0  501  0.37604949137E+01  0.23314520918E+02  0.42301513019E+02  0.48447251845E+02  0.10000000000E+00 0. -1.
          1    1    1    2  502    0  0.18685641831E+03  0.38298395107E+02 -0.77590116232E+03  0.79900231653E+03  0.00000000000E+00 0.  1.
<mgrwt>
<rscale>  1 0.22804416E+03</rscale>
<asrwt>0</asrwt>
<pdfrwt beam="1">  1       21 0.40734942E-01 0.22804416E+03</pdfrwt>
<pdfrwt beam="2">  1        1 0.12904512E+00 0.22804416E+03</pdfrwt>
<totfact> 0.13656775E+03</totfact>
</mgrwt>
</event>
<event>
 6    2  0.1674964E-002  0.1374746E+03  0.7546771E-02  0.1216768E+00
          1   -1    0    0  503    0 -0.00000000000E+00  0.00000000000E+00  0.16915368613E+04  0.16915368613E+04  0.00000000000E+00 0. -1.
         21   -1    0    0  502  503  0.00000000000E+00 -0.00000000000E+00 -0.16742416611E+02  0.16742416611E+02  0.00000000000E+00 0. -1.
         25    2    1    2    0    0 -0.47254109521E+02 -0.32260962400E+02  0.27626589075E+03  0.30858079726E+03  0.12500218191E+03 0.  0.
          5    1    3    3  501    0 -0.55486420123E+02 -0.62675394778E+02  0.10422358967E+03  0.13367690366E+03  0.10000000000E+00 0. -1.
         -5    1    3    3    0  501  0.82323106021E+01  0.30414432378E+02  0.17204230108E+03  0.17490389360E+03  0.10000000000E+00 0. -1.
          1    1    1    2  502    0  0.47254109521E+02  0.32260962400E+02  0.13985285540E+04  0.13996984807E+04  0.00000000000E+00 0. -1.
<mgrwt>
<rscale>  1 0.13747460E+03</rscale>
<asrwt>0</asrwt>
<pdfrwt beam="1">  1       21 0.25757577E-02 0.13747460E+03</pdfrwt>
<pdfrwt beam="2">  1        1 0.26023631E+00 0.13747460E+03</pdfrwt>
<totfact> 0.50079996E+04</totfact>
</mgrwt>
</event>
<event>
 6    2  0.1674964E-002  0.1324468E+03  0.7546771E-02  0.1223870E+00
          2   -1    0    0  503    0 -0.00000000000E+00  0.00000000000E+00  0.17097499734E+04  0.17097499734E+04  0.00000000000E+00 0.  1.
         21   -1    0    0  502  503  0.00000000000E+00 -0.00000000000E+00 -0.40225185822E+02  0.40225185822E+02  0.00000000000E+00 0.  1.
         25    2    1    2    0    0  0.21232005987E+02 -0.38283302298E+02  0.69916675428E+02  0.14976813456E+03  0.12500297322E+03 0.  0.
          5    1    3    3  501    0  0.70879887230E+02 -0.20580822218E+02  0.62150493874E+02  0.96489494483E+02  0.10000000000E+00 0.  1.
         -5    1    3    3    0  501 -0.49647881243E+02 -0.17702480079E+02  0.77661815546E+01  0.53278640080E+02  0.10000000000E+00 0.  1.
          2    1    1    2  502    0 -0.21232005987E+02  0.38283302298E+02  0.15996081122E+04  0.16002070247E+04  0.00000000000E+00 0.  1.
<mgrwt>
<rscale>  1 0.13244679E+03</rscale>
<asrwt>0</asrwt>
<pdfrwt beam="1">  1       21 0.61884914E-02 0.13244679E+03</pdfrwt>
<pdfrwt beam="2">  1        2 0.26303840E+00 0.13244679E+03</pdfrwt>
<totfact> 0.25936263E+04</totfact>
</mgrwt>
</event>
<event>
 6    2  0.1674964E-002  0.1272080E+03  0.7546771E-02  0.1231658E+00
          2   -1    0    0  503    0 -0.00000000000E+00  0.00000000000E+00  0.79605414724E+03  0.79605414724E+03  0.00000000000E+00 0. -1.
         21   -1    0    0  502  503  0.00000000000E+00 -0.00000000000E+00 -0.61847735613E+02  0.61847735613E+02  0.00000000000E+00 0.  1.
         25    2    1    2    0    0 -0.21021078166E+02 -0.10736217739E+02  0.39553781272E+01  0.12726946910E+03  0.12499888260E+03 0.  0.
          5    1    3    3  501    0 -0.49728126726E+01 -0.10140088881E+02 -0.60140735029E+02  0.61192060581E+02  0.10000000000E+00 0. -1.
         -5    1    3    3    0  501 -0.16048265493E+02 -0.59612885771E+00  0.64096113156E+02  0.66077408520E+02  0.10000000000E+00 0. -1.
          2    1    1    2  502    0  0.21021078166E+02  0.10736217739E+02  0.73025103350E+03  0.73063241375E+03  0.00000000000E+00 0. -1.
<mgrwt>
<rscale>  1 0.12720799E+03</rscale>
<asrwt>0</asrwt>
<pdfrwt beam="1">  1       21 0.95150368E-02 0.12720799E+03</pdfrwt>
<pdfrwt beam="2">  1        2 0.12246986E+00 0.12720799E+03</pdfrwt>
<totfact> 0.40199005E+04</totfact>
</mgrwt>
</event>
<event>
 6    2  0.1674964E-002  0.1270195E+03  0.7546771E-02  0.1231946E+00
          4   -1    0    0  503    0 -0.00000000000E+00  0.00000000000E+00  0.20382093422E+02  0.20382093422E+02  0.00000000000E+00 0.  1.
         21   -1    0    0  502  503  0.00000000000E+00 -0.00000000000E+00 -0.58601169225E+03  0.58601169225E+03  0.00000000000E+00 0. -1.
         25    2    1    2    0    0 -0.84783598208E+01  0.20897581239E+02 -0.56951657402E+03  0.58350929173E+03  0.12500149585E+03 0.  0.
          5    1    3    3  501    0 -0.36345748333E+02 -0.22142511677E+02 -0.46650358504E+03  0.46844093448E+03  0.10000000000E+00 0. -1.
         -5    1    3    3    0  501  0.27867388512E+02  0.43040092915E+02 -0.10301298898E+03  0.11506835725E+03  0.10000000000E+00 0. -1.
          4    1    1    2  502    0  0.84783598208E+01 -0.20897581239E+02  0.38869751922E+01  0.22884493943E+02  0.00000000000E+00 0.  1.
<mgrwt>
<rscale>  1 0.12701955E+03</rscale>
<asrwt>0</asrwt>
<pdfrwt beam="1">  1       21 0.90155644E-01 0.12701955E+03</pdfrwt>
<pdfrwt beam="2">  1        4 0.31357067E-02 0.12701955E+03</pdfrwt>
<totfact> 0.21557463E+04</totfact>
</mgrwt>
</event>
<event>
 6    2  0.1674964E-002  0.1264714E+03  0.7546771E-02  0.1232787E+00
          2   -1    0    0  503    0 -0.00000000000E+00  0.00000000000E+00  0.55336455079E+03  0.55336455079E+03  0.00000000000E+00 0.  1.
         21   -1    0    0  502  503  0.00000000000E+00 -0.00000000000E+00 -0.18677681104E+02  0.18677681104E+02  0.00000000000E+00 0.  1.
         25    2    1    2    0    0 -0.43473659060E+01  0.18710810481E+02  0.19888273890E+03  0.23568913131E+03  0.12500411500E+03 0.  0.
          5    1    3    3  501    0  0.24727238630E+02 -0.45360930806E+02  0.11589697676E+03  0.12689038417E+03  0.10000000000E+00 0. -1.
         -5    1    3    3    0  501 -0.29074604536E+02  0.64071741287E+02  0.82985762142E+02  0.10879874714E+03  0.10000000000E+00 0. -1.
          2    1    1    2  502    0  0.43473659060E+01 -0.18710810481E+02  0.33580413078E+03  0.33635310058E+03  0.00000000000E+00 0.  1.
<mgrwt>
<rscale>  1 0.12647143E+03</rscale>
<asrwt>0</asrwt>
<pdfrwt beam="1">  1       21 0.28734898E-02 0.12647143E+03</pdfrwt>
<pdfrwt beam="2">  1        2 0.85132995E-01 0.12647143E+03</pdfrwt>
<totfact> 0.46226763E+05</totfact>
</mgrwt>
</event>
<event>
 6    2  0.1674964E-002  0.1276956E+03  0.7546771E-02  0.1230916E+00
          3   -1    0    0  503    0 -0.00000000000E+00  0.00000000000E+00  0.11376159608E+02  0.11376159608E+02  0.00000000000E+00 0. -1.
         21   -1    0    0  502  503  0.00000000000E+00 -0.00000000000E+00 -0.22097599122E+04  0.22097599122E+04  0.00000000000E+00 0. -1.
         25    2    1    2    0    0  0.22450283307E+02  0.13928985649E+02 -0.21895611807E+04  0.21932816353E+04  0.12493252461E+03 0.  0.
          5    1    3    3  501    0  0.59063717390E+02  0.13654336588E+02 -0.55333664814E+03  0.55664748251E+03  0.10000000000E+00 0.  1.
         -5    1    3    3    0  501 -0.36613434083E+02  0.27464906055E+00 -0.16362245326E+04  0.16366341528E+04  0.10000000000E+00 0.  1.
          3    1    1    2  502    0 -0.22450283307E+02 -0.13928985649E+02 -0.88225719308E+01  0.27854436581E+02  0.00000000000E+00 0. -1.
<mgrwt>
<rscale>  1 0.12769561E+03</rscale>
<asrwt>0</asrwt>
<pdfrwt beam="1">  1       21 0.33996310E+00 0.12769561E+03</pdfrwt>
<pdfrwt beam="2">  1        3 0.17501782E-02 0.12769561E+03</pdfrwt>
<totfact> 0.12117751E+03</totfact>
</mgrwt>
</event>
<event>
 6    2  0.1674964E-002  0.1262417E+03  0.7546771E-02  0.1233141E+00
         21   -1    0    0  502  503  0.00000000000E+00  0.00000000000E+00  0.67099439349E+02  0.67099439349E+02  0.00000000000E+00 0. -1.
          1   -1    0    0  503    0 -0.00000000000E+00 -0.00000000000E+00 -0.45532330198E+03  0.45532330198E+03  0.00000000000E+00 0. -1.
         25    2    1    2    0    0 -0.13643285264E+01  0.17608824994E+02  0.73493584719E+01  0.12645543793E+03  0.12500013040E+03 0.  0.
          5    1    3    3  501    0  0.55898922915E+02  0.26247811961E+02 -0.16349935966E+02  0.63882451596E+02  0.10000000000E+00 0. -1.
         -5    1    3    3    0  501 -0.57263251441E+02 -0.86389869671E+01  0.23699294438E+02  0.62572986330E+02  0.10000000000E+00 0. -1.
          1    1    1    2  502    0  0.13643285264E+01 -0.17608824994E+02 -0.39557322111E+03  0.39596730341E+03  0.00000000000E+00 0. -1.
<mgrwt>
<rscale>  1 0.12624169E+03</rscale>
<asrwt>0</asrwt>
<pdfrwt beam="1">  1       21 0.10322991E-01 0.12624169E+03</pdfrwt>
<pdfrwt beam="2">  1        1 0.70049739E-01 0.12624169E+03</pdfrwt>
<totfact> 0.43241977E+04</totfact>
</mgrwt>
</event>
<event>
 6    2  0.1674964E-002  0.1338316E+03  0.7546771E-02  0.1221879E+00
         21   -1    0    0  502  503  0.00000000000E+00  0.00000000000E+00  0.54248598268E+02  0.54248598268E+02  0.00000000000E+00 0.  1.
          1   -1    0    0  503    0 -0.00000000000E+00 -0.00000000000E+00 -0.68336251697E+03  0.68336251697E+03  0.00000000000E+00 0. -1.
         25    2    1    2    0    0  0.43806871953E+02  0.19162899645E+02 -0.30722910577E+02  0.13731280826E+03  0.12499860529E+03 0.  0.
          5    1    3    3  501    0  0.84513162939E+02 -0.61149151103E+01 -0.10800101515E+02  0.85419664537E+02  0.10000000000E+00 0.  1.
         -5    1    3    3    0  501 -0.40706290987E+02  0.25277814755E+02 -0.19922809062E+02  0.51893143725E+02  0.10000000000E+00 0.  1.
          1    1    1    2  502    0 -0.43806871953E+02 -0.19162899645E+02 -0.59839100812E+03  0.60029830697E+03  0.00000000000E+00 0. -1.
<mgrwt>
<rscale>  1 0.13383165E+03</rscale>
<asrwt>0</asrwt>
<pdfrwt beam="1">  1       21 0.83459384E-02 0.13383165E+03</pdfrwt>
<pdfrwt beam="2">  1        1 0.10513269E+00 0.13383165E+03</pdfrwt>
<totfact> 0.36370634E+04</totfact>
</mgrwt>
</event>
<event>
 6    2  0.1674964E-002  0.1303067E+03  0.7546771E-02  0.1227001E+00
          3   -1    0    0  503    0 -0.00000000000E+00  0.00000000000E+00  0.80961567444E+01  0.80961567444E+01  0.00000000000E+00 0.  1.
         21   -1    0    0  502  503  0.00000000000E+00 -0.00000000000E+00 -0.86725455258E+03  0.86725455258E+03  0.00000000000E+00 0.  1.
         25    2    1    2    0    0 -0.35564040058E+02 -0.95180239235E+01 -0.69561698752E+03  0.70771662580E+03  0.12499774152E+03 0.  0.
          5    1    3    3  501    0 -0.42124471531E+02  0.51133785294E+02 -0.28542504207E+03  0.29301296856E+03  0.10000000000E+00 0. -1.
         -5    1    3    3    0  501  0.65604314729E+01 -0.60651809217E+02 -0.41019194545E+03  0.41470365724E+03  0.10000000000E+00 0. -1.
          3    1    1    2  502    0  0.35564040058E+02  0.95180239235E+01 -0.16354140832E+03  0.16763408353E+03  0.00000000000E+00 0.  1.
<mgrwt>
<rscale>  1 0.13030667E+03</rscale>
<asrwt>0</asrwt>
<pdfrwt beam="1">  1       21 0.13342367E+00 0.13030667E+03</pdfrwt>
<pdfrwt beam="2">  1        3 0.12455636E-02 0.13030667E+03</pdfrwt>
<totfact> 0.38319037E+04</totfact>
</mgrwt>
</event>
<event>
 6    2  0.1674964E-002  0.1436526E+03  0.7546771E-02  0.1208497E+00
         21   -1    0    0  502  503  0.00000000000E+00  0.00000000000E+00  0.11152355367E+02  0.11152355367E+02  0.00000000000E+00 0.  1.
          2   -1    0    0  503    0 -0.00000000000E+00 -0.00000000000E+00 -0.12918066405E+04  0.12918066405E+04  0.00000000000E+00 0.  1.
         25    2    1    2    0    0  0.62923598612E+02  0.32453945835E+02 -0.53497997218E+03  0.55393107992E+03  0.12499373109E+03 0.  0.
          5    1    3    3  501    0  0.20147354476E+01 -0.40772719179E+02 -0.25367287584E+03  0.25693659086E+03  0.10000000000E+00 0. -1.
         -5    1    3    3    0  501  0.60908863164E+02  0.73226665014E+02 -0.28130709634E+03  0.29699448906E+03  0.10000000000E+00 0. -1.
          2    1    1    2  502    0 -0.62923598612E+02 -0.32453945835E+02 -0.74567431300E+03  0.74902791599E+03  0.00000000000E+00 0.  1.
<mgrwt>
<rscale>  1 0.14365260E+03</rscale>
<asrwt>0</asrwt>
<pdfrwt beam="1">  1       21 0.17157472E-02 0.14365260E+03</pdfrwt>
<pdfrwt beam="2">  1        2 0.19873946E+00 0.14365260E+03</pdfrwt>
<totfact> 0.35619630E+05</totfact>
</mgrwt>
</event>
<event>
 6    2  0.1674964E-002  0.1276232E+03  0.7546771E-02  0.1231026E+00
          1   -1    0    0  503    0 -0.00000000000E+00  0.00000000000E+00  0.15565464478E+04  0.15565464478E+04  0.00000000000E+00 0.  1.
         21   -1    0    0  502  503  0.00000000000E+00 -0.00000000000E+00 -0.56877882559E+01  0.56877882559E+01  0.00000000000E+00 0. -1.
         25    2    1    2    0    0 -0.22325405744E+02  0.12777302836E+02  0.73694361212E+03  0.74791280834E+03  0.12500399285E+03 0.  0.
          5    1    3    3  501    0 -0.28869516810E+02  0.54241056075E+02  0.19748091395E+03  0.20681939595E+03  0.10000000000E+00 0. -1.
         -5    1    3    3    0  501  0.65441110667E+01 -0.41463753238E+02  0.53946269817E+03  0.54109341240E+03  0.10000000000E+00 0. -1.
          1    1    1    2  502    0  0.22325405744E+02 -0.12777302836E+02  0.81391504737E+03  0.81432142766E+03  0.00000000000E+00 0.  1.
<mgrwt>
<rscale>  1 0.12762320E+03</rscale>
<asrwt>0</asrwt>
<pdfrwt beam="1">  1       21 0.87504558E-03 0.12762320E+03</pdfrwt>
<pdfrwt beam="2">  1        1 0.23946835E+00 0.12762320E+03</pdfrwt>
<totfact> 0.34326581E+05</totfact>
</mgrwt>
</event>
<event>
 6    2  0.1674964E-002  0.1267669E+03  0.7546771E-02  0.1232333E+00
         21   -1    0    0  502  503  0.00000000000E+00  0.00000000000E+00  0.48405964847E+03  0.48405964847E+03  0.00000000000E+00 0. -1.
          2   -1    0    0  503    0 -0.00000000000E+00 -0.00000000000E+00 -0.22968684243E+02  0.22968684243E+02  0.00000000000E+00 0. -1.
         25    2    1    2    0    0  0.11983677042E+02  0.17302241367E+02  0.46800905038E+03  0.48487351410E+03  0.12500750923E+03 0.  0.
          5    1    3    3  501    0  0.47924890016E+02  0.11065687874E+02  0.42766078908E+03  0.43047997055E+03  0.10000000000E+00 0. -1.
         -5    1    3    3    0  501 -0.35941212974E+02  0.62365534931E+01  0.40348261304E+02  0.54393543548E+02  0.10000000000E+00 0. -1.
          2    1    1    2  502    0 -0.11983677042E+02 -0.17302241367E+02 -0.69180861537E+01  0.22154818613E+02  0.00000000000E+00 0. -1.
<mgrwt>
<rscale>  1 0.12676693E+03</rscale>
<asrwt>0</asrwt>
<pdfrwt beam="1">  1       21 0.74470708E-01 0.12676693E+03</pdfrwt>
<pdfrwt beam="2">  1        2 0.35336441E-02 0.12676693E+03</pdfrwt>
<totfact> 0.48052794E+04</totfact>
</mgrwt>
</event>
<event>
 6    2  0.1674964E-002  0.1356516E+03  0.7546771E-02  0.1219303E+00
         21   -1    0    0  502  503  0.00000000000E+00  0.00000000000E+00  0.10586057318E+03  0.10586057318E+03  0.00000000000E+00 0.  1.
          2   -1    0    0  503    0 -0.00000000000E+00 -0.00000000000E+00 -0.12533021495E+03  0.12533021495E+03  0.00000000000E+00 0.  1.
         25    2    1    2    0    0 -0.51573326843E+02 -0.10799625772E+02  0.49496191208E+02  0.14439950932E+03  0.12499962155E+03 0.  0.
          5    1    3    3  501    0 -0.23133343671E+02  0.56724631700E+02  0.13345093081E+02  0.62697184468E+02  0.10000000000E+00 0. -1.
         -5    1    3    3    0  501 -0.28439983173E+02 -0.67524257472E+02  0.36151098127E+02  0.81702324849E+02  0.10000000000E+00 0. -1.
          2    1    1    2  502    0  0.51573326843E+02  0.10799625772E+02 -0.68965832987E+02  0.86791278814E+02  0.00000000000E+00 0.  1.
<mgrwt>
<rscale>  1 0.13565156E+03</rscale>
<asrwt>0</asrwt>
<pdfrwt beam="1">  1       21 0.16286242E-01 0.13565156E+03</pdfrwt>
<pdfrwt beam="2">  1        2 0.19281571E-01 0.13565156E+03</pdfrwt>
<totfact> 0.11821344E+05</totfact>
</mgrwt>
</event>
<event>
 6    2  0.1674964E-002  0.1280751E+03  0.7546771E-02  0.1230340E+00
         21   -1    0    0  502  503  0.00000000000E+00  0.00000000000E+00  0.20270426828E+02  0.20270426828E+02  0.00000000000E+00 0. -1.
          2   -1    0    0  503    0 -0.00000000000E+00 -0.00000000000E+00 -0.63212398075E+03  0.63212398075E+03  0.00000000000E+00 0. -1.
         25    2    1    2    0    0 -0.85330172945E+01 -0.26547750602E+02 -0.18716055707E+03  0.22678691584E+03  0.12500254249E+03 0.  0.
          5    1    3    3  501    0 -0.58059227942E+02 -0.40131349875E+02 -0.14125041912E+03  0.15790215354E+03  0.10000000000E+00 0. -1.
         -5    1    3    3    0  501  0.49526210648E+02  0.13583599273E+02 -0.45910137952E+02  0.68884762300E+02  0.10000000000E+00 0. -1.
          2    1    1    2  502    0  0.85330172945E+01  0.26547750602E+02 -0.42469299685E+03  0.42560749174E+03  0.00000000000E+00 0. -1.
<mgrwt>
<rscale>  1 0.12807510E+03</rscale>
<asrwt>0</asrwt>
<pdfrwt beam="1">  1       21 0.31185271E-02 0.12807510E+03</pdfrwt>
<pdfrwt beam="2">  1        2 0.97249846E-01 0.12807510E+03</pdfrwt>
<totfact> 0.34798302E+05</totfact>
</mgrwt>
</event>
<event>
 6    2  0.1674964E-002  0.1506667E+03  0.7546771E-02  0.1199656E+00
         21   -1    0    0  502  503  0.00000000000E+00  0.00000000000E+00  0.97188721705E+02  0.97188721705E+02  0.00000000000E+00 0.  1.
          1   -1    0    0  503    0 -0.00000000000E+00 -0.00000000000E+00 -0.20004514660E+04  0.20004514660E+04  0.00000000000E+00 0.  1.
         25    2    1    2    0    0  0.79599066095E+02 -0.27166521124E+02  0.37332617087E+02  0.15522303688E+03  0.12500574262E+03 0.  0.
          5    1    3    3  501    0  0.11167311811E+03 -0.16226090263E+02  0.13190203571E+02  0.11361409589E+03  0.10000000000E+00 0.  1.
         -5    1    3    3    0  501 -0.32074052017E+02 -0.10940430861E+02  0.24142413516E+02  0.41608940993E+02  0.10000000000E+00 0.  1.
          1    1    1    2  502    0 -0.79599066095E+02  0.27166521124E+02 -0.19405953614E+04  0.19424171508E+04  0.00000000000E+00 0.  1.
<mgrwt>
<rscale>  1 0.15066674E+03</rscale>
<asrwt>0</asrwt>
<pdfrwt beam="1">  1       21 0.14952111E-01 0.15066674E+03</pdfrwt>
<pdfrwt beam="2">  1        1 0.30776176E+00 0.15066674E+03</pdfrwt>
<totfact> 0.15662380E+03</totfact>
</mgrwt>
</event>
<event>
 6    2  0.1674964E-002  0.1388315E+03  0.7546771E-02  0.1214910E+00
          1   -1    0    0  503    0 -0.00000000000E+00  0.00000000000E+00  0.80671718714E+03  0.80671718714E+03  0.00000000000E+00 0.  1.
         21   -1    0    0  502  503  0.00000000000E+00 -0.00000000000E+00 -0.19607027725E+02  0.19607027725E+02  0.00000000000E+00 0.  1.
         25    2    1    2    0    0  0.56486799091E+02  0.21407387227E+02  0.25112632138E+03  0.28694706543E+03  0.12500061747E+03 0.  0.
          5    1    3    3  501    0  0.90734435097E+02 -0.45601556326E-01  0.12468556680E+03  0.15420518915E+03  0.10000000000E+00 0. -1.
         -5    1    3    3    0  501 -0.34247636006E+02  0.21452988783E+02  0.12644075458E+03  0.13274187628E+03  0.10000000000E+00 0. -1.
          1    1    1    2  502    0 -0.56486799091E+02 -0.21407387227E+02  0.53598383804E+03  0.53937714944E+03  0.00000000000E+00 0.  1.
<mgrwt>
<rscale>  1 0.13883151E+03</rscale>
<asrwt>0</asrwt>
<pdfrwt beam="1">  1       21 0.30164664E-02 0.13883151E+03</pdfrwt>
<pdfrwt beam="2">  1        1 0.12411031E+00 0.13883151E+03</pdfrwt>
<totfact> 0.15836663E+05</totfact>
</mgrwt>
</event>
<event>
 6    2  0.1674964E-002  0.1270679E+03  0.7546771E-02  0.1231872E+00
          2   -1    0    0  503    0 -0.00000000000E+00  0.00000000000E+00  0.15012334505E+04  0.15012334505E+04  0.00000000000E+00 0.  1.
         21   -1    0    0  502  503  0.00000000000E+00 -0.00000000000E+00 -0.40632056546E+01  0.40632056546E+01  0.00000000000E+00 0.  1.
         25    2    1    2    0    0 -0.21577601288E+02 -0.63103988076E+01  0.10670350959E+04  0.10745744019E+04  0.12506332468E+03 0.  0.
          5    1    3    3  501    0  0.45885306862E+01 -0.63755078274E+02  0.54738936883E+03  0.55110878756E+03  0.10000000000E+00 0. -1.
         -5    1    3    3    0  501 -0.26166131975E+02  0.57444679466E+02  0.51964572709E+03  0.52346561429E+03  0.10000000000E+00 0. -1.
          2    1    1    2  502    0  0.21577601288E+02  0.63103988076E+01  0.43013514893E+03  0.43072225431E+03  0.00000000000E+00 0.  1.
<mgrwt>
<rscale>  1 0.12706789E+03</rscale>
<asrwt>0</asrwt>
<pdfrwt beam="1">  1       21 0.62510976E-03 0.12706789E+03</pdfrwt>
<pdfrwt beam="2">  1        2 0.23095855E+00 0.12706789E+03</pdfrwt>
<totfact> 0.13529175E+06</totfact>
</mgrwt>
</event>
<event>
 6    2  0.1674964E-002  0.1322434E+03  0.7546771E-02  0.1224164E+00
          2   -1    0    0  503    0 -0.00000000000E+00  0.00000000000E+00  0.13432449316E+03  0.13432449316E+03  0.00000000000E+00 0. -1.
         21   -1    0    0  502  503  0.00000000000E+00 -0.00000000000E+00 -0.73117013511E+02  0.73117013511E+02  0.00000000000E+00 0. -1.
         25    2    1    2    0    0  0.25845758257E+02 -0.34651421091E+02 -0.32278385080E+00  0.13224378377E+03  0.12497835794E+03 0.  0.
          5    1    3    3  501    0  0.39756481970E+02  0.38746085204E+02  0.11266230581E+02  0.56646049542E+02  0.10000000000E+00 0. -1.
         -5    1    3    3    0  501 -0.13910723713E+02 -0.73397506295E+02 -0.11589014431E+02  0.75597734225E+02  0.10000000000E+00 0. -1.
          2    1    1    2  502    0 -0.25845758257E+02  0.34651421091E+02  0.61530263503E+02  0.75197722906E+02  0.00000000000E+00 0. -1.
<mgrwt>
<rscale>  1 0.13224339E+03</rscale>
<asrwt>0</asrwt>
<pdfrwt beam="1">  1       21 0.11248771E-01 0.13224339E+03</pdfrwt>
<pdfrwt beam="2">  1        2 0.20665307E-01 0.13224339E+03</pdfrwt>
<totfact> 0.21176053E+05</totfact>
</mgrwt>
</event>
<event>
 6    2  0.1674964E-002  0.1855514E+03  0.7546771E-02  0.1162536E+00
          2   -1    0    0  503    0 -0.00000000000E+00  0.00000000000E+00  0.71037846733E+03  0.71037846733E+03  0.00000000000E+00 0. -1.
         21   -1    0    0  502  503  0.00000000000E+00 -0.00000000000E+00 -0.23749520676E+03  0.23749520676E+03  0.00000000000E+00 0.  1.
         25    2    1    2    0    0 -0.75337700536E+02  0.11457586377E+03 -0.19317040440E+03  0.26785096691E+03  0.12500375057E+03 0.  0.
          5    1    3    3  501    0 -0.33328728548E+01  0.46020998913E+02  0.47273280155E+01  0.46383165185E+02  0.10000000000E+00 0. -1.
         -5    1    3    3    0  501 -0.72004827681E+02  0.68554864861E+02 -0.19789773241E+03  0.22146780172E+03  0.10000000000E+00 0. -1.
          2    1    1    2  502    0  0.75337700536E+02 -0.11457586377E+03  0.66605366497E+03  0.68002270719E+03  0.00000000000E+00 0. -1.
<mgrwt>
<rscale>  1 0.18555144E+03</rscale>
<asrwt>0</asrwt>
<pdfrwt beam="1">  1       21 0.36537724E-01 0.18555144E+03</pdfrwt>
<pdfrwt beam="2">  1        2 0.10928899E+00 0.18555144E+03</pdfrwt>
<totfact> 0.37644749E+03</totfact>
</mgrwt>
</event>
<event>
 6    2  0.1674964E-002  0.1552327E+03  0.7546771E-02  0.1194187E+00
         21   -1    0    0  502  503  0.00000000000E+00  0.00000000000E+00  0.89214619158E+02  0.89214619158E+02  0.00000000000E+00 0.  1.
          2   -1    0    0  503    0 -0.00000000000E+00 -0.00000000000E+00 -0.22086825011E+03  0.22086825011E+03  0.00000000000E+00 0.  1.
         25    2    1    2    0    0  0.18956098847E+02 -0.90068888245E+02 -0.73431587249E+01  0.15540632994E+03  0.12500186835E+03 0.  0.
          5    1    3    3  501    0  0.46836558772E+02 -0.10338293320E+03  0.18662955588E+02  0.11502178066E+03  0.10000000000E+00 0.  1.
         -5    1    3    3    0  501 -0.27880459926E+02  0.13314044957E+02 -0.26006114313E+02  0.40384549279E+02  0.10000000000E+00 0.  1.
          2    1    1    2  502    0 -0.18956098847E+02  0.90068888245E+02 -0.12431047223E+03  0.15467653933E+03  0.00000000000E+00 0.  1.
<mgrwt>
<rscale>  1 0.15523275E+03</rscale>
<asrwt>0</asrwt>
<pdfrwt beam="1">  1       21 0.13725326E-01 0.15523275E+03</pdfrwt>
<pdfrwt beam="2">  1        2 0.33979731E-01 0.15523275E+03</pdfrwt>
<totfact> 0.86558307E+04</totfact>
</mgrwt>
</event>
<event>
 6    2  0.1674964E-002  0.1328663E+03  0.7546771E-02  0.1223264E+00
         21   -1    0    0  502  503  0.00000000000E+00  0.00000000000E+00  0.96631181457E+02  0.96631181457E+02  0.00000000000E+00 0. -1.
          1   -1    0    0  503    0 -0.00000000000E+00 -0.00000000000E+00 -0.87482525820E+02  0.87482525820E+02  0.00000000000E+00 0. -1.
         25    2    1    2    0    0 -0.14150504548E+02  0.42745384400E+02  0.27167566384E+02  0.13561539998E+03  0.12500422145E+03 0.  0.
          5    1    3    3  501    0  0.10892798983E+02  0.83933229311E+02  0.16036392102E+02  0.86142996952E+02  0.10000000000E+00 0. -1.
         -5    1    3    3    0  501 -0.25043303531E+02 -0.41187844910E+02  0.11131174282E+02  0.49472403024E+02  0.10000000000E+00 0. -1.
          1    1    1    2  502    0  0.14150504548E+02 -0.42745384400E+02 -0.18018910747E+02  0.48498307300E+02  0.00000000000E+00 0. -1.
<mgrwt>
<rscale>  1 0.13286632E+03</rscale>
<asrwt>0</asrwt>
<pdfrwt beam="1">  1       21 0.14866336E-01 0.13286632E+03</pdfrwt>
<pdfrwt beam="2">  1        1 0.13458850E-01 0.13286632E+03</pdfrwt>
<totfact> 0.18013361E+05</totfact>
</mgrwt>
</event>
<event>
 6    2  0.1674964E-002  0.1384703E+03  0.7546771E-02  0.1215402E+00
         21   -1    0    0  502  503  0.00000000000E+00  0.00000000000E+00  0.36128674651E+02  0.36128674651E+02  0.00000000000E+00 0.  1.
          1   -1    0    0  503    0 -0.00000000000E+00 -0.00000000000E+00 -0.73133623553E+03  0.73133623553E+03  0.00000000000E+00 0.  1.
         25    2    1    2    0    0 -0.54089394967E+02  0.24959145930E+02 -0.10377833271E+03  0.17304321345E+03  0.12500155906E+03 0.  0.
          5    1    3    3  501    0  0.25238160167E+02  0.45857249284E+02 -0.61485839312E+02  0.80748810990E+02  0.10000000000E+00 0. -1.
         -5    1    3    3    0  501 -0.79327555134E+02 -0.20898103354E+02 -0.42292493399E+02  0.92294402459E+02  0.10000000000E+00 0. -1.
          1    1    1    2  502    0  0.54089394967E+02 -0.24959145930E+02 -0.59142922817E+03  0.59442169673E+03  0.00000000000E+00 0.  1.
<mgrwt>
<rscale>  1 0.13847025E+03</rscale>
<asrwt>0</asrwt>
<pdfrwt beam="1">  1       21 0.55582583E-02 0.13847025E+03</pdfrwt>
<pdfrwt beam="2">  1        1 0.11251325E+00 0.13847025E+03</pdfrwt>
<totfact> 0.66138420E+04</totfact>
</mgrwt>
</event>
<event>
 6    2  0.1674964E-002  0.1541686E+03  0.7546771E-02  0.1195442E+00
         21   -1    0    0  502  503  0.00000000000E+00  0.00000000000E+00  0.36045420127E+02  0.36045420127E+02  0.00000000000E+00 0.  1.
          1   -1    0    0  503    0 -0.00000000000E+00 -0.00000000000E+00 -0.53388089009E+03  0.53388089009E+03  0.00000000000E+00 0.  1.
         25    2    1    2    0    0  0.84980841552E+02  0.30304418343E+02 -0.43071553795E+03  0.45747549218E+03  0.12501139995E+03 0.  0.
          5    1    3    3  501    0  0.57467013376E+01  0.53880682782E+02 -0.76533038870E+02  0.93773496213E+02  0.10000000000E+00 0. -1.
         -5    1    3    3    0  501  0.79234140214E+02 -0.23576264440E+02 -0.35418249908E+03  0.36370199597E+03  0.10000000000E+00 0. -1.
          1    1    1    2  502    0 -0.84980841552E+02 -0.30304418343E+02 -0.67119932011E+02  0.11245081803E+03  0.00000000000E+00 0.  1.
<mgrwt>
<rscale>  1 0.15416858E+03</rscale>
<asrwt>0</asrwt>
<pdfrwt beam="1">  1       21 0.55454492E-02 0.15416858E+03</pdfrwt>
<pdfrwt beam="2">  1        1 0.82135523E-01 0.15416858E+03</pdfrwt>
<totfact> 0.10282803E+05</totfact>
</mgrwt>
</event>
<event>
 6    2  0.1674964E-002  0.1286723E+03  0.7546771E-02  0.1229439E+00
         21   -1    0    0  502  503  0.00000000000E+00  0.00000000000E+00  0.26350838302E+01  0.26350838302E+01  0.00000000000E+00 0. -1.
          1   -1    0    0  503    0 -0.00000000000E+00 -0.00000000000E+00 -0.28732029997E+04  0.28732029997E+04  0.00000000000E+00 0. -1.
         25    2    1    2    0    0 -0.24604891979E+02  0.18010530571E+02 -0.16958510918E+04  0.17007255797E+04  0.12500716757E+03 0.  0.
          5    1    3    3  501    0 -0.58759365775E+02  0.53078640625E+02 -0.11217344757E+04  0.11245257885E+04  0.10000000000E+00 0.  1.
         -5    1    3    3    0  501  0.34154473796E+02 -0.35068110054E+02 -0.57411661610E+03  0.57619979114E+03  0.10000000000E+00 0.  1.
          1    1    1    2  502    0  0.24604891979E+02 -0.18010530571E+02 -0.11747168241E+04  0.11751125038E+04  0.00000000000E+00 0. -1.
<mgrwt>
<rscale>  1 0.12867234E+03</rscale>
<asrwt>0</asrwt>
<pdfrwt beam="1">  1       21 0.40539847E-03 0.12867234E+03</pdfrwt>
<pdfrwt beam="2">  1        1 0.44203019E+00 0.12867234E+03</pdfrwt>
<totfact> 0.16007922E+05</totfact>
</mgrwt>
</event>
<event>
 6    2  0.1674964E-002  0.1297601E+03  0.7546771E-02  0.1227812E+00
         21   -1    0    0  502  503  0.00000000000E+00  0.00000000000E+00  0.17573865250E+04  0.17573865250E+04  0.00000000000E+00 0. -1.
          4   -1    0    0  503    0 -0.00000000000E+00 -0.00000000000E+00 -0.49901319389E+02  0.49901319389E+02  0.00000000000E+00 0. -1.
         25    2    1    2    0    0  0.66187503472E+01  0.34159456766E+02  0.17486101953E+04  0.17534181766E+04  0.12500804264E+03 0.  0.
          5    1    3    3  501    0 -0.21099950013E+02 -0.33351409230E+02  0.11013134560E+04  0.11020203549E+04  0.10000000000E+00 0. -1.
         -5    1    3    3    0  501  0.27718700361E+02  0.67510865996E+02  0.64729673928E+03  0.65139782166E+03  0.10000000000E+00 0. -1.
          4    1    1    2  502    0 -0.66187503472E+01 -0.34159456766E+02 -0.41124989602E+02  0.53869667834E+02  0.00000000000E+00 0. -1.
<mgrwt>
<rscale>  1 0.12976011E+03</rscale>
<asrwt>0</asrwt>
<pdfrwt beam="1">  1       21 0.27036711E+00 0.12976011E+03</pdfrwt>
<pdfrwt beam="2">  1        4 0.76771274E-02 0.12976011E+03</pdfrwt>
<totfact> 0.26147323E+02</totfact>
</mgrwt>
</event>
<event>
 6    2  0.1674964E-002  0.1262225E+03  0.7546771E-02  0.1233171E+00
          3   -1    0    0  503    0 -0.00000000000E+00  0.00000000000E+00  0.23741181993E+03  0.23741181993E+03  0.00000000000E+00 0.  1.
         21   -1    0    0  502  503  0.00000000000E+00 -0.00000000000E+00 -0.25479901318E+02  0.25479901318E+02  0.00000000000E+00 0.  1.
         25    2    1    2    0    0 -0.17352996283E+02 -0.40362055456E+01  0.13875360119E+03  0.18757582933E+03  0.12495884310E+03 0.  0.
          5    1    3    3  501    0 -0.33306654631E+02 -0.28364351756E+02 -0.20521068064E+01  0.43796013924E+02  0.10000000000E+00 0.  1.
         -5    1    3    3    0  501  0.15953658347E+02  0.24328146211E+02  0.14080570800E+03  0.14377981540E+03  0.10000000000E+00 0.  1.
          3    1    1    2  502    0  0.17352996283E+02  0.40362055456E+01  0.73178317422E+02  0.75315891921E+02  0.00000000000E+00 0.  1.
<mgrwt>
<rscale>  1 0.12622254E+03</rscale>
<asrwt>0</asrwt>
<pdfrwt beam="1">  1       21 0.39199850E-02 0.12622254E+03</pdfrwt>
<pdfrwt beam="2">  1        3 0.36524894E-01 0.12622254E+03</pdfrwt>
<totfact> 0.14107211E+05</totfact>
</mgrwt>
</event>
<event>
 6    2  0.1674964E-002  0.1380069E+03  0.7546771E-02  0.1216036E+00
          2   -1    0    0  503    0 -0.00000000000E+00  0.00000000000E+00  0.29433037945E+04  0.29433037945E+04  0.00000000000E+00 0. -1.
         21   -1    0    0  502  503  0.00000000000E+00 -0.00000000000E+00 -0.28925172409E+02  0.28925172409E+02  0.00000000000E+00 0. -1.
         25    2    1    2    0    0 -0.27130789646E+02  0.51813851367E+02  0.13776785624E+03  0.19500227469E+03  0.12500059992E+03 0.  0.
          5    1    3    3  501    0 -0.16626596786E+02 -0.40881867882E+02  0.52826690372E+02  0.68836328039E+02  0.10000000000E+00 0. -1.
         -5    1    3    3    0  501 -0.10504192860E+02  0.92695719250E+02  0.84941165866E+02  0.12616594665E+03  0.10000000000E+00 0. -1.
          2    1    1    2  502    0  0.27130789646E+02 -0.51813851367E+02  0.27766107659E+04  0.27772266922E+04  0.00000000000E+00 0. -1.
<mgrwt>
<rscale>  1 0.13800690E+03</rscale>
<asrwt>0</asrwt>
<pdfrwt beam="1">  1       21 0.44500288E-02 0.13800690E+03</pdfrwt>
<pdfrwt beam="2">  1        2 0.45281573E+00 0.13800690E+03</pdfrwt>
<totfact> 0.10022172E+04</totfact>
</mgrwt>
</event>
<event>
 6    2  0.1674964E-002  0.1405932E+03  0.7546771E-02  0.1212533E+00
         21   -1    0    0  502  503  0.00000000000E+00  0.00000000000E+00  0.10868172255E+03  0.10868172255E+03  0.00000000000E+00 0. -1.
          2   -1    0    0  503    0 -0.00000000000E+00 -0.00000000000E+00 -0.86939119446E+03  0.86939119446E+03  0.00000000000E+00 0. -1.
         25    2    1    2    0    0  0.37630716852E+02  0.52206778099E+02  0.61423357426E+02  0.15342510880E+03  0.12499926657E+03 0.  0.
          5    1    3    3  501    0 -0.99295790963E+01  0.69208614761E+02  0.73552621086E+02  0.10148116558E+03  0.10000000000E+00 0. -1.
         -5    1    3    3    0  501  0.47560295949E+02 -0.17001836662E+02 -0.12129263660E+02  0.51943943223E+02  0.10000000000E+00 0. -1.
          2    1    1    2  502    0 -0.37630716852E+02 -0.52206778099E+02 -0.82213282933E+03  0.82464780822E+03  0.00000000000E+00 0. -1.
<mgrwt>
<rscale>  1 0.14059315E+03</rscale>
<asrwt>0</asrwt>
<pdfrwt beam="1">  1       21 0.16720266E-01 0.14059315E+03</pdfrwt>
<pdfrwt beam="2">  1        2 0.13375249E+00 0.14059315E+03</pdfrwt>
<totfact> 0.13149190E+04</totfact>
</mgrwt>
</event>
<event>
 6    2  0.1674964E-002  0.1486035E+03  0.7546771E-02  0.1202200E+00
          1   -1    0    0  503    0 -0.00000000000E+00  0.00000000000E+00  0.44844955206E+03  0.44844955206E+03  0.00000000000E+00 0.  1.
         21   -1    0    0  502  503  0.00000000000E+00 -0.00000000000E+00 -0.29314684200E+02  0.29314684200E+02  0.00000000000E+00 0.  1.
         25    2    1    2    0    0 -0.80238593182E+02  0.44557754096E+01  0.25928536063E+03  0.29885098708E+03  0.12499971389E+03 0.  0.
          5    1    3    3  501    0  0.23928730975E+02 -0.24582964989E+02  0.30955729548E+02  0.46207937907E+02  0.10000000000E+00 0. -1.
         -5    1    3    3    0  501 -0.10416732416E+03  0.29038740399E+02  0.22832963108E+03  0.25264304917E+03  0.10000000000E+00 0. -1.
          1    1    1    2  502    0  0.80238593182E+02 -0.44557754096E+01  0.15984950723E+03  0.17891324918E+03  0.00000000000E+00 0.  1.
<mgrwt>
<rscale>  1 0.14860355E+03</rscale>
<asrwt>0</asrwt>
<pdfrwt beam="1">  1       21 0.45099517E-02 0.14860355E+03</pdfrwt>
<pdfrwt beam="2">  1        1 0.68992234E-01 0.14860355E+03</pdfrwt>
<totfact> 0.18269716E+05</totfact>
</mgrwt>
</event>
<event>
 6    2  0.1674964E-002  0.1812019E+03  0.7546771E-02  0.1166645E+00
          2   -1    0    0  503    0 -0.00000000000E+00  0.00000000000E+00  0.10473965643E+04  0.10473965643E+04  0.00000000000E+00 0. -1.
         21   -1    0    0  502  503  0.00000000000E+00 -0.00000000000E+00 -0.45146309001E+02  0.45146309001E+02  0.00000000000E+00 0. -1.
         25    2    1    2    0    0  0.82297492611E+02  0.10215698028E+03  0.16497377184E+03  0.24505196735E+03  0.12500078159E+03 0.  0.
          5    1    3    3  501    0 -0.33542005295E+01 -0.25491095998E+02  0.12693361478E+02  0.28673647518E+02  0.10000000000E+00 0.  1.
         -5    1    3    3    0  501  0.85651693141E+02  0.12764807628E+03  0.15228041036E+03  0.21637831984E+03  0.10000000000E+00 0.  1.
          2    1    1    2  502    0 -0.82297492611E+02 -0.10215698028E+03  0.83727648341E+03  0.84749090590E+03  0.00000000000E+00 0. -1.
<mgrwt>
<rscale>  1 0.18120188E+03</rscale>
<asrwt>0</asrwt>
<pdfrwt beam="1">  1       21 0.69455868E-02 0.18120188E+03</pdfrwt>
<pdfrwt beam="2">  1        2 0.16113791E+00 0.18120188E+03</pdfrwt>
<totfact> 0.48009215E+04</totfact>
</mgrwt>
</event>
<event>
 6    2  0.1674964E-002  0.1266325E+03  0.7546771E-02  0.1232540E+00
         21   -1    0    0  502  503  0.00000000000E+00  0.00000000000E+00  0.15318057458E+04  0.15318057458E+04  0.00000000000E+00 0.  1.
          2   -1    0    0  503    0 -0.00000000000E+00 -0.00000000000E+00 -0.70566009266E+01  0.70566009266E+01  0.00000000000E+00 0. -1.
         25    2    1    2    0    0 -0.13556283367E+02 -0.15015359187E+02  0.15058916541E+04  0.15112066278E+04  0.12500625696E+03 0.  0.
          5    1    3    3  501    0 -0.16227677697E+02 -0.58233191004E+02  0.12657252094E+04  0.12671680069E+04  0.10000000000E+00 0.  1.
         -5    1    3    3    0  501  0.26713943307E+01  0.43217831818E+02  0.24016644475E+03  0.24403862095E+03  0.10000000000E+00 0.  1.
          2    1    1    2  502    0  0.13556283367E+02  0.15015359187E+02  0.18857490818E+02  0.27655718942E+02  0.00000000000E+00 0. -1.
<mgrwt>
<rscale>  1 0.12663253E+03</rscale>
<asrwt>0</asrwt>
<pdfrwt beam="1">  1       21 0.23566216E+00 0.12663253E+03</pdfrwt>
<pdfrwt beam="2">  1        2 0.10856321E-02 0.12663253E+03</pdfrwt>
<totfact> 0.12602866E+04</totfact>
</mgrwt>
</event>
<event>
 6    2  0.1674964E-002  0.1301536E+03  0.7546771E-02  0.1227228E+00
          2   -1    0    0  503    0 -0.00000000000E+00  0.00000000000E+00  0.33563419051E+02  0.33563419051E+02  0.00000000000E+00 0.  1.
         21   -1    0    0  502  503  0.00000000000E+00 -0.00000000000E+00 -0.36034676652E+03  0.36034676652E+03  0.00000000000E+00 0.  1.
         25    2    1    2    0    0  0.33485636371E+02 -0.14006382300E+02 -0.33259164941E+03  0.35715147286E+03  0.12499001050E+03 0.  0.
          5    1    3    3  501    0 -0.47048229663E+02 -0.92410638052E+01 -0.15140922640E+03  0.15881969970E+03  0.10000000000E+00 0.  1.
         -5    1    3    3    0  501  0.80533866035E+02 -0.47653184943E+01 -0.18118242301E+03  0.19833177317E+03  0.10000000000E+00 0.  1.
          2    1    1    2  502    0 -0.33485636371E+02  0.14006382300E+02  0.58083019397E+01  0.36758712705E+02  0.00000000000E+00 0.  1.
<mgrwt>
<rscale>  1 0.13015364E+03</rscale>
<asrwt>0</asrwt>
<pdfrwt beam="1">  1       21 0.55437964E-01 0.13015364E+03</pdfrwt>
<pdfrwt beam="2">  1        2 0.51636029E-02 0.13015364E+03</pdfrwt>
<totfact> 0.55020555E+04</totfact>
</mgrwt>
</event>
<event>
 6    2  0.1674964E-002  0.1307879E+03  0.7546771E-02  0.1226291E+00
         21   -1    0    0  502  503  0.00000000000E+00  0.00000000000E+00  0.84731159203E+02  0.84731159203E+02  0.00000000000E+00 0.  1.
          1   -1    0    0  503    0 -0.00000000000E+00 -0.00000000000E+00 -0.88683850155E+02  0.88683850155E+02  0.00000000000E+00 0.  1.
         25    2    1    2    0    0 -0.38356521525E+02  0.30355080687E+01  0.12874087327E+02  0.13142003918E+03  0.12500019009E+03 0.  0.
          5    1    3    3  501    0  0.20491764326E+02  0.48324988754E+02  0.21377805215E+02  0.56676604513E+02  0.10000000000E+00 0.  1.
         -5    1    3    3    0  501 -0.58848285851E+02 -0.45289480686E+02 -0.85037178882E+01  0.74743434670E+02  0.10000000000E+00 0.  1.
          1    1    1    2  502    0  0.38356521525E+02 -0.30355080687E+01 -0.16826778279E+02  0.41994970175E+02  0.00000000000E+00 0.  1.
<mgrwt>
<rscale>  1 0.13078794E+03</rscale>
<asrwt>0</asrwt>
<pdfrwt beam="1">  1       21 0.13035563E-01 0.13078794E+03</pdfrwt>
<pdfrwt beam="2">  1        1 0.13643669E-01 0.13078794E+03</pdfrwt>
<totfact> 0.22378141E+05</totfact>
</mgrwt>
</event>
<event>
 6    2  0.1674964E-002  0.1283747E+03  0.7546771E-02  0.1229888E+00
          1   -1    0    0  503    0 -0.00000000000E+00  0.00000000000E+00  0.10988411825E+04  0.10988411825E+04  0.00000000000E+00 0.  1.
         21   -1    0    0  502  503  0.00000000000E+00 -0.00000000000E+00 -0.62572329687E+01  0.62572329687E+01  0.00000000000E+00 0.  1.
         25    2    1    2    0    0 -0.53245445455E+01 -0.28749668537E+02  0.71887698636E+03  0.73024939448E+03  0.12500064960E+03 0.  0.
          5    1    3    3  501    0  0.47777214218E+02 -0.33887327990E+01  0.53603842900E+03  0.53817409179E+03  0.10000000000E+00 0. -1.
         -5    1    3    3    0  501 -0.53101758764E+02 -0.25360935738E+02  0.18283855736E+03  0.19207530269E+03  0.10000000000E+00 0. -1.
          1    1    1    2  502    0  0.53245445455E+01  0.28749668537E+02  0.37370696322E+03  0.37484902104E+03  0.00000000000E+00 0.  1.
<mgrwt>
<rscale>  1 0.12837467E+03</rscale>
<asrwt>0</asrwt>
<pdfrwt beam="1">  1       21 0.96265210E-03 0.12837467E+03</pdfrwt>
<pdfrwt beam="2">  1        1 0.16905234E+00 0.12837467E+03</pdfrwt>
<totfact> 0.59662339E+05</totfact>
</mgrwt>
</event>
<event>
 6    2  0.1674964E-002  0.1754354E+03  0.7546771E-02  0.1172295E+00
         21   -1    0    0  502  503  0.00000000000E+00  0.00000000000E+00  0.31191565479E+02  0.31191565479E+02  0.00000000000E+00 0.  1.
          2   -1    0    0  503    0 -0.00000000000E+00 -0.00000000000E+00 -0.11562216915E+04  0.11562216915E+04  0.00000000000E+00 0.  1.
         25    2    1    2    0    0 -0.11424441027E+03  0.45835663804E+02 -0.25989738665E+03  0.31356696038E+03  0.12499957479E+03 0.  0.
          5    1    3    3  501    0  0.17188049171E+02  0.32303400353E+02 -0.97929535993E+02  0.10454254028E+03  0.10000000000E+00 0. -1.
         -5    1    3    3    0  501 -0.13143245944E+03  0.13532263452E+02 -0.16196785066E+03  0.20902442010E+03  0.10000000000E+00 0. -1.
          2    1    1    2  502    0  0.11424441027E+03 -0.45835663804E+02 -0.86513273937E+03  0.87384629661E+03  0.00000000000E+00 0.  1.
<mgrwt>
<rscale>  1 0.17543542E+03</rscale>
<asrwt>0</asrwt>
<pdfrwt beam="1">  1       21 0.47987022E-02 0.17543542E+03</pdfrwt>
<pdfrwt beam="2">  1        2 0.17788027E+00 0.17543542E+03</pdfrwt>
<totfact> 0.78055096E+04</totfact>
</mgrwt>
</event>
<event>
 6    2  0.1674964E-002  0.1826240E+03  0.7546771E-02  0.1165287E+00
          2   -1    0    0  503    0 -0.00000000000E+00  0.00000000000E+00  0.69306943457E+03  0.69306943457E+03  0.00000000000E+00 0. -1.
         21   -1    0    0  502  503  0.00000000000E+00 -0.00000000000E+00 -0.65428161442E+03  0.65428161442E+03  0.00000000000E+00 0.  1.
         25    2    1    2    0    0  0.33958020879E+02 -0.12870075120E+03 -0.63489821793E+03  0.66064157006E+03  0.12503801990E+03 0.  0.
          5    1    3    3  501    0  0.40019189458E+02 -0.46939258804E+01 -0.58567531205E+02  0.71089620737E+02  0.10000000000E+00 0. -1.
         -5    1    3    3    0  501 -0.60611685792E+01 -0.12400682532E+03 -0.57633068673E+03  0.58955194933E+03  0.10000000000E+00 0. -1.
          2    1    1    2  502    0 -0.33958020879E+02  0.12870075120E+03  0.67368603808E+03  0.68670947893E+03  0.00000000000E+00 0. -1.
<mgrwt>
<rscale>  1 0.18262403E+03</rscale>
<asrwt>0</asrwt>
<pdfrwt beam="1">  1       21 0.10065871E+00 0.18262403E+03</pdfrwt>
<pdfrwt beam="2">  1        2 0.10662607E+00 0.18262403E+03</pdfrwt>
<totfact> 0.43576010E+02</totfact>
</mgrwt>
</event>
<event>
 6    2  0.1674964E-002  0.1485987E+03  0.7546771E-02  0.1202206E+00
         21   -1    0    0  502  503  0.00000000000E+00  0.00000000000E+00  0.10074683986E+03  0.10074683986E+03  0.00000000000E+00 0. -1.
          1   -1    0    0  503    0 -0.00000000000E+00 -0.00000000000E+00 -0.18122127358E+04  0.18122127358E+04  0.00000000000E+00 0. -1.
         25    2    1    2    0    0  0.50240673349E+02  0.62664030787E+02  0.44530389226E+02  0.15512742795E+03  0.12502262725E+03 0.  0.
          5    1    3    3  501    0  0.31571218464E+02  0.68432381829E+02 -0.27705444766E+02  0.80295294930E+02  0.10000000000E+00 0. -1.
         -5    1    3    3    0  501  0.18669454885E+02 -0.57683510422E+01  0.72235833992E+02  0.74832133018E+02  0.10000000000E+00 0. -1.
          1    1    1    2  502    0 -0.50240673349E+02 -0.62664030787E+02 -0.17559962852E+04  0.17578321477E+04  0.00000000000E+00 0. -1.
<mgrwt>
<rscale>  1 0.14859867E+03</rscale>
<asrwt>0</asrwt>
<pdfrwt beam="1">  1       21 0.15499514E-01 0.14859867E+03</pdfrwt>
<pdfrwt beam="2">  1        1 0.27880196E+00 0.14859867E+03</pdfrwt>
<totfact> 0.19373411E+03</totfact>
</mgrwt>
</event>
<event>
 6    2  0.1674964E-002  0.1294452E+03  0.7546771E-02  0.1228281E+00
         21   -1    0    0  502  503  0.00000000000E+00  0.00000000000E+00  0.12682515335E+02  0.12682515335E+02  0.00000000000E+00 0. -1.
          2   -1    0    0  503    0 -0.00000000000E+00 -0.00000000000E+00 -0.14283073374E+04  0.14283073374E+04  0.00000000000E+00 0. -1.
         25    2    1    2    0    0  0.29808579460E+02  0.15762761392E+02 -0.32480358371E+03  0.34964756450E+03  0.12497613896E+03 0.  0.
          5    1    3    3  501    0 -0.33394792780E+02 -0.26227423414E+02 -0.55637541698E+02  0.69990256250E+02  0.10000000000E+00 0.  1.
         -5    1    3    3    0  501  0.63203372240E+02  0.41990184806E+02 -0.26916604201E+03  0.27965730825E+03  0.10000000000E+00 0.  1.
          2    1    1    2  502    0 -0.29808579460E+02 -0.15762761392E+02 -0.10908212384E+04  0.10913422882E+04  0.00000000000E+00 0. -1.
<mgrwt>
<rscale>  1 0.12944517E+03</rscale>
<asrwt>0</asrwt>
<pdfrwt beam="1">  1       21 0.19511576E-02 0.12944517E+03</pdfrwt>
<pdfrwt beam="2">  1        2 0.21973944E+00 0.12944517E+03</pdfrwt>
<totfact> 0.24431751E+05</totfact>
</mgrwt>
</event>
<event>
 6    2  0.1674964E-002  0.1903109E+03  0.7546771E-02  0.1158181E+00
          2   -1    0    0  503    0 -0.00000000000E+00  0.00000000000E+00  0.15934704934E+04  0.15934704934E+04  0.00000000000E+00 0.  1.
         21   -1    0    0  502  503  0.00000000000E+00 -0.00000000000E+00 -0.56695221679E+02  0.56695221679E+02  0.00000000000E+00 0. -1.
         25    2    1    2    0    0  0.55375360138E+02 -0.13238930946E+03  0.11751605375E+03  0.22366997812E+03  0.12499950581E+03 0.  0.
          5    1    3    3  501    0  0.78105779787E+02 -0.13238325548E+03  0.65838263666E+02  0.16721401296E+03  0.10000000000E+00 0. -1.
         -5    1    3    3    0  501 -0.22730419649E+02 -0.60539761489E-02  0.51677790082E+02  0.56455965157E+02  0.10000000000E+00 0. -1.
          2    1    1    2  502    0 -0.55375360138E+02  0.13238930946E+03  0.14192592179E+04  0.14264957369E+04  0.00000000000E+00 0.  1.
<mgrwt>
<rscale>  1 0.19031089E+03</rscale>
<asrwt>0</asrwt>
<pdfrwt beam="1">  1       21 0.87223430E-02 0.19031089E+03</pdfrwt>
<pdfrwt beam="2">  1        2 0.24514927E+00 0.19031089E+03</pdfrwt>
<totfact> 0.16184285E+04</totfact>
</mgrwt>
</event>
<event>
 6    2  0.1674964E-002  0.1295834E+03  0.7546771E-02  0.1228075E+00
          2   -1    0    0  503    0 -0.00000000000E+00  0.00000000000E+00  0.12092339320E+04  0.12092339320E+04  0.00000000000E+00 0. -1.
         21   -1    0    0  502  503  0.00000000000E+00 -0.00000000000E+00 -0.89157405722E+02  0.89157405722E+02  0.00000000000E+00 0.  1.
         25    2    1    2    0    0 -0.29583364795E+02  0.17081972325E+02 -0.41688502886E+02  0.13612417728E+03  0.12499956447E+03 0.  0.
          5    1    3    3  501    0 -0.65312299807E+02  0.33414292271E+01 -0.64259626599E+02  0.91685174734E+02  0.10000000000E+00 0.  1.
         -5    1    3    3    0  501  0.35728935012E+02  0.13740543098E+02  0.22571123713E+02  0.44439002547E+02  0.10000000000E+00 0.  1.
          2    1    1    2  502    0  0.29583364795E+02 -0.17081972325E+02  0.11617650292E+04  0.11622671605E+04  0.00000000000E+00 0. -1.
<mgrwt>
<rscale>  1 0.12958341E+03</rscale>
<asrwt>0</asrwt>
<pdfrwt beam="1">  1       21 0.13716525E-01 0.12958341E+03</pdfrwt>
<pdfrwt beam="2">  1        2 0.18603598E+00 0.12958341E+03</pdfrwt>
<totfact> 0.11892066E+04</totfact>
</mgrwt>
</event>
<event>
 6    2  0.1674964E-002  0.1281017E+03  0.7546771E-02  0.1230300E+00
          2   -1    0    0  503    0 -0.00000000000E+00  0.00000000000E+00  0.21315129998E+03  0.21315129998E+03  0.00000000000E+00 0.  1.
         21   -1    0    0  502  503  0.00000000000E+00 -0.00000000000E+00 -0.29780003474E+02  0.29780003474E+02  0.00000000000E+00 0.  1.
         25    2    1    2    0    0  0.24711085014E+02  0.13238860033E+02  0.12923101355E+03  0.18196348099E+03  0.12499659361E+03 0.  0.
          5    1    3    3  501    0 -0.42980208449E+01  0.34663564370E+02  0.14002798547E+03  0.14431868345E+03  0.10000000000E+00 0. -1.
         -5    1    3    3    0  501  0.29009105859E+02 -0.21424704336E+02 -0.10796971926E+02  0.37644797535E+02  0.10000000000E+00 0. -1.
          2    1    1    2  502    0 -0.24711085014E+02 -0.13238860033E+02  0.54140282961E+02  0.60967822469E+02  0.00000000000E+00 0.  1.
<mgrwt>
<rscale>  1 0.12810173E+03</rscale>
<asrwt>0</asrwt>
<pdfrwt beam="1">  1       21 0.45815391E-02 0.12810173E+03</pdfrwt>
<pdfrwt beam="2">  1        2 0.32792507E-01 0.12810173E+03</pdfrwt>
<totfact> 0.59402440E+05</totfact>
</mgrwt>
</event>
<event>
 6    2  0.1674964E-002  0.1268034E+03  0.7546771E-02  0.1232278E+00
         21   -1    0    0  502  503  0.00000000000E+00  0.00000000000E+00  0.12899068797E+03  0.12899068797E+03  0.00000000000E+00 0. -1.
          1   -1    0    0  503    0 -0.00000000000E+00 -0.00000000000E+00 -0.68220629391E+02  0.68220629391E+02  0.00000000000E+00 0. -1.
         25    2    1    2    0    0  0.90240474554E+01 -0.19310001048E+02  0.93921928952E+02  0.15779867875E+03  0.12499913881E+03 0.  0.
          5    1    3    3  501    0 -0.46727468710E+02 -0.22507681467E+02  0.40934129581E+01  0.52027089931E+02  0.10000000000E+00 0. -1.
         -5    1    3    3    0  501  0.55751516166E+02  0.31976804195E+01  0.89828515994E+02  0.10577158882E+03  0.10000000000E+00 0. -1.
          1    1    1    2  502    0 -0.90240474554E+01  0.19310001048E+02 -0.33151870376E+02  0.39412638612E+02  0.00000000000E+00 0. -1.
<mgrwt>
<rscale>  1 0.12680337E+03</rscale>
<asrwt>0</asrwt>
<pdfrwt beam="1">  1       21 0.19844721E-01 0.12680337E+03</pdfrwt>
<pdfrwt beam="2">  1        1 0.10495481E-01 0.12680337E+03</pdfrwt>
<totfact> 0.14699003E+05</totfact>
</mgrwt>
</event>
<event>
 6    2  0.1674964E-002  0.1308506E+03  0.7546771E-02  0.1226199E+00
         21   -1    0    0  502  503  0.00000000000E+00  0.00000000000E+00  0.96113697788E+01  0.96113697788E+01  0.00000000000E+00 0.  1.
          2   -1    0    0  503    0 -0.00000000000E+00 -0.00000000000E+00 -0.74919751850E+03  0.74919751850E+03  0.00000000000E+00 0.  1.
         25    2    1    2    0    0 -0.26894899995E+02 -0.27901209498E+02 -0.58187630357E+03  0.59640750776E+03  0.12498027652E+03 0.  0.
          5    1    3    3  501    0  0.48078861699E+02 -0.37535379029E+01 -0.29493279540E+03  0.29884951028E+03  0.10000000000E+00 0.  1.
         -5    1    3    3    0  501 -0.74973761693E+02 -0.24147671595E+02 -0.28694350817E+03  0.29755799748E+03  0.10000000000E+00 0.  1.
          2    1    1    2  502    0  0.26894899995E+02  0.27901209498E+02 -0.15770984516E+03  0.16240138053E+03  0.00000000000E+00 0.  1.
<mgrwt>
<rscale>  1 0.13085061E+03</rscale>
<asrwt>0</asrwt>
<pdfrwt beam="1">  1       21 0.14786719E-02 0.13085061E+03</pdfrwt>
<pdfrwt beam="2">  1        2 0.11526119E+00 0.13085061E+03</pdfrwt>
<totfact> 0.95420809E+05</totfact>
</mgrwt>
</event>
<event>
 6    2  0.1674964E-002  0.1582078E+03  0.7546771E-02  0.1190735E+00
         21   -1    0    0  502  503  0.00000000000E+00  0.00000000000E+00  0.22286963002E+03  0.22286963002E+03  0.00000000000E+00 0.  1.
          2   -1    0    0  503    0 -0.00000000000E+00 -0.00000000000E+00 -0.41032951578E+03  0.41032951578E+03  0.00000000000E+00 0.  1.
         25    2    1    2    0    0 -0.17514529902E+02  0.95386220524E+02  0.18783027609E+03  0.24558078270E+03  0.12499767353E+03 0.  0.
          5    1    3    3  501    0  0.61176505183E+01 -0.17426329453E+02  0.97244579374E+02  0.98982931982E+02  0.10000000000E+00 0. -1.
         -5    1    3    3    0  501 -0.23632180421E+02  0.11281254998E+03  0.90585696720E+02  0.14659785071E+03  0.10000000000E+00 0. -1.
          2    1    1    2  502    0  0.17514529902E+02 -0.95386220524E+02 -0.37529016186E+03  0.38761836310E+03  0.00000000000E+00 0.  1.
<mgrwt>
<rscale>  1 0.15820780E+03</rscale>
<asrwt>0</asrwt>
<pdfrwt beam="1">  1       21 0.34287635E-01 0.15820780E+03</pdfrwt>
<pdfrwt beam="2">  1        2 0.63127618E-01 0.15820780E+03</pdfrwt>
<totfact> 0.80102396E+03</totfact>
</mgrwt>
</event>
<event>
 6    2  0.1674964E-002  0.1438045E+03  0.7546771E-02  0.1208300E+00
         21   -1    0    0  502  503  0.00000000000E+00  0.00000000000E+00  0.21611409193E+03  0.21611409193E+03  0.00000000000E+00 0. -1.
          1   -1    0    0  503    0 -0.00000000000E+00 -0.00000000000E+00 -0.10106623848E+04  0.10106623848E+04  0.00000000000E+00 0.  1.
         25    2    1    2    0    0  0.42535394828E+02  0.56959345021E+02  0.19076869807E+03  0.23889834689E+03  0.12500438867E+03 0.  0.
          5    1    3    3  501    0  0.20138150406E+02 -0.63054995592E+01  0.16603898052E+03  0.16737460225E+03  0.10000000000E+00 0.  1.
         -5    1    3    3    0  501  0.22397244422E+02  0.63264844580E+02  0.24729717550E+02  0.71523744642E+02  0.10000000000E+00 0.  1.
          1    1    1    2  502    0 -0.42535394828E+02 -0.56959345021E+02 -0.98531699091E+03  0.98787812982E+03  0.00000000000E+00 0.  1.
<mgrwt>
<rscale>  1 0.14380446E+03</rscale>
<asrwt>0</asrwt>
<pdfrwt beam="1">  1       21 0.33248323E-01 0.14380446E+03</pdfrwt>
<pdfrwt beam="2">  1        1 0.15548652E+00 0.14380446E+03</pdfrwt>
<totfact> 0.15817793E+03</totfact>
</mgrwt>
</event>
<event>
 6    2  0.1674964E-002  0.1349977E+03  0.7546771E-02  0.1220223E+00
          1   -1    0    0  503    0 -0.00000000000E+00  0.00000000000E+00  0.59669183534E+03  0.59669183534E+03  0.00000000000E+00 0.  1.
         21   -1    0    0  502  503  0.00000000000E+00 -0.00000000000E+00 -0.13237253146E+03  0.13237253146E+03  0.00000000000E+00 0. -1.
         25    2    1    2    0    0 -0.19102407911E+02  0.47178340180E+02 -0.96498988742E+02  0.16594106316E+03  0.12503473055E+03 0.  0.
          5    1    3    3  501    0 -0.48879853549E+02  0.59482147092E+01 -0.10348682480E+03  0.11460433783E+03  0.10000000000E+00 0. -1.
         -5    1    3    3    0  501  0.29777445638E+02  0.41230125471E+02  0.69878360590E+01  0.51336725332E+02  0.10000000000E+00 0. -1.
          1    1    1    2  502    0  0.19102407911E+02 -0.47178340180E+02  0.56081829262E+03  0.56312330364E+03  0.00000000000E+00 0.  1.
<mgrwt>
<rscale>  1 0.13499771E+03</rscale>
<asrwt>0</asrwt>
<pdfrwt beam="1">  1       21 0.20365005E-01 0.13499771E+03</pdfrwt>
<pdfrwt beam="2">  1        1 0.91798743E-01 0.13499771E+03</pdfrwt>
<totfact> 0.89118306E+03</totfact>
</mgrwt>
</event>
<event>
 6    2  0.1674964E-002  0.1518830E+03  0.7546771E-02  0.1198178E+00
          4   -1    0    0  503    0 -0.00000000000E+00  0.00000000000E+00  0.20244303020E+03  0.20244303020E+03  0.00000000000E+00 0. -1.
         21   -1    0    0  502  503  0.00000000000E+00 -0.00000000000E+00 -0.70394362278E+02  0.70394362278E+02  0.00000000000E+00 0. -1.
         25    2    1    2    0    0 -0.30722706652E+02 -0.80618170587E+02  0.93392262873E+02  0.17829908393E+03  0.12500109772E+03 0.  0.
          5    1    3    3  501    0  0.42671146419E+02 -0.61663381580E+02  0.57122950260E+02  0.94266859559E+02  0.10000000000E+00 0. -1.
         -5    1    3    3    0  501 -0.73393853071E+02 -0.18954789006E+02  0.36269312613E+02  0.84032224369E+02  0.10000000000E+00 0. -1.
          4    1    1    2  502    0  0.30722706652E+02  0.80618170587E+02  0.38656405053E+02  0.94538308555E+02  0.00000000000E+00 0. -1.
<mgrwt>
<rscale>  1 0.15188301E+03</rscale>
<asrwt>0</asrwt>
<pdfrwt beam="1">  1       21 0.10829902E-01 0.15188301E+03</pdfrwt>
<pdfrwt beam="2">  1        4 0.31145081E-01 0.15188301E+03</pdfrwt>
<totfact> 0.28681598E+04</totfact>
</mgrwt>
</event>
<event>
 6    2  0.1674964E-002  0.1284329E+03  0.7546771E-02  0.1229800E+00
         21   -1    0    0  502  503  0.00000000000E+00  0.00000000000E+00  0.83146714036E+02  0.83146714036E+02  0.00000000000E+00 0. -1.
          4   -1    0    0  503    0 -0.00000000000E+00 -0.00000000000E+00 -0.84797623488E+02  0.84797623488E+02  0.00000000000E+00 0. -1.
         25    2    1    2    0    0 -0.25222645394E+02  0.15087101224E+02  0.21894136675E+02  0.13028571751E+03  0.12502484754E+03 0.  0.
          5    1    3    3  501    0  0.43602354019E+02 -0.34505395301E+01  0.37158229993E+02  0.57391772540E+02  0.10000000000E+00 0.  1.
         -5    1    3    3    0  501 -0.68824999413E+02  0.18537640755E+02 -0.15264093318E+02  0.72893944973E+02  0.10000000000E+00 0.  1.
          4    1    1    2  502    0  0.25222645394E+02 -0.15087101224E+02 -0.23545046127E+02  0.37658620011E+02  0.00000000000E+00 0. -1.
<mgrwt>
<rscale>  1 0.12843292E+03</rscale>
<asrwt>0</asrwt>
<pdfrwt beam="1">  1       21 0.12791802E-01 0.12843292E+03</pdfrwt>
<pdfrwt beam="2">  1        4 0.13045788E-01 0.12843292E+03</pdfrwt>
<totfact> 0.10065268E+05</totfact>
</mgrwt>
</event>
<event>
 6    2  0.1674964E-002  0.1305909E+03  0.7546771E-02  0.1226582E+00
          2   -1    0    0  503    0 -0.00000000000E+00  0.00000000000E+00  0.16238600476E+04  0.16238600476E+04  0.00000000000E+00 0. -1.
         21   -1    0    0  502  503  0.00000000000E+00 -0.00000000000E+00 -0.49995846431E+01  0.49995846431E+01  0.00000000000E+00 0. -1.
         25    2    1    2    0    0  0.34014522465E+02  0.16460855771E+02  0.14476657355E+04  0.14535439677E+04  0.12500414753E+03 0.  0.
          5    1    3    3  501    0  0.11692095561E+02 -0.50946179331E+02  0.38848339675E+03  0.39198415509E+03  0.10000000000E+00 0.  1.
         -5    1    3    3    0  501  0.22322426904E+02  0.67407035103E+02  0.10591823387E+04  0.10615598126E+04  0.10000000000E+00 0.  1.
          2    1    1    2  502    0 -0.34014522465E+02 -0.16460855771E+02  0.17119472746E+03  0.17531566451E+03  0.00000000000E+00 0. -1.
<mgrwt>
<rscale>  1 0.13059090E+03</rscale>
<asrwt>0</asrwt>
<pdfrwt beam="1">  1       21 0.76916816E-03 0.13059090E+03</pdfrwt>
<pdfrwt beam="2">  1        2 0.24982420E+00 0.13059090E+03</pdfrwt>
<totfact> 0.84759517E+05</totfact>
</mgrwt>
</event>
<event>
 6    2  0.1674964E-002  0.1259989E+03  0.7546771E-02  0.1233516E+00
          2   -1    0    0  503    0 -0.00000000000E+00  0.00000000000E+00  0.13906508951E+04  0.13906508951E+04  0.00000000000E+00 0. -1.
         21   -1    0    0  502  503  0.00000000000E+00 -0.00000000000E+00 -0.46138172662E+01  0.46138172662E+01  0.00000000000E+00 0. -1.
         25    2    1    2    0    0  0.57160871132E+01  0.14776553473E+02  0.87946578329E+03  0.88844571445E+03  0.12499881350E+03 0.  0.
          5    1    3    3  501    0  0.23660216740E+02 -0.18417230646E+02  0.51292235824E+02  0.59412992659E+02  0.10000000000E+00 0. -1.
         -5    1    3    3    0  501 -0.17944129626E+02  0.33193784119E+02  0.82817354746E+03  0.82903272180E+03  0.10000000000E+00 0. -1.
          2    1    1    2  502    0 -0.57160871132E+01 -0.14776553473E+02  0.50657129453E+03  0.50681899789E+03  0.00000000000E+00 0. -1.
<mgrwt>
<rscale>  1 0.12599890E+03</rscale>
<asrwt>0</asrwt>
<pdfrwt beam="1">  1       21 0.70981915E-03 0.12599890E+03</pdfrwt>
<pdfrwt beam="2">  1        2 0.21394596E+00 0.12599890E+03</pdfrwt>
<totfact> 0.12676815E+06</totfact>
</mgrwt>
</event>
<event>
 6    2  0.1674964E-002  0.1312139E+03  0.7546771E-02  0.1225666E+00
          2   -1    0    0  503    0 -0.00000000000E+00  0.00000000000E+00  0.29076661915E+04  0.29076661915E+04  0.00000000000E+00 0. -1.
         21   -1    0    0  502  503  0.00000000000E+00 -0.00000000000E+00 -0.18405193279E+02  0.18405193279E+02  0.00000000000E+00 0.  1.
         25    2    1    2    0    0  0.14650253122E+02 -0.37081579939E+02  0.21751081333E+03  0.25402371980E+03  0.12500969089E+03 0.  0.
          5    1    3    3  501    0 -0.16419390072E+02  0.40475524212E+02  0.47115447465E+02  0.64247488826E+02  0.10000000000E+00 0. -1.
         -5    1    3    3    0  501  0.31069643194E+02 -0.77557104151E+02  0.17039536587E+03  0.18977623097E+03  0.10000000000E+00 0. -1.
          2    1    1    2  502    0 -0.14650253122E+02  0.37081579939E+02  0.26717501849E+04  0.26720476650E+04  0.00000000000E+00 0. -1.
<mgrwt>
<rscale>  1 0.13121393E+03</rscale>
<asrwt>0</asrwt>
<pdfrwt beam="1">  1       21 0.28315705E-02 0.13121393E+03</pdfrwt>
<pdfrwt beam="2">  1        2 0.44733289E+00 0.13121393E+03</pdfrwt>
<totfact> 0.22273073E+04</totfact>
</mgrwt>
</event>
<event>
 6    2  0.1674964E-002  0.1346519E+03  0.7546771E-02  0.1220712E+00
          2   -1    0    0  503    0 -0.00000000000E+00  0.00000000000E+00  0.99064943939E+03  0.99064943939E+03  0.00000000000E+00 0. -1.
         21   -1    0    0  502  503  0.00000000000E+00 -0.00000000000E+00 -0.11249719273E+02  0.11249719273E+02  0.00000000000E+00 0.  1.
         25    2    1    2    0    0 -0.34202685477E+01 -0.49944174483E+02  0.43901892488E+03  0.45920447225E+03  0.12500004851E+03 0.  0.
          5    1    3    3  501    0  0.55844721113E+02 -0.37413211493E+02  0.15753812017E+03  0.17127945171E+03  0.10000000000E+00 0. -1.
         -5    1    3    3    0  501 -0.59264989661E+02 -0.12530962989E+02  0.28148080471E+03  0.28792502054E+03  0.10000000000E+00 0. -1.
          2    1    1    2  502    0  0.34202685477E+01  0.49944174483E+02  0.54038079523E+03  0.54269468641E+03  0.00000000000E+00 0. -1.
<mgrwt>
<rscale>  1 0.13465189E+03</rscale>
<asrwt>0</asrwt>
<pdfrwt beam="1">  1       21 0.17307268E-02 0.13465189E+03</pdfrwt>
<pdfrwt beam="2">  1        2 0.15240754E+00 0.13465189E+03</pdfrwt>
<totfact> 0.51899720E+05</totfact>
</mgrwt>
</event>
<event>
 6    2  0.1674964E-002  0.1324157E+03  0.7546771E-02  0.1223915E+00
          2   -1    0    0  503    0 -0.00000000000E+00  0.00000000000E+00  0.38405522131E+03  0.38405522131E+03  0.00000000000E+00 0. -1.
         21   -1    0    0  502  503  0.00000000000E+00 -0.00000000000E+00 -0.63196903699E+02  0.63196903699E+02  0.00000000000E+00 0. -1.
         25    2    1    2    0    0  0.42574053626E+02 -0.97988496297E+01  0.94044976376E+01  0.13274926418E+03  0.12500142026E+03 0.  0.
          5    1    3    3  501    0 -0.32271339819E+02  0.28558702231E+02 -0.14242481016E+02  0.45386089415E+02  0.10000000000E+00 0. -1.
         -5    1    3    3    0  501  0.74845393446E+02 -0.38357551861E+02  0.23646978654E+02  0.87363174761E+02  0.10000000000E+00 0. -1.
          2    1    1    2  502    0 -0.42574053626E+02  0.97988496297E+01  0.31145381998E+03  0.31450286084E+03  0.00000000000E+00 0. -1.
<mgrwt>
<rscale>  1 0.13241572E+03</rscale>
<asrwt>0</asrwt>
<pdfrwt beam="1">  1       21 0.97226008E-02 0.13241572E+03</pdfrwt>
<pdfrwt beam="2">  1        2 0.59085417E-01 0.13241572E+03</pdfrwt>
<totfact> 0.88104067E+04</totfact>
</mgrwt>
</event>
<event>
 6    2  0.1674964E-002  0.1314558E+03  0.7546771E-02  0.1225311E+00
          1   -1    0    0  503    0 -0.00000000000E+00  0.00000000000E+00  0.78192137273E+02  0.78192137273E+02  0.00000000000E+00 0. -1.
         21   -1    0    0  502  503  0.00000000000E+00 -0.00000000000E+00 -0.10135361190E+03  0.10135361190E+03  0.00000000000E+00 0. -1.
         25    2    1    2    0    0  0.33104204152E+02  0.23653990435E+02 -0.37010896089E+02  0.13656661388E+03  0.12500093600E+03 0.  0.
          5    1    3    3  501    0  0.38174197804E+02 -0.14344255091E+02  0.35810099412E+02  0.54271541825E+02  0.10000000000E+00 0. -1.
         -5    1    3    3    0  501 -0.50699936523E+01  0.37998245527E+02 -0.72820995502E+02  0.82295072055E+02  0.10000000000E+00 0. -1.
          1    1    1    2  502    0 -0.33104204152E+02 -0.23653990435E+02  0.13849421459E+02  0.42979135296E+02  0.00000000000E+00 0. -1.
<mgrwt>
<rscale>  1 0.13145582E+03</rscale>
<asrwt>0</asrwt>
<pdfrwt beam="1">  1       21 0.15592863E-01 0.13145582E+03</pdfrwt>
<pdfrwt beam="2">  1        1 0.12029560E-01 0.13145582E+03</pdfrwt>
<totfact> 0.19125118E+05</totfact>
</mgrwt>
</event>
<event>
 6    2  0.1674964E-002  0.1267906E+03  0.7546771E-02  0.1232297E+00
         21   -1    0    0  502  503  0.00000000000E+00  0.00000000000E+00  0.89892514641E+01  0.89892514641E+01  0.00000000000E+00 0.  1.
          2   -1    0    0  503    0 -0.00000000000E+00 -0.00000000000E+00 -0.65844105997E+03  0.65844105997E+03  0.00000000000E+00 0.  1.
         25    2    1    2    0    0 -0.98301913652E+01  0.18799666272E+02 -0.47266562932E+03  0.48937578814E+03  0.12500321901E+03 0.  0.
          5    1    3    3  501    0 -0.45659535690E+02  0.53075113324E+01 -0.42836302786E+03  0.43082230271E+03  0.10000000000E+00 0. -1.
         -5    1    3    3    0  501  0.35829344325E+02  0.13492154939E+02 -0.44302601456E+02  0.58553485425E+02  0.10000000000E+00 0. -1.
          2    1    1    2  502    0  0.98301913652E+01 -0.18799666272E+02 -0.17678617919E+03  0.17805452330E+03  0.00000000000E+00 0.  1.
<mgrwt>
<rscale>  1 0.12679063E+03</rscale>
<asrwt>0</asrwt>
<pdfrwt beam="1">  1       21 0.13829617E-02 0.12679063E+03</pdfrwt>
<pdfrwt beam="2">  1        2 0.10129863E+00 0.12679063E+03</pdfrwt>
<totfact> 0.12343682E+06</totfact>
</mgrwt>
</event>
<event>
 6    2  0.1674964E-002  0.1275537E+03  0.7546771E-02  0.1231131E+00
         21   -1    0    0  502  503  0.00000000000E+00  0.00000000000E+00  0.14478079569E+03  0.14478079569E+03  0.00000000000E+00 0. -1.
          1   -1    0    0  503    0 -0.00000000000E+00 -0.00000000000E+00 -0.44257934699E+02  0.44257934699E+02  0.00000000000E+00 0. -1.
         25    2    1    2    0    0  0.17369505771E+02 -0.18442552089E+02  0.10249009937E+03  0.16362815218E+03  0.12501249641E+03 0.  0.
          5    1    3    3  501    0  0.56935921079E+02 -0.49987414004E+02  0.72171229386E+02  0.10463812412E+03  0.10000000000E+00 0.  1.
         -5    1    3    3    0  501 -0.39566415307E+02  0.31544861915E+02  0.30318869984E+02  0.58990028061E+02  0.10000000000E+00 0.  1.
          1    1    1    2  502    0 -0.17369505771E+02  0.18442552089E+02 -0.19672383763E+01  0.25410578213E+02  0.00000000000E+00 0. -1.
<mgrwt>
<rscale>  1 0.12755372E+03</rscale>
<asrwt>0</asrwt>
<pdfrwt beam="1">  1       21 0.22273968E-01 0.12755372E+03</pdfrwt>
<pdfrwt beam="2">  1        1 0.68089131E-02 0.12755372E+03</pdfrwt>
<totfact> 0.21140040E+05</totfact>
</mgrwt>
</event>
<event>
 6    2  0.1674964E-002  0.1305919E+03  0.7546771E-02  0.1226580E+00
          1   -1    0    0  503    0 -0.00000000000E+00  0.00000000000E+00  0.14008342673E+02  0.14008342673E+02  0.00000000000E+00 0.  1.
         21   -1    0    0  502  503  0.00000000000E+00 -0.00000000000E+00 -0.80919012410E+03  0.80919012410E+03  0.00000000000E+00 0.  1.
         25    2    1    2    0    0 -0.34302317493E+02 -0.15884973458E+02 -0.76134773240E+03  0.77246658093E+03  0.12500107065E+03 0.  0.
          5    1    3    3  501    0  0.20312988292E+02 -0.55977604279E+02 -0.44336130178E+03  0.44734255732E+03  0.10000000000E+00 0. -1.
         -5    1    3    3    0  501 -0.54615305785E+02  0.40092630822E+02 -0.31798643062E+03  0.32512402361E+03  0.10000000000E+00 0. -1.
          1    1    1    2  502    0  0.34302317493E+02  0.15884973458E+02 -0.33834049025E+02  0.50731885837E+02  0.00000000000E+00 0.  1.
<mgrwt>
<rscale>  1 0.13059192E+03</rscale>
<asrwt>0</asrwt>
<pdfrwt beam="1">  1       21 0.12449080E+00 0.13059192E+03</pdfrwt>
<pdfrwt beam="2">  1        1 0.21551294E-02 0.13059192E+03</pdfrwt>
<totfact> 0.27355417E+04</totfact>
</mgrwt>
</event>
<event>
 6    2  0.1674964E-002  0.2210312E+03  0.7546771E-02  0.1133117E+00
         21   -1    0    0  502  503  0.00000000000E+00  0.00000000000E+00  0.22223505876E+02  0.22223505876E+02  0.00000000000E+00 0. -1.
          2   -1    0    0  503    0 -0.00000000000E+00 -0.00000000000E+00 -0.18329189635E+04  0.18329189635E+04  0.00000000000E+00 0. -1.
         25    2    1    2    0    0 -0.16280769297E+03 -0.81995206736E+02 -0.95473942084E+03  0.97999088495E+03  0.12500085624E+03 0.  0.
          5    1    3    3  501    0 -0.10018766812E+03 -0.10323474359E+02 -0.71486499729E+03  0.72192528514E+03  0.10000000000E+00 0. -1.
         -5    1    3    3    0  501 -0.62620024849E+02 -0.71671732377E+02 -0.23987442354E+03  0.25806559981E+03  0.10000000000E+00 0. -1.
          2    1    1    2  502    0  0.16280769297E+03  0.81995206736E+02 -0.85595603684E+03  0.87515158448E+03  0.00000000000E+00 0. -1.
<mgrwt>
<rscale>  1 0.22103116E+03</rscale>
<asrwt>0</asrwt>
<pdfrwt beam="1">  1       21 0.34190007E-02 0.22103116E+03</pdfrwt>
<pdfrwt beam="2">  1        2 0.28198755E+00 0.22103116E+03</pdfrwt>
<totfact> 0.59567625E+04</totfact>
</mgrwt>
</event>
<event>
 6    2  0.1674964E-002  0.1303359E+03  0.7546771E-02  0.1226958E+00
          1   -1    0    0  503    0 -0.00000000000E+00  0.00000000000E+00  0.29797488194E+03  0.29797488194E+03  0.00000000000E+00 0.  1.
         21   -1    0    0  502  503  0.00000000000E+00 -0.00000000000E+00 -0.24066340564E+02  0.24066340564E+02  0.00000000000E+00 0.  1.
         25    2    1    2    0    0  0.36455595727E+02 -0.58892382080E+01  0.19045691654E+03  0.23078407334E+03  0.12499503135E+03 0.  0.
          5    1    3    3  501    0 -0.23489966077E+02 -0.30369755450E+02  0.14907199021E+03  0.15393689882E+03  0.10000000000E+00 0.  1.
         -5    1    3    3    0  501  0.59945561804E+02  0.24480517242E+02  0.41384926333E+02  0.76847174522E+02  0.10000000000E+00 0.  1.
          1    1    1    2  502    0 -0.36455595727E+02  0.58892382080E+01  0.83451624832E+02  0.91257149164E+02  0.00000000000E+00 0.  1.
<mgrwt>
<rscale>  1 0.13033592E+03</rscale>
<asrwt>0</asrwt>
<pdfrwt beam="1">  1       21 0.37025141E-02 0.13033592E+03</pdfrwt>
<pdfrwt beam="2">  1        1 0.45842287E-01 0.13033592E+03</pdfrwt>
<totfact> 0.42082001E+05</totfact>
</mgrwt>
</event>
<event>
 6    2  0.1674964E-002  0.1383483E+03  0.7546771E-02  0.1215569E+00
          3   -1    0    0  503    0 -0.00000000000E+00  0.00000000000E+00  0.20326637739E+03  0.20326637739E+03  0.00000000000E+00 0.  1.
         21   -1    0    0  502  503  0.00000000000E+00 -0.00000000000E+00 -0.14479266429E+03  0.14479266429E+03  0.00000000000E+00 0. -1.
         25    2    1    2    0    0  0.38118908130E+02 -0.45326493321E+02 -0.10532762704E+03  0.17387976281E+03  0.12503087916E+03 0.  0.
          5    1    3    3  501    0  0.25240197707E+02 -0.26081261618E+02 -0.13296130784E+03  0.13782604678E+03  0.10000000000E+00 0.  1.
         -5    1    3    3    0  501  0.12878710423E+02 -0.19245231703E+02  0.27633680798E+02  0.36053716035E+02  0.10000000000E+00 0.  1.
          3    1    1    2  502    0 -0.38118908130E+02  0.45326493321E+02  0.16380134015E+03  0.17417927887E+03  0.00000000000E+00 0.  1.
<mgrwt>
<rscale>  1 0.13834834E+03</rscale>
<asrwt>0</asrwt>
<pdfrwt beam="1">  1       21 0.22275795E-01 0.13834834E+03</pdfrwt>
<pdfrwt beam="2">  1        3 0.31271750E-01 0.13834834E+03</pdfrwt>
<totfact> 0.91069823E+03</totfact>
</mgrwt>
</event>
<event>
 6    2  0.1674964E-002  0.1262786E+03  0.7546771E-02  0.1233085E+00
          1   -1    0    0  503    0 -0.00000000000E+00  0.00000000000E+00  0.10847831521E+04  0.10847831521E+04  0.00000000000E+00 0.  1.
         21   -1    0    0  502  503  0.00000000000E+00 -0.00000000000E+00 -0.53146275046E+02  0.53146275046E+02  0.00000000000E+00 0.  1.
         25    2    1    2    0    0 -0.16090424421E+02  0.79584470531E+01  0.22057556609E+02  0.12819052876E+03  0.12499614884E+03 0.  0.
          5    1    3    3  501    0 -0.31051897098E+02 -0.19399700868E+01  0.70215418670E+02  0.76799731876E+02  0.10000000000E+00 0. -1.
         -5    1    3    3    0  501  0.14961472677E+02  0.98984171398E+01 -0.48157862061E+02  0.51390796888E+02  0.10000000000E+00 0. -1.
          1    1    1    2  502    0  0.16090424421E+02 -0.79584470531E+01  0.10095793204E+04  0.10097388984E+04  0.00000000000E+00 0.  1.
<mgrwt>
<rscale>  1 0.12627856E+03</rscale>
<asrwt>0</asrwt>
<pdfrwt beam="1">  1       21 0.81763508E-02 0.12627856E+03</pdfrwt>
<pdfrwt beam="2">  1        1 0.16688970E+00 0.12627856E+03</pdfrwt>
<totfact> 0.18284775E+04</totfact>
</mgrwt>
</event>
<event>
 6    2  0.1674964E-002  0.1762210E+03  0.7546771E-02  0.1171511E+00
         21   -1    0    0  502  503  0.00000000000E+00  0.00000000000E+00  0.27824110940E+03  0.27824110940E+03  0.00000000000E+00 0.  1.
          1   -1    0    0  503    0 -0.00000000000E+00 -0.00000000000E+00 -0.83184618852E+02  0.83184618852E+02  0.00000000000E+00 0.  1.
         25    2    1    2    0    0 -0.12420186366E+03  0.13707064816E+01  0.85784418111E+02  0.19599185147E+03  0.12500343067E+03 0.  0.
          5    1    3    3  501    0 -0.38829597961E+02 -0.57365491984E+02  0.53266426758E+02  0.87383405564E+02  0.10000000000E+00 0.  1.
         -5    1    3    3    0  501 -0.85372265698E+02  0.58736198466E+02  0.32517991353E+02  0.10860844591E+03  0.10000000000E+00 0.  1.
          1    1    1    2  502    0  0.12420186366E+03 -0.13707064816E+01  0.10927207244E+03  0.16543387678E+03  0.00000000000E+00 0.  1.
<mgrwt>
<rscale>  1 0.17622100E+03</rscale>
<asrwt>0</asrwt>
<pdfrwt beam="1">  1       21 0.42806324E-01 0.17622100E+03</pdfrwt>
<pdfrwt beam="2">  1        1 0.12797634E-01 0.17622100E+03</pdfrwt>
<totfact> 0.25806337E+04</totfact>
</mgrwt>
</event>
<event>
 6    2  0.1674964E-002  0.1326499E+03  0.7546771E-02  0.1223576E+00
          4   -1    0    0  503    0 -0.00000000000E+00  0.00000000000E+00  0.14185800993E+03  0.14185800993E+03  0.00000000000E+00 0.  1.
         21   -1    0    0  502  503  0.00000000000E+00 -0.00000000000E+00 -0.20228292505E+03  0.20228292505E+03  0.00000000000E+00 0.  1.
         25    2    1    2    0    0  0.16439779483E+02 -0.41253246840E+02 -0.17596376195E+03  0.22036160774E+03  0.12499558361E+03 0.  0.
          5    1    3    3  501    0  0.25652168273E+02 -0.78860011607E+02 -0.73445523290E+02  0.11077540367E+03  0.10000000000E+00 0. -1.
         -5    1    3    3    0  501 -0.92123887901E+01  0.37606764766E+02 -0.10251823866E+03  0.10958620407E+03  0.10000000000E+00 0. -1.
          4    1    1    2  502    0 -0.16439779483E+02  0.41253246840E+02  0.11553884683E+03  0.12377932724E+03  0.00000000000E+00 0.  1.
<mgrwt>
<rscale>  1 0.13264989E+03</rscale>
<asrwt>0</asrwt>
<pdfrwt beam="1">  1       21 0.31120450E-01 0.13264989E+03</pdfrwt>
<pdfrwt beam="2">  1        4 0.21824309E-01 0.13264989E+03</pdfrwt>
<totfact> 0.78427292E+03</totfact>
</mgrwt>
</event>
<event>
 6    2  0.1674964E-002  0.1294297E+03  0.7546771E-02  0.1228304E+00
         21   -1    0    0  502  503  0.00000000000E+00  0.00000000000E+00  0.11798885550E+02  0.11798885550E+02  0.00000000000E+00 0.  1.
          2   -1    0    0  503    0 -0.00000000000E+00 -0.00000000000E+00 -0.16579741573E+04  0.16579741573E+04  0.00000000000E+00 0.  1.
         25    2    1    2    0    0 -0.22721290526E+00 -0.33582018383E+02 -0.35003428522E+03  0.37319706723E+03  0.12499698627E+03 0.  0.
          5    1    3    3  501    0  0.28912347852E+02  0.39930972584E+02 -0.15819165304E+03  0.16569555070E+03  0.10000000000E+00 0. -1.
         -5    1    3    3    0  501 -0.29139560757E+02 -0.73512990966E+02 -0.19184263218E+03  0.20750151653E+03  0.10000000000E+00 0. -1.
          2    1    1    2  502    0  0.22721290526E+00  0.33582018383E+02 -0.12961409866E+04  0.12965759756E+04  0.00000000000E+00 0.  1.
<mgrwt>
<rscale>  1 0.12942971E+03</rscale>
<asrwt>0</asrwt>
<pdfrwt beam="1">  1       21 0.18152129E-02 0.12942971E+03</pdfrwt>
<pdfrwt beam="2">  1        2 0.25507298E+00 0.12942971E+03</pdfrwt>
<totfact> 0.20871923E+05</totfact>
</mgrwt>
</event>
<event>
 6    2  0.1674964E-002  0.1275301E+03  0.7546771E-02  0.1231167E+00
          3   -1    0    0  503    0 -0.00000000000E+00  0.00000000000E+00  0.12025999050E+03  0.12025999050E+03  0.00000000000E+00 0.  1.
         21   -1    0    0  502  503  0.00000000000E+00 -0.00000000000E+00 -0.43743214917E+03  0.43743214917E+03  0.00000000000E+00 0.  1.
         25    2    1    2    0    0  0.18955589512E+02 -0.16718250323E+02 -0.42666672191E+03  0.44531832756E+03  0.12500042805E+03 0.  0.
          5    1    3    3  501    0  0.23695048069E+02 -0.23115557311E+02 -0.20211854521E+02  0.38785478674E+02  0.10000000000E+00 0.  1.
         -5    1    3    3    0  501 -0.47394585575E+01  0.63973069873E+01 -0.40645486738E+03  0.40653284889E+03  0.10000000000E+00 0.  1.
          3    1    1    2  502    0 -0.18955589512E+02  0.16718250323E+02  0.10949456324E+03  0.11237381210E+03  0.00000000000E+00 0.  1.
<mgrwt>
<rscale>  1 0.12753008E+03</rscale>
<asrwt>0</asrwt>
<pdfrwt beam="1">  1       21 0.67297253E-01 0.12753008E+03</pdfrwt>
<pdfrwt beam="2">  1        3 0.18501537E-01 0.12753008E+03</pdfrwt>
<totfact> 0.25561251E+03</totfact>
</mgrwt>
</event>
<event>
 6    2  0.1674964E-002  0.2205154E+03  0.7546771E-02  0.1133499E+00
         21   -1    0    0  502  503  0.00000000000E+00  0.00000000000E+00  0.19465529838E+03  0.19465529838E+03  0.00000000000E+00 0. -1.
          4   -1    0    0  503    0 -0.00000000000E+00 -0.00000000000E+00 -0.21556732118E+03  0.21556732118E+03  0.00000000000E+00 0. -1.
         25    2    1    2    0    0 -0.13613884257E+03  0.12028664028E+03 -0.50339584527E+02  0.22618827039E+03  0.12499759840E+03 0.  0.
          5    1    3    3  501    0  0.13950442689E+02 -0.92301758179E+01 -0.19278061569E+02  0.25523805647E+02  0.10000000000E+00 0.  1.
         -5    1    3    3    0  501 -0.15008928525E+03  0.12951681610E+03 -0.31061522957E+02  0.20066446474E+03  0.10000000000E+00 0.  1.
          4    1    1    2  502    0  0.13613884257E+03 -0.12028664028E+03  0.29427561734E+02  0.18403434917E+03  0.00000000000E+00 0. -1.
<mgrwt>
<rscale>  1 0.22051544E+03</rscale>
<asrwt>0</asrwt>
<pdfrwt beam="1">  1       21 0.29946969E-01 0.22051544E+03</pdfrwt>
<pdfrwt beam="2">  1        4 0.33164203E-01 0.22051544E+03</pdfrwt>
<totfact> 0.39610916E+03</totfact>
</mgrwt>
</event>
<event>
 6    2  0.1674964E-002  0.1747523E+03  0.7546771E-02  0.1172981E+00
          2   -1    0    0  503    0 -0.00000000000E+00  0.00000000000E+00  0.40489042671E+03  0.40489042671E+03  0.00000000000E+00 0.  1.
         21   -1    0    0  502  503  0.00000000000E+00 -0.00000000000E+00 -0.54875122233E+02  0.54875122233E+02  0.00000000000E+00 0.  1.
         25    2    1    2    0    0  0.10585932192E+03  0.60893276514E+02  0.18515058335E+03  0.25459595219E+03  0.12499669273E+03 0.  0.
          5    1    3    3  501    0  0.94829258951E+02 -0.81361573051E+01  0.14654097521E+03  0.17473709630E+03  0.10000000000E+00 0.  1.
         -5    1    3    3    0  501  0.11030062965E+02  0.69029433819E+02  0.38609608144E+02  0.79858855886E+02  0.10000000000E+00 0.  1.
          2    1    1    2  502    0 -0.10585932192E+03 -0.60893276514E+02  0.16486472112E+03  0.20516959675E+03  0.00000000000E+00 0.  1.
<mgrwt>
<rscale>  1 0.17475228E+03</rscale>
<asrwt>0</asrwt>
<pdfrwt beam="1">  1       21 0.84423268E-02 0.17475228E+03</pdfrwt>
<pdfrwt beam="2">  1        2 0.62290833E-01 0.17475228E+03</pdfrwt>
<totfact> 0.10715858E+05</totfact>
</mgrwt>
</event>
<event>
 6    2  0.1674964E-002  0.1340238E+03  0.7546771E-02  0.1221604E+00
          2   -1    0    0  503    0 -0.00000000000E+00  0.00000000000E+00  0.17150071862E+04  0.17150071862E+04  0.00000000000E+00 0. -1.
         21   -1    0    0  502  503  0.00000000000E+00 -0.00000000000E+00 -0.50372057259E+01  0.50372057259E+01  0.00000000000E+00 0.  1.
         25    2    1    2    0    0 -0.45630173594E+02 -0.16075548268E+02  0.10943384316E+04  0.11025148461E+04  0.12498738740E+03 0.  0.
          5    1    3    3  501    0 -0.72044625923E+02 -0.43471064298E+01  0.33780290202E+03  0.34542746861E+03  0.10000000000E+00 0. -1.
         -5    1    3    3    0  501  0.26414452330E+02 -0.11728441838E+02  0.75653552961E+03  0.75708737753E+03  0.10000000000E+00 0. -1.
          2    1    1    2  502    0  0.45630173594E+02  0.16075548268E+02  0.61563154885E+03  0.61752954580E+03  0.00000000000E+00 0. -1.
<mgrwt>
<rscale>  1 0.13402382E+03</rscale>
<asrwt>0</asrwt>
<pdfrwt beam="1">  1       21 0.77495609E-03 0.13402382E+03</pdfrwt>
<pdfrwt beam="2">  1        2 0.26384679E+00 0.13402382E+03</pdfrwt>
<totfact> 0.75303982E+05</totfact>
</mgrwt>
</event>
<event>
 6    2  0.1674964E-002  0.1392804E+03  0.7546771E-02  0.1214301E+00
          2   -1    0    0  503    0 -0.00000000000E+00  0.00000000000E+00  0.81141491229E+03  0.81141491229E+03  0.00000000000E+00 0. -1.
         21   -1    0    0  502  503  0.00000000000E+00 -0.00000000000E+00 -0.93464911676E+03  0.93464911676E+03  0.00000000000E+00 0.  1.
         25    2    1    2    0    0 -0.21510109702E+02 -0.57534622490E+02 -0.92828382192E+03  0.93867452938E+03  0.12500440181E+03 0.  0.
          5    1    3    3  501    0  0.36658323792E+02  0.39916210672E+01 -0.10988082338E+03  0.11590328334E+03  0.10000000000E+00 0.  1.
         -5    1    3    3    0  501 -0.58168433494E+02 -0.61526243557E+02 -0.81840299853E+03  0.82277124604E+03  0.10000000000E+00 0.  1.
          2    1    1    2  502    0  0.21510109702E+02  0.57534622490E+02  0.80504961745E+03  0.80738949966E+03  0.00000000000E+00 0. -1.
<mgrwt>
<rscale>  1 0.13928036E+03</rscale>
<asrwt>0</asrwt>
<pdfrwt beam="1">  1       21 0.14379217E+00 0.13928036E+03</pdfrwt>
<pdfrwt beam="2">  1        2 0.12483306E+00 0.13928036E+03</pdfrwt>
<totfact> 0.15539769E+02</totfact>
</mgrwt>
</event>
<event>
 6    2  0.1674964E-002  0.1316497E+03  0.7546771E-02  0.1225028E+00
          1   -1    0    0  503    0 -0.00000000000E+00  0.00000000000E+00  0.10694058747E+04  0.10694058747E+04  0.00000000000E+00 0. -1.
         21   -1    0    0  502  503  0.00000000000E+00 -0.00000000000E+00 -0.13080231201E+02  0.13080231201E+02  0.00000000000E+00 0.  1.
         25    2    1    2    0    0  0.30231866257E+02  0.28157782679E+02  0.33443114106E+03  0.35941038434E+03  0.12499923918E+03 0.  0.
          5    1    3    3  501    0  0.78715020180E+02  0.22592460367E+02  0.18803041761E+03  0.20509003295E+03  0.10000000000E+00 0.  1.
         -5    1    3    3    0  501 -0.48483153923E+02  0.55653223112E+01  0.14640072345E+03  0.15432035139E+03  0.10000000000E+00 0.  1.
          1    1    1    2  502    0 -0.30231866257E+02 -0.28157782679E+02  0.72189450243E+03  0.72307572155E+03  0.00000000000E+00 0. -1.
<mgrwt>
<rscale>  1 0.13164967E+03</rscale>
<asrwt>0</asrwt>
<pdfrwt beam="1">  1       21 0.20123441E-02 0.13164967E+03</pdfrwt>
<pdfrwt beam="2">  1        1 0.16452391E+00 0.13164967E+03</pdfrwt>
<totfact> 0.19349833E+05</totfact>
</mgrwt>
</event>
<event>
 6    2  0.1674964E-002  0.1305849E+03  0.7546771E-02  0.1226590E+00
         21   -1    0    0  502  503  0.00000000000E+00  0.00000000000E+00  0.46314701848E+02  0.46314701848E+02  0.00000000000E+00 0.  1.
          2   -1    0    0  503    0 -0.00000000000E+00 -0.00000000000E+00 -0.20072998502E+03  0.20072998502E+03  0.00000000000E+00 0.  1.
         25    2    1    2    0    0 -0.22355073947E+02 -0.30129512196E+02 -0.56678677717E+02  0.14235475955E+03  0.12507944764E+03 0.  0.
          5    1    3    3  501    0  0.52025762102E+02 -0.15852055280E+02 -0.17841047014E+02  0.57238802725E+02  0.10000000000E+00 0.  1.
         -5    1    3    3    0  501 -0.74380836049E+02 -0.14277456915E+02 -0.38837630702E+02  0.85115956823E+02  0.10000000000E+00 0.  1.
          2    1    1    2  502    0  0.22355073947E+02  0.30129512196E+02 -0.97736605450E+02  0.10468992732E+03  0.00000000000E+00 0.  1.
<mgrwt>
<rscale>  1 0.13058486E+03</rscale>
<asrwt>0</asrwt>
<pdfrwt beam="1">  1       21 0.71253388E-02 0.13058486E+03</pdfrwt>
<pdfrwt beam="2">  1        2 0.30881536E-01 0.13058486E+03</pdfrwt>
<totfact> 0.30061613E+05</totfact>
</mgrwt>
</event>
<event>
 6    2  0.1674964E-002  0.1379615E+03  0.7546771E-02  0.1216098E+00
          1   -1    0    0  503    0 -0.00000000000E+00  0.00000000000E+00  0.19168237739E+04  0.19168237739E+04  0.00000000000E+00 0. -1.
         21   -1    0    0  502  503  0.00000000000E+00 -0.00000000000E+00 -0.15389572908E+02  0.15389572908E+02  0.00000000000E+00 0. -1.
         25    2    1    2    0    0  0.40062470391E+02  0.42485172297E+02  0.30545096529E+03  0.33516216414E+03  0.12499357055E+03 0.  0.
          5    1    3    3  501    0  0.63416987586E+02  0.17937098251E+02  0.29092546543E+03  0.29829698330E+03  0.10000000000E+00 0. -1.
         -5    1    3    3    0  501 -0.23354517195E+02  0.24548074046E+02  0.14525499857E+02  0.36865180847E+02  0.10000000000E+00 0. -1.
          1    1    1    2  502    0 -0.40062470391E+02 -0.42485172297E+02  0.15959832358E+04  0.15970511827E+04  0.00000000000E+00 0. -1.
<mgrwt>
<rscale>  1 0.13796153E+03</rscale>
<asrwt>0</asrwt>
<pdfrwt beam="1">  1       21 0.23676281E-02 0.13796153E+03</pdfrwt>
<pdfrwt beam="2">  1        1 0.29489578E+00 0.13796153E+03</pdfrwt>
<totfact> 0.41288372E+04</totfact>
</mgrwt>
</event>
<event>
 6    2  0.1674964E-002  0.1261643E+03  0.7546771E-02  0.1233261E+00
          1   -1    0    0  503    0 -0.00000000000E+00  0.00000000000E+00  0.21372695840E+03  0.21372695840E+03  0.00000000000E+00 0. -1.
         21   -1    0    0  502  503  0.00000000000E+00 -0.00000000000E+00 -0.33912901732E+02  0.33912901732E+02  0.00000000000E+00 0. -1.
         25    2    1    2    0    0  0.12065474788E+02  0.12112397662E+02  0.86972259084E+02  0.15323707819E+03  0.12500056970E+03 0.  0.
          5    1    3    3  501    0  0.17612494593E+02  0.96779474052E+01 -0.29999369922E+02  0.36108653083E+02  0.10000000000E+00 0.  1.
         -5    1    3    3    0  501 -0.55470198058E+01  0.24344502564E+01  0.11697162901E+03  0.11712842511E+03  0.10000000000E+00 0.  1.
          1    1    1    2  502    0 -0.12065474788E+02 -0.12112397662E+02  0.92841797588E+02  0.94402781942E+02  0.00000000000E+00 0. -1.
<mgrwt>
<rscale>  1 0.12616429E+03</rscale>
<asrwt>0</asrwt>
<pdfrwt beam="1">  1       21 0.52173696E-02 0.12616429E+03</pdfrwt>
<pdfrwt beam="2">  1        1 0.32881070E-01 0.12616429E+03</pdfrwt>
<totfact> 0.35706313E+05</totfact>
</mgrwt>
</event>
<event>
 6    2  0.1674964E-002  0.1547770E+03  0.7546771E-02  0.1194723E+00
          1   -1    0    0  503    0 -0.00000000000E+00  0.00000000000E+00  0.29278996634E+03  0.29278996634E+03  0.00000000000E+00 0.  1.
         21   -1    0    0  502  503  0.00000000000E+00 -0.00000000000E+00 -0.10616294764E+03  0.10616294764E+03  0.00000000000E+00 0. -1.
         25    2    1    2    0    0 -0.70162152360E+02  0.58392414546E+02 -0.35504595710E+02  0.15879701500E+03  0.12499405568E+03 0.  0.
          5    1    3    3  501    0 -0.24833886798E+02 -0.32564196129E+02 -0.39764473306E+02  0.57082152555E+02  0.10000000000E+00 0.  1.
         -5    1    3    3    0  501 -0.45328265562E+02  0.90956610674E+02  0.42598775960E+01  0.10171486244E+03  0.10000000000E+00 0.  1.
          1    1    1    2  502    0  0.70162152360E+02 -0.58392414546E+02  0.22213161441E+03  0.24015589899E+03  0.00000000000E+00 0.  1.
<mgrwt>
<rscale>  1 0.15477699E+03</rscale>
<asrwt>0</asrwt>
<pdfrwt beam="1">  1       21 0.16332761E-01 0.15477699E+03</pdfrwt>
<pdfrwt beam="2">  1        1 0.45044610E-01 0.15477699E+03</pdfrwt>
<totfact> 0.33192919E+04</totfact>
</mgrwt>
</event>
<event>
 6    2  0.1674964E-002  0.1270400E+03  0.7546771E-02  0.1231915E+00
          2   -1    0    0  503    0 -0.00000000000E+00  0.00000000000E+00  0.12978857633E+04  0.12978857633E+04  0.00000000000E+00 0. -1.
         21   -1    0    0  502  503  0.00000000000E+00 -0.00000000000E+00 -0.40171138720E+02  0.40171138720E+02  0.00000000000E+00 0. -1.
         25    2    1    2    0    0 -0.11249727416E+02 -0.19657132881E+02  0.60644605734E+02  0.14077264619E+03  0.12500484179E+03 0.  0.
          5    1    3    3  501    0 -0.54600622529E+01 -0.34017179867E+02  0.96097108299E+02  0.10208645860E+03  0.10000000000E+00 0. -1.
         -5    1    3    3    0  501 -0.57896651627E+01  0.14360046986E+02 -0.35452502565E+02  0.38686187590E+02  0.10000000000E+00 0. -1.
          2    1    1    2  502    0  0.11249727416E+02  0.19657132881E+02  0.11970700188E+04  0.11972842558E+04  0.00000000000E+00 0. -1.
<mgrwt>
<rscale>  1 0.12704003E+03</rscale>
<asrwt>0</asrwt>
<pdfrwt beam="1">  1       21 0.61801762E-02 0.12704003E+03</pdfrwt>
<pdfrwt beam="2">  1        2 0.19967470E+00 0.12704003E+03</pdfrwt>
<totfact> 0.42666918E+04</totfact>
</mgrwt>
</event>
<event>
 6    2  0.1674964E-002  0.1550498E+03  0.7546771E-02  0.1194402E+00
          2   -1    0    0  503    0 -0.00000000000E+00  0.00000000000E+00  0.41433928195E+03  0.41433928195E+03  0.00000000000E+00 0.  1.
         21   -1    0    0  502  503  0.00000000000E+00 -0.00000000000E+00 -0.57425543803E+02  0.57425543803E+02  0.00000000000E+00 0.  1.
         25    2    1    2    0    0  0.76798792823E+02  0.50182862532E+02  0.69223002143E+02  0.16980069899E+03  0.12499631626E+03 0.  0.
          5    1    3    3  501    0  0.59884911724E+02 -0.32078676754E+02  0.14215281922E+02  0.69406976556E+02  0.10000000000E+00 0. -1.
         -5    1    3    3    0  501  0.16913881099E+02  0.82261539286E+02  0.55007720220E+02  0.10039372243E+03  0.10000000000E+00 0. -1.
          2    1    1    2  502    0 -0.76798792823E+02 -0.50182862532E+02  0.28769073601E+03  0.30196412677E+03  0.00000000000E+00 0.  1.
<mgrwt>
<rscale>  1 0.15504984E+03</rscale>
<asrwt>0</asrwt>
<pdfrwt beam="1">  1       21 0.88346993E-02 0.15504984E+03</pdfrwt>
<pdfrwt beam="2">  1        2 0.63744503E-01 0.15504984E+03</pdfrwt>
<totfact> 0.96362932E+04</totfact>
</mgrwt>
</event>
<event>
 6    2  0.1674964E-002  0.1302702E+03  0.7546771E-02  0.1227055E+00
         21   -1    0    0  502  503  0.00000000000E+00  0.00000000000E+00  0.80216724711E+02  0.80216724711E+02  0.00000000000E+00 0.  1.
          2   -1    0    0  503    0 -0.00000000000E+00 -0.00000000000E+00 -0.65110262644E+03  0.65110262644E+03  0.00000000000E+00 0.  1.
         25    2    1    2    0    0 -0.34844095876E+02  0.11414131280E+02  0.26392249251E+02  0.13291682521E+03  0.12500375272E+03 0.  0.
          5    1    3    3  501    0 -0.60525328043E+02  0.42166067549E+02 -0.15038385971E+02  0.75282505536E+02  0.10000000000E+00 0.  1.
         -5    1    3    3    0  501  0.25681232167E+02 -0.30751936268E+02  0.41430635221E+02  0.57634319678E+02  0.10000000000E+00 0.  1.
          2    1    1    2  502    0  0.34844095876E+02 -0.11414131280E+02 -0.59727815098E+03  0.59840252594E+03  0.00000000000E+00 0.  1.
<mgrwt>
<rscale>  1 0.13027023E+03</rscale>
<asrwt>0</asrwt>
<pdfrwt beam="1">  1       21 0.12341034E-01 0.13027023E+03</pdfrwt>
<pdfrwt beam="2">  1        2 0.10016964E+00 0.13027023E+03</pdfrwt>
<totfact> 0.32355156E+04</totfact>
</mgrwt>
</event>
<event>
 6    2  0.1674964E-002  0.1784341E+03  0.7546771E-02  0.1169327E+00
         21   -1    0    0  502  503  0.00000000000E+00  0.00000000000E+00  0.44157653653E+02  0.44157653653E+02  0.00000000000E+00 0. -1.
          2   -1    0    0  503    0 -0.00000000000E+00 -0.00000000000E+00 -0.14115610744E+04  0.14115610744E+04  0.00000000000E+00 0. -1.
         25    2    1    2    0    0 -0.23020206905E+02 -0.12523577896E+03 -0.15414097699E+03  0.23579262877E+03  0.12499917096E+03 0.  0.
          5    1    3    3  501    0 -0.69765388586E+02 -0.46376644834E+02 -0.52252277456E+02  0.98733546123E+02  0.10000000000E+00 0. -1.
         -5    1    3    3    0  501  0.46745181681E+02 -0.78859134126E+02 -0.10188869953E+03  0.13705908265E+03  0.10000000000E+00 0. -1.
          2    1    1    2  502    0  0.23020206905E+02  0.12523577896E+03 -0.12132624437E+04  0.12199260992E+04  0.00000000000E+00 0. -1.
<mgrwt>
<rscale>  1 0.17843409E+03</rscale>
<asrwt>0</asrwt>
<pdfrwt beam="1">  1       21 0.67934861E-02 0.17843409E+03</pdfrwt>
<pdfrwt beam="2">  1        2 0.21716321E+00 0.17843409E+03</pdfrwt>
<totfact> 0.31250842E+04</totfact>
</mgrwt>
</event>
<event>
 6    2  0.1674964E-002  0.2231230E+03  0.7546771E-02  0.1131576E+00
          1   -1    0    0  503    0 -0.00000000000E+00  0.00000000000E+00  0.14290170680E+04  0.14290170680E+04  0.00000000000E+00 0. -1.
         21   -1    0    0  502  503  0.00000000000E+00 -0.00000000000E+00 -0.50235296626E+02  0.50235296626E+02  0.00000000000E+00 0.  1.
         25    2    1    2    0    0  0.10567864508E+03  0.15162648860E+03  0.24854382380E+03  0.33400287818E+03  0.12500128885E+03 0.  0.
          5    1    3    3  501    0  0.68743439153E+02  0.27592182159E+02  0.16251702759E+03  0.17860230458E+03  0.10000000000E+00 0.  1.
         -5    1    3    3    0  501  0.36935205922E+02  0.12403430644E+03  0.86026796210E+02  0.15540057360E+03  0.10000000000E+00 0.  1.
          1    1    1    2  502    0 -0.10567864508E+03 -0.15162648860E+03  0.11302379476E+04  0.11452494864E+04  0.00000000000E+00 0. -1.
<mgrwt>
<rscale>  1 0.22312304E+03</rscale>
<asrwt>0</asrwt>
<pdfrwt beam="1">  1       21 0.77285083E-02 0.22312304E+03</pdfrwt>
<pdfrwt beam="2">  1        1 0.21984875E+00 0.22312304E+03</pdfrwt>
<totfact> 0.11427012E+04</totfact>
</mgrwt>
</event>
<event>
 6    2  0.1674964E-002  0.1305690E+03  0.7546771E-02  0.1226614E+00
         21   -1    0    0  502  503  0.00000000000E+00  0.00000000000E+00  0.21099844145E+02  0.21099844145E+02  0.00000000000E+00 0. -1.
          1   -1    0    0  503    0 -0.00000000000E+00 -0.00000000000E+00 -0.47515921617E+03  0.47515921617E+03  0.00000000000E+00 0. -1.
         25    2    1    2    0    0  0.82473972479E+01 -0.36819208316E+02 -0.19633544001E+03  0.23578775903E+03  0.12499835455E+03 0.  0.
          5    1    3    3  501    0 -0.18792448610E+02  0.42639844764E+02 -0.72816026978E+02  0.86449385603E+02  0.10000000000E+00 0.  1.
         -5    1    3    3    0  501  0.27039845858E+02 -0.79459053080E+02 -0.12351941303E+03  0.14933837342E+03  0.10000000000E+00 0.  1.
          1    1    1    2  502    0 -0.82473972479E+01  0.36819208316E+02 -0.25772393201E+03  0.26047130128E+03  0.00000000000E+00 0. -1.
<mgrwt>
<rscale>  1 0.13056899E+03</rscale>
<asrwt>0</asrwt>
<pdfrwt beam="1">  1       21 0.32461303E-02 0.13056899E+03</pdfrwt>
<pdfrwt beam="2">  1        1 0.73101408E-01 0.13056899E+03</pdfrwt>
<totfact> 0.29105971E+05</totfact>
</mgrwt>
</event>
<event>
 6    2  0.1674964E-002  0.1338196E+03  0.7546771E-02  0.1221896E+00
          2   -1    0    0  503    0 -0.00000000000E+00  0.00000000000E+00  0.52684701762E+03  0.52684701762E+03  0.00000000000E+00 0. -1.
         21   -1    0    0  502  503  0.00000000000E+00 -0.00000000000E+00 -0.17827804221E+02  0.17827804221E+02  0.00000000000E+00 0. -1.
         25    2    1    2    0    0  0.15258695514E+02 -0.45270964120E+02  0.27502514465E+03  0.30585373360E+03  0.12500155272E+03 0.  0.
          5    1    3    3  501    0  0.21031430086E+02 -0.82892054578E+02  0.12769220027E+03  0.15368383706E+03  0.10000000000E+00 0. -1.
         -5    1    3    3    0  501 -0.57727345718E+01  0.37621090457E+02  0.14733294439E+03  0.15216989654E+03  0.10000000000E+00 0. -1.
          2    1    1    2  502    0 -0.15258695514E+02  0.45270964120E+02  0.23399406874E+03  0.23882108824E+03  0.00000000000E+00 0. -1.
<mgrwt>
<rscale>  1 0.13381957E+03</rscale>
<asrwt>0</asrwt>
<pdfrwt beam="1">  1       21 0.27427395E-02 0.13381957E+03</pdfrwt>
<pdfrwt beam="2">  1        2 0.81053376E-01 0.13381957E+03</pdfrwt>
<totfact> 0.52872677E+05</totfact>
</mgrwt>
</event>
<event>
 6    2  0.1674964E-002  0.1285980E+03  0.7546771E-02  0.1229551E+00
          1   -1    0    0  503    0 -0.00000000000E+00  0.00000000000E+00  0.38148129050E+03  0.38148129050E+03  0.00000000000E+00 0.  1.
         21   -1    0    0  502  503  0.00000000000E+00 -0.00000000000E+00 -0.10966571803E+03  0.10966571803E+03  0.00000000000E+00 0.  1.
         25    2    1    2    0    0 -0.30184828465E+02  0.91271726910E+00 -0.71072930097E+02  0.14693125916E+03  0.12500190639E+03 0.  0.
          5    1    3    3  501    0  0.16272813053E+00  0.33893280269E+02 -0.91574886929E+02  0.97646048788E+02  0.10000000000E+00 0. -1.
         -5    1    3    3    0  501 -0.30347556596E+02 -0.32980563000E+02  0.20501956832E+02  0.49285210368E+02  0.10000000000E+00 0. -1.
          1    1    1    2  502    0  0.30184828465E+02 -0.91271726910E+00  0.34288850257E+03  0.34421574937E+03  0.00000000000E+00 0.  1.
<mgrwt>
<rscale>  1 0.12859795E+03</rscale>
<asrwt>0</asrwt>
<pdfrwt beam="1">  1       21 0.16871649E-01 0.12859795E+03</pdfrwt>
<pdfrwt beam="2">  1        1 0.58689429E-01 0.12859795E+03</pdfrwt>
<totfact> 0.22508419E+04</totfact>
</mgrwt>
</event>
<event>
 6    2  0.1674964E-002  0.1662234E+03  0.7546771E-02  0.1181844E+00
          3   -1    0    0  503    0 -0.00000000000E+00  0.00000000000E+00  0.53325919580E+02  0.53325919580E+02  0.00000000000E+00 0.  1.
         21   -1    0    0  502  503  0.00000000000E+00 -0.00000000000E+00 -0.79837860000E+03  0.79837860000E+03  0.00000000000E+00 0. -1.
         25    2    1    2    0    0 -0.55891344422E+02  0.94245278782E+02 -0.72048624811E+03  0.73941238027E+03  0.12499687768E+03 0.  0.
          5    1    3    3  501    0 -0.54785837633E+02  0.29353793450E+02 -0.11734435424E+03  0.13278870685E+03  0.10000000000E+00 0.  1.
         -5    1    3    3    0  501 -0.11055067893E+01  0.64891485332E+02 -0.60314189387E+03  0.60662367342E+03  0.10000000000E+00 0.  1.
          3    1    1    2  502    0  0.55891344422E+02 -0.94245278782E+02 -0.24566432309E+02  0.11229213931E+03  0.00000000000E+00 0.  1.
<mgrwt>
<rscale>  1 0.16622345E+03</rscale>
<asrwt>0</asrwt>
<pdfrwt beam="1">  1       21 0.12282747E+00 0.16622345E+03</pdfrwt>
<pdfrwt beam="2">  1        3 0.82039883E-02 0.16622345E+03</pdfrwt>
<totfact> 0.25157700E+03</totfact>
</mgrwt>
</event>
<event>
 6    2  0.1674964E-002  0.1359128E+03  0.7546771E-02  0.1218937E+00
          2   -1    0    0  503    0 -0.00000000000E+00  0.00000000000E+00  0.66177522533E+03  0.66177522533E+03  0.00000000000E+00 0. -1.
         21   -1    0    0  502  503  0.00000000000E+00 -0.00000000000E+00 -0.20209761856E+02  0.20209761856E+02  0.00000000000E+00 0. -1.
         25    2    1    2    0    0 -0.17882337513E+02 -0.50272529157E+02  0.23139023053E+03  0.26835371794E+03  0.12500069585E+03 0.  0.
          5    1    3    3  501    0  0.35932174892E+01 -0.45096864223E+01  0.21519375639E+03  0.21527101819E+03  0.10000000000E+00 0.  1.
         -5    1    3    3    0  501 -0.21475555002E+02 -0.45762842735E+02  0.16196474144E+02  0.53082699748E+02  0.10000000000E+00 0.  1.
          2    1    1    2  502    0  0.17882337513E+02  0.50272529157E+02  0.41017523294E+03  0.41363126925E+03  0.00000000000E+00 0. -1.
<mgrwt>
<rscale>  1 0.13591276E+03</rscale>
<asrwt>0</asrwt>
<pdfrwt beam="1">  1       21 0.31091946E-02 0.13591276E+03</pdfrwt>
<pdfrwt beam="2">  1        2 0.10181156E+00 0.13591276E+03</pdfrwt>
<totfact> 0.33260755E+05</totfact>
</mgrwt>
</event>
<event>
 6    2  0.1674964E-002  0.1270856E+03  0.7546771E-02  0.1231845E+00
          1   -1    0    0  503    0 -0.00000000000E+00  0.00000000000E+00  0.83086931440E+02  0.83086931440E+02  0.00000000000E+00 0. -1.
         21   -1    0    0  502  503  0.00000000000E+00 -0.00000000000E+00 -0.71813151075E+02  0.71813151075E+02  0.00000000000E+00 0. -1.
         25    2    1    2    0    0 -0.63250573199E+01  0.22161646737E+02 -0.41757392001E+01  0.12715422533E+03  0.12497845928E+03 0.  0.
          5    1    3    3  501    0 -0.27928669330E+02 -0.86466628927E+01 -0.55963183295E+02  0.63140028779E+02  0.10000000000E+00 0. -1.
         -5    1    3    3    0  501  0.21603612010E+02  0.30808309630E+02  0.51787444094E+02  0.64014196550E+02  0.10000000000E+00 0. -1.
          1    1    1    2  502    0  0.63250573199E+01 -0.22161646737E+02  0.15449519565E+02  0.27745857186E+02  0.00000000000E+00 0. -1.
<mgrwt>
<rscale>  1 0.12708564E+03</rscale>
<asrwt>0</asrwt>
<pdfrwt beam="1">  1       21 0.11048177E-01 0.12708564E+03</pdfrwt>
<pdfrwt beam="2">  1        1 0.12782605E-01 0.12708564E+03</pdfrwt>
<totfact> 0.32592242E+05</totfact>
</mgrwt>
</event>
<event>
 6    2  0.1674964E-002  0.1409234E+03  0.7546771E-02  0.1212092E+00
          3   -1    0    0  503    0 -0.00000000000E+00  0.00000000000E+00  0.63637354634E+02  0.63637354634E+02  0.00000000000E+00 0. -1.
         21   -1    0    0  502  503  0.00000000000E+00 -0.00000000000E+00 -0.55492035897E+03  0.55492035897E+03  0.00000000000E+00 0. -1.
         25    2    1    2    0    0 -0.61812274667E+02  0.20309109792E+02 -0.52618153165E+03  0.54472598297E+03  0.12500470004E+03 0.  0.
          5    1    3    3  501    0 -0.64829786689E+02  0.61710401449E+02 -0.44071270768E+03  0.44970965700E+03  0.10000000000E+00 0. -1.
         -5    1    3    3    0  501  0.30175120215E+01 -0.41401291657E+02 -0.85468823964E+02  0.95016325963E+02  0.10000000000E+00 0. -1.
          3    1    1    2  502    0  0.61812274667E+02 -0.20309109792E+02  0.34898527313E+02  0.73831730636E+02  0.00000000000E+00 0. -1.
<mgrwt>
<rscale>  1 0.14092336E+03</rscale>
<asrwt>0</asrwt>
<pdfrwt beam="1">  1       21 0.85372367E-01 0.14092336E+03</pdfrwt>
<pdfrwt beam="2">  1        3 0.97903618E-02 0.14092336E+03</pdfrwt>
<totfact> 0.44449575E+03</totfact>
</mgrwt>
</event>
<event>
 6    2  0.1674964E-002  0.1314206E+03  0.7546771E-02  0.1225363E+00
          2   -1    0    0  503    0 -0.00000000000E+00  0.00000000000E+00  0.59641925519E+03  0.59641925519E+03  0.00000000000E+00 0.  1.
         21   -1    0    0  502  503  0.00000000000E+00 -0.00000000000E+00 -0.24135495351E+02  0.24135495351E+02  0.00000000000E+00 0. -1.
         25    2    1    2    0    0 -0.28240727017E+02 -0.29233459637E+02  0.16357060089E+03  0.20982542346E+03  0.12497692999E+03 0.  0.
          5    1    3    3  501    0  0.40496431297E+01 -0.60840141000E+02  0.28327344182E+02  0.67233702819E+02  0.10000000000E+00 0.  1.
         -5    1    3    3    0  501 -0.32290370147E+02  0.31606681363E+02  0.13524325671E+03  0.14259172064E+03  0.10000000000E+00 0.  1.
          2    1    1    2  502    0  0.28240727017E+02  0.29233459637E+02  0.40871315895E+03  0.41072932708E+03  0.00000000000E+00 0.  1.
<mgrwt>
<rscale>  1 0.13142057E+03</rscale>
<asrwt>0</asrwt>
<pdfrwt beam="1">  1       21 0.37131536E-02 0.13142057E+03</pdfrwt>
<pdfrwt beam="2">  1        2 0.91756797E-01 0.13142057E+03</pdfrwt>
<totfact> 0.27923574E+05</totfact>
</mgrwt>
</event>
<event>
 6    2  0.1674964E-002  0.1320048E+03  0.7546771E-02  0.1224511E+00
         21   -1    0    0  502  503  0.00000000000E+00  0.00000000000E+00  0.35537329627E+01  0.35537329627E+01  0.00000000000E+00 0.  1.
          2   -1    0    0  503    0 -0.00000000000E+00 -0.00000000000E+00 -0.28554535886E+04  0.28554535886E+04  0.00000000000E+00 0.  1.
         25    2    1    2    0    0 -0.14563021020E+02  0.39854956138E+02 -0.13341806552E+04  0.13406950775E+04  0.12499908399E+03 0.  0.
          5    1    3    3  501    0  0.51377243086E+01 -0.41194013472E+02 -0.26130337816E+03  0.26458043842E+03  0.10000000000E+00 0. -1.
         -5    1    3    3    0  501 -0.19700745329E+02  0.81048969610E+02 -0.10728772771E+04  0.10761146391E+04  0.10000000000E+00 0. -1.
          2    1    1    2  502    0  0.14563021020E+02 -0.39854956138E+02 -0.15177192005E+04  0.15183122441E+04  0.00000000000E+00 0.  1.
<mgrwt>
<rscale>  1 0.13200481E+03</rscale>
<asrwt>0</asrwt>
<pdfrwt beam="1">  1       21 0.54672748E-03 0.13200481E+03</pdfrwt>
<pdfrwt beam="2">  1        2 0.43930109E+00 0.13200481E+03</pdfrwt>
<totfact> 0.32534820E+05</totfact>
</mgrwt>
</event>
<event>
 6    2  0.1674964E-002  0.1265509E+03  0.7546771E-02  0.1232665E+00
          3   -1    0    0  503    0 -0.00000000000E+00  0.00000000000E+00  0.23337906677E+03  0.23337906677E+03  0.00000000000E+00 0.  1.
         21   -1    0    0  502  503  0.00000000000E+00 -0.00000000000E+00 -0.45385473311E+02  0.45385473311E+02  0.00000000000E+00 0.  1.
         25    2    1    2    0    0 -0.26885600143E+01 -0.19467421803E+02  0.44827440850E+02  0.13425586865E+03  0.12501571880E+03 0.  0.
          5    1    3    3  501    0 -0.54272992238E+02 -0.73186885262E+01 -0.12513238700E+02  0.56175724570E+02  0.10000000000E+00 0.  1.
         -5    1    3    3    0  501  0.51584432223E+02 -0.12148733277E+02  0.57340679550E+02  0.78080144078E+02  0.10000000000E+00 0.  1.
          3    1    1    2  502    0  0.26885600143E+01  0.19467421803E+02  0.14316615261E+03  0.14450867143E+03  0.00000000000E+00 0.  1.
<mgrwt>
<rscale>  1 0.12655093E+03</rscale>
<asrwt>0</asrwt>
<pdfrwt beam="1">  1       21 0.69823806E-02 0.12655093E+03</pdfrwt>
<pdfrwt beam="2">  1        3 0.35904471E-01 0.12655093E+03</pdfrwt>
<totfact> 0.55167430E+04</totfact>
</mgrwt>
</event>
<event>
 6    2  0.1674964E-002  0.1266073E+03  0.7546771E-02  0.1232579E+00
          2   -1    0    0  503    0 -0.00000000000E+00  0.00000000000E+00  0.15577749759E+04  0.15577749759E+04  0.00000000000E+00 0.  1.
         21   -1    0    0  502  503  0.00000000000E+00 -0.00000000000E+00 -0.35658498123E+02  0.35658498123E+02  0.00000000000E+00 0. -1.
         25    2    1    2    0    0  0.74594920453E+01  0.18562078663E+02  0.77010734273E+02  0.14818927158E+03  0.12501684779E+03 0.  0.
          5    1    3    3  501    0  0.83615984888E+01 -0.52438265601E+02  0.18661973667E+02  0.56284698539E+02  0.10000000000E+00 0. -1.
         -5    1    3    3    0  501 -0.90210644352E+00  0.71000344263E+02  0.58348760606E+02  0.91904573041E+02  0.10000000000E+00 0. -1.
          2    1    1    2  502    0 -0.74594920453E+01 -0.18562078663E+02  0.14451057435E+04  0.14452442024E+04  0.00000000000E+00 0.  1.
<mgrwt>
<rscale>  1 0.12660729E+03</rscale>
<asrwt>0</asrwt>
<pdfrwt beam="1">  1       21 0.54859240E-02 0.12660729E+03</pdfrwt>
<pdfrwt beam="2">  1        2 0.23965764E+00 0.12660729E+03</pdfrwt>
<totfact> 0.38123404E+04</totfact>
</mgrwt>
</event>
<event>
 6    2  0.1674964E-002  0.1277065E+03  0.7546771E-02  0.1230899E+00
         21   -1    0    0  502  503  0.00000000000E+00  0.00000000000E+00  0.75796152353E+02  0.75796152353E+02  0.00000000000E+00 0.  1.
          3   -1    0    0  503    0 -0.00000000000E+00 -0.00000000000E+00 -0.81542254948E+02  0.81542254948E+02  0.00000000000E+00 0.  1.
         25    2    1    2    0    0  0.10700059726E+02 -0.23879517414E+02  0.76617558296E+01  0.12793614042E+03  0.12499692354E+03 0.  0.
          5    1    3    3  501    0  0.47373456912E+02 -0.19663974792E+02  0.50092314405E+02  0.71694953008E+02  0.10000000000E+00 0.  1.
         -5    1    3    3    0  501 -0.36673397186E+02 -0.42155426218E+01 -0.42430558576E+02  0.56241187415E+02  0.10000000000E+00 0.  1.
          3    1    1    2  502    0 -0.10700059726E+02  0.23879517414E+02 -0.13407858424E+02  0.29402266878E+02  0.00000000000E+00 0.  1.
<mgrwt>
<rscale>  1 0.12770651E+03</rscale>
<asrwt>0</asrwt>
<pdfrwt beam="1">  1       21 0.11660947E-01 0.12770651E+03</pdfrwt>
<pdfrwt beam="2">  1        3 0.12544962E-01 0.12770651E+03</pdfrwt>
<totfact> 0.14651706E+05</totfact>
</mgrwt>
</event>
<event>
 6    2  0.1674964E-002  0.1365677E+03  0.7546771E-02  0.1218023E+00
         21   -1    0    0  502  503  0.00000000000E+00  0.00000000000E+00  0.26908283696E+02  0.26908283696E+02  0.00000000000E+00 0. -1.
          1   -1    0    0  503    0 -0.00000000000E+00 -0.00000000000E+00 -0.14470165951E+04  0.14470165951E+04  0.00000000000E+00 0.  1.
         25    2    1    2    0    0  0.47650685432E+02 -0.27470697687E+02 -0.15089014130E+03  0.20351549975E+03  0.12500198736E+03 0.  0.
          5    1    3    3  501    0  0.49266129514E+02 -0.20190136212E+02 -0.17256568379E+03  0.18059268629E+03  0.10000000000E+00 0. -1.
         -5    1    3    3    0  501 -0.16154440822E+01 -0.72805614752E+01  0.21675542488E+02  0.22922813465E+02  0.10000000000E+00 0. -1.
          1    1    1    2  502    0 -0.47650685432E+02  0.27470697687E+02 -0.12692181701E+04  0.12704093790E+04  0.00000000000E+00 0.  1.
<mgrwt>
<rscale>  1 0.13656765E+03</rscale>
<asrwt>0</asrwt>
<pdfrwt beam="1">  1       21 0.41397372E-02 0.13656765E+03</pdfrwt>
<pdfrwt beam="2">  1        1 0.22261787E+00 0.13656765E+03</pdfrwt>
<totfact> 0.32932620E+04</totfact>
</mgrwt>
</event>
<event>
 6    2  0.1674964E-002  0.1759198E+03  0.7546771E-02  0.1171811E+00
          2   -1    0    0  503    0 -0.00000000000E+00  0.00000000000E+00  0.31601314163E+04  0.31601314163E+04  0.00000000000E+00 0.  1.
         21   -1    0    0  502  503  0.00000000000E+00 -0.00000000000E+00 -0.13883500834E+02  0.13883500834E+02  0.00000000000E+00 0.  1.
         25    2    1    2    0    0  0.77257214948E+02  0.96720697279E+02  0.61297840916E+03  0.63772274900E+03  0.12499681578E+03 0.  0.
          5    1    3    3  501    0  0.27998701370E+01 -0.10057176845E+02 -0.62921136015E+00  0.10459062377E+02  0.10000000000E+00 0.  1.
         -5    1    3    3    0  501  0.74457344811E+02  0.10677787412E+03  0.61360762052E+03  0.62726368663E+03  0.10000000000E+00 0.  1.
          2    1    1    2  502    0 -0.77257214948E+02 -0.96720697279E+02  0.25332695063E+04  0.25362921681E+04  0.00000000000E+00 0.  1.
<mgrwt>
<rscale>  1 0.17591980E+03</rscale>
<asrwt>0</asrwt>
<pdfrwt beam="1">  1       21 0.21359257E-02 0.17591980E+03</pdfrwt>
<pdfrwt beam="2">  1        2 0.48617349E+00 0.17591980E+03</pdfrwt>
<totfact> 0.24573731E+04</totfact>
</mgrwt>
</event>
<event>
 6    2  0.1674964E-002  0.1389921E+03  0.7546771E-02  0.1214692E+00
         21   -1    0    0  502  503  0.00000000000E+00  0.00000000000E+00  0.21951021963E+03  0.21951021963E+03  0.00000000000E+00 0.  1.
          3   -1    0    0  503    0 -0.00000000000E+00 -0.00000000000E+00 -0.63169514442E+02  0.63169514442E+02  0.00000000000E+00 0. -1.
         25    2    1    2    0    0  0.58929680200E+02  0.14829348839E+02  0.17080842206E+03  0.22021429060E+03  0.12500479968E+03 0.  0.
          5    1    3    3  501    0  0.81196151763E+02 -0.14015121061E+02  0.55652521130E+02  0.99430638073E+02  0.10000000000E+00 0.  1.
         -5    1    3    3    0  501 -0.22266471563E+02  0.28844469900E+02  0.11515590093E+03  0.12078365253E+03  0.10000000000E+00 0.  1.
          3    1    1    2  502    0 -0.58929680200E+02 -0.14829348839E+02 -0.14467716877E+02  0.62465443464E+02  0.00000000000E+00 0. -1.
<mgrwt>
<rscale>  1 0.13899215E+03</rscale>
<asrwt>0</asrwt>
<pdfrwt beam="1">  1       21 0.33770803E-01 0.13899215E+03</pdfrwt>
<pdfrwt beam="2">  1        3 0.97183869E-02 0.13899215E+03</pdfrwt>
<totfact> 0.31481154E+04</totfact>
</mgrwt>
</event>
<event>
 6    2  0.1674964E-002  0.1468353E+03  0.7546771E-02  0.1204417E+00
          2   -1    0    0  503    0 -0.00000000000E+00  0.00000000000E+00  0.16769765435E+04  0.16769765435E+04  0.00000000000E+00 0. -1.
         21   -1    0    0  502  503  0.00000000000E+00 -0.00000000000E+00 -0.20696233525E+03  0.20696233525E+03  0.00000000000E+00 0.  1.
         25    2    1    2    0    0 -0.40788547954E+02 -0.65352506780E+02 -0.17990587381E+03  0.23222130816E+03  0.12500382694E+03 0.  0.
          5    1    3    3  501    0 -0.80468989637E+02 -0.33610518932E+02 -0.72521035558E+02  0.11342061486E+03  0.10000000000E+00 0. -1.
         -5    1    3    3    0  501  0.39680441682E+02 -0.31741987847E+02 -0.10738483825E+03  0.11880069331E+03  0.10000000000E+00 0. -1.
          2    1    1    2  502    0  0.40788547954E+02  0.65352506780E+02  0.16499200820E+04  0.16517175706E+04  0.00000000000E+00 0. -1.
<mgrwt>
<rscale>  1 0.14683532E+03</rscale>
<asrwt>0</asrwt>
<pdfrwt beam="1">  1       21 0.31840360E-01 0.14683532E+03</pdfrwt>
<pdfrwt beam="2">  1        2 0.25799638E+00 0.14683532E+03</pdfrwt>
<totfact> 0.13888819E+03</totfact>
</mgrwt>
</event>
<event>
 6    2  0.1674964E-002  0.1305352E+03  0.7546771E-02  0.1226664E+00
          2   -1    0    0  503    0 -0.00000000000E+00  0.00000000000E+00  0.14592117756E+04  0.14592117756E+04  0.00000000000E+00 0.  1.
         21   -1    0    0  502  503  0.00000000000E+00 -0.00000000000E+00 -0.57100280821E+01  0.57100280821E+01  0.00000000000E+00 0.  1.
         25    2    1    2    0    0  0.37484975197E+02  0.31792248300E+01  0.82195862676E+03  0.83225922046E+03  0.12499678034E+03 0.  0.
          5    1    3    3  501    0  0.74407975559E+01  0.62088329157E+02  0.47005774231E+03  0.47419892154E+03  0.10000000000E+00 0.  1.
         -5    1    3    3    0  501  0.30044177641E+02 -0.58909104327E+02  0.35190088446E+03  0.35806029892E+03  0.10000000000E+00 0.  1.
          2    1    1    2  502    0 -0.37484975197E+02 -0.31792248300E+01  0.63154312077E+03  0.63266258324E+03  0.00000000000E+00 0.  1.
<mgrwt>
<rscale>  1 0.13053515E+03</rscale>
<asrwt>0</asrwt>
<pdfrwt beam="1">  1       21 0.87846703E-03 0.13053515E+03</pdfrwt>
<pdfrwt beam="2">  1        2 0.22449382E+00 0.13053515E+03</pdfrwt>
<totfact> 0.83754426E+05</totfact>
</mgrwt>
</event>
<event>
 6    2  0.1674964E-002  0.1284210E+03  0.7546771E-02  0.1229818E+00
          4   -1    0    0  503    0 -0.00000000000E+00  0.00000000000E+00  0.22807528141E+03  0.22807528141E+03  0.00000000000E+00 0. -1.
         21   -1    0    0  502  503  0.00000000000E+00 -0.00000000000E+00 -0.32199688747E+02  0.32199688747E+02  0.00000000000E+00 0. -1.
         25    2    1    2    0    0 -0.90744874888E+01  0.27995745023E+02  0.10864342667E+03  0.16821217178E+03  0.12500333000E+03 0.  0.
          5    1    3    3  501    0  0.46268459625E+02  0.50253402850E+02  0.50872092023E+02  0.85171324992E+02  0.10000000000E+00 0. -1.
         -5    1    3    3    0  501 -0.55342947114E+02 -0.22257657826E+02  0.57771334651E+02  0.83040846784E+02  0.10000000000E+00 0. -1.
          4    1    1    2  502    0  0.90744874888E+01 -0.27995745023E+02  0.87232165994E+02  0.92062798385E+02  0.00000000000E+00 0. -1.
<mgrwt>
<rscale>  1 0.12842095E+03</rscale>
<asrwt>0</asrwt>
<pdfrwt beam="1">  1       21 0.49537984E-02 0.12842095E+03</pdfrwt>
<pdfrwt beam="2">  1        4 0.35088504E-01 0.12842095E+03</pdfrwt>
<totfact> 0.85832948E+04</totfact>
</mgrwt>
</event>
<event>
 6    2  0.1674964E-002  0.1302840E+03  0.7546771E-02  0.1227035E+00
          1   -1    0    0  503    0 -0.00000000000E+00  0.00000000000E+00  0.24693411716E+03  0.24693411716E+03  0.00000000000E+00 0.  1.
         21   -1    0    0  502  503  0.00000000000E+00 -0.00000000000E+00 -0.75725680318E+02  0.75725680318E+02  0.00000000000E+00 0.  1.
         25    2    1    2    0    0 -0.14620726628E+02 -0.33674643457E+02 -0.16563593235E+02  0.13133263647E+03  0.12500464601E+03 0.  0.
          5    1    3    3  501    0  0.70886271157E+01 -0.60746931776E+02  0.34024339980E+02  0.69986456301E+02  0.10000000000E+00 0.  1.
         -5    1    3    3    0  501 -0.21709353743E+02  0.27072288318E+02 -0.50587933215E+02  0.61346180172E+02  0.10000000000E+00 0.  1.
          1    1    1    2  502    0  0.14620726628E+02  0.33674643457E+02  0.18777203007E+03  0.19132716100E+03  0.00000000000E+00 0.  1.
<mgrwt>
<rscale>  1 0.13028395E+03</rscale>
<asrwt>0</asrwt>
<pdfrwt beam="1">  1       21 0.11650105E-01 0.13028395E+03</pdfrwt>
<pdfrwt beam="2">  1        1 0.37989864E-01 0.13028395E+03</pdfrwt>
<totfact> 0.74978734E+04</totfact>
</mgrwt>
</event>
<event>
 6    2  0.1674964E-002  0.1498286E+03  0.7546771E-02  0.1200684E+00
         21   -1    0    0  502  503  0.00000000000E+00  0.00000000000E+00  0.58749749167E+02  0.58749749167E+02  0.00000000000E+00 0.  1.
          2   -1    0    0  503    0 -0.00000000000E+00 -0.00000000000E+00 -0.23000309804E+03  0.23000309804E+03  0.00000000000E+00 0.  1.
         25    2    1    2    0    0  0.80499166811E+00 -0.82603326826E+02 -0.11329506325E+03  0.18784139847E+03  0.12499864802E+03 0.  0.
          5    1    3    3  501    0  0.46036798026E+02 -0.78572065936E+01 -0.83245995015E+02  0.95451705872E+02  0.10000000000E+00 0. -1.
         -5    1    3    3    0  501 -0.45231806358E+02 -0.74746120232E+02 -0.30049068235E+02  0.92389692596E+02  0.10000000000E+00 0. -1.
          2    1    1    2  502    0 -0.80499166811E+00  0.82603326826E+02 -0.57958285626E+02  0.10091144874E+03  0.00000000000E+00 0.  1.
<mgrwt>
<rscale>  1 0.14982863E+03</rscale>
<asrwt>0</asrwt>
<pdfrwt beam="1">  1       21 0.90384231E-02 0.14982863E+03</pdfrwt>
<pdfrwt beam="2">  1        2 0.35385091E-01 0.14982863E+03</pdfrwt>
<totfact> 0.17338234E+05</totfact>
</mgrwt>
</event>
<event>
 6    2  0.1674964E-002  0.1310180E+03  0.7546771E-02  0.1225953E+00
         21   -1    0    0  502  503  0.00000000000E+00  0.00000000000E+00  0.70485530510E+02  0.70485530510E+02  0.00000000000E+00 0. -1.
          4   -1    0    0  503    0 -0.00000000000E+00 -0.00000000000E+00 -0.19638517402E+03  0.19638517402E+03  0.00000000000E+00 0.  1.
         25    2    1    2    0    0 -0.20344383923E+02 -0.33580104805E+02  0.40892839441E+01  0.13108175558E+03  0.12499674799E+03 0.  0.
          5    1    3    3  501    0  0.38529542245E+02 -0.27361104645E+01 -0.36549502664E+02  0.53177890810E+02  0.10000000000E+00 0.  1.
         -5    1    3    3    0  501 -0.58873926169E+02 -0.30843994341E+02  0.40638786608E+02  0.77903864772E+02  0.10000000000E+00 0.  1.
          4    1    1    2  502    0  0.20344383923E+02  0.33580104805E+02 -0.12998892745E+03  0.13578894895E+03  0.00000000000E+00 0.  1.
<mgrwt>
<rscale>  1 0.13101795E+03</rscale>
<asrwt>0</asrwt>
<pdfrwt beam="1">  1       21 0.10843928E-01 0.13101795E+03</pdfrwt>
<pdfrwt beam="2">  1        4 0.30213103E-01 0.13101795E+03</pdfrwt>
<totfact> 0.29836170E+04</totfact>
</mgrwt>
</event>
<event>
 6    2  0.1674964E-002  0.1605728E+03  0.7546771E-02  0.1188052E+00
         21   -1    0    0  502  503  0.00000000000E+00  0.00000000000E+00  0.17038765621E+04  0.17038765621E+04  0.00000000000E+00 0. -1.
          4   -1    0    0  503    0 -0.00000000000E+00 -0.00000000000E+00 -0.34780322115E+02  0.34780322115E+02  0.00000000000E+00 0. -1.
         25    2    1    2    0    0 -0.78976732439E+02  0.62623991151E+02  0.16174540340E+04  0.16254049263E+04  0.12499813518E+03 0.  0.
          5    1    3    3  501    0 -0.65828566255E+02  0.99477844512E+02  0.13220585614E+04  0.13274291286E+04  0.10000000000E+00 0.  1.
         -5    1    3    3    0  501 -0.13148166184E+02 -0.36853853361E+02  0.29539547256E+03  0.29797579766E+03  0.10000000000E+00 0.  1.
          4    1    1    2  502    0  0.78976732439E+02 -0.62623991151E+02  0.51642205997E+02  0.11325195793E+03  0.00000000000E+00 0. -1.
<mgrwt>
<rscale>  1 0.16057279E+03</rscale>
<asrwt>0</asrwt>
<pdfrwt beam="1">  1       21 0.26213479E+00 0.16057279E+03</pdfrwt>
<pdfrwt beam="2">  1        4 0.53508201E-02 0.16057279E+03</pdfrwt>
<totfact> 0.51644355E+02</totfact>
</mgrwt>
</event>
<event>
 6    2  0.1674964E-002  0.1489822E+03  0.7546771E-02  0.1201729E+00
          2   -1    0    0  503    0 -0.00000000000E+00  0.00000000000E+00  0.51484055860E+03  0.51484055860E+03  0.00000000000E+00 0. -1.
         21   -1    0    0  502  503  0.00000000000E+00 -0.00000000000E+00 -0.26183276265E+02  0.26183276265E+02  0.00000000000E+00 0. -1.
         25    2    1    2    0    0  0.12539993623E+02 -0.80072516152E+02  0.35048343846E+03  0.38083372776E+03  0.12500731291E+03 0.  0.
          5    1    3    3  501    0 -0.21229959112E+02 -0.45801429506E+02  0.34351899771E+02  0.61061813980E+02  0.10000000000E+00 0.  1.
         -5    1    3    3    0  501  0.33769952736E+02 -0.34271086646E+02  0.31613153869E+03  0.31977191378E+03  0.10000000000E+00 0.  1.
          2    1    1    2  502    0 -0.12539993623E+02  0.80072516152E+02  0.13817384387E+03  0.16019010710E+03  0.00000000000E+00 0. -1.
<mgrwt>
<rscale>  1 0.14898217E+03</rscale>
<asrwt>0</asrwt>
<pdfrwt beam="1">  1       21 0.40281967E-02 0.14898217E+03</pdfrwt>
<pdfrwt beam="2">  1        2 0.79206233E-01 0.14898217E+03</pdfrwt>
<totfact> 0.28925704E+05</totfact>
</mgrwt>
</event>
<event>
 6    2  0.1674964E-002  0.1274278E+03  0.7546771E-02  0.1231323E+00
         21   -1    0    0  502  503  0.00000000000E+00  0.00000000000E+00  0.13266399734E+03  0.13266399734E+03  0.00000000000E+00 0. -1.
          2   -1    0    0  503    0 -0.00000000000E+00 -0.00000000000E+00 -0.10416543596E+03  0.10416543596E+03  0.00000000000E+00 0. -1.
         25    2    1    2    0    0 -0.95229373701E+01  0.22828388380E+02  0.99480794298E+02  0.16166096224E+03  0.12500406644E+03 0.  0.
          5    1    3    3  501    0  0.54775607799E+02  0.18017676852E+01  0.67169748843E+02  0.86691399436E+02  0.10000000000E+00 0. -1.
         -5    1    3    3    0  501 -0.64298545170E+02  0.21026620695E+02  0.32311045455E+02  0.74969562805E+02  0.10000000000E+00 0. -1.
          2    1    1    2  502    0  0.95229373701E+01 -0.22828388380E+02 -0.70982232917E+02  0.75168471064E+02  0.00000000000E+00 0. -1.
<mgrwt>
<rscale>  1 0.12742778E+03</rscale>
<asrwt>0</asrwt>
<pdfrwt beam="1">  1       21 0.20409846E-01 0.12742778E+03</pdfrwt>
<pdfrwt beam="2">  1        2 0.16025452E-01 0.12742778E+03</pdfrwt>
<totfact> 0.96392441E+04</totfact>
</mgrwt>
</event>
<event>
 6    2  0.1674964E-002  0.1273184E+03  0.7546771E-02  0.1231490E+00
         21   -1    0    0  502  503  0.00000000000E+00  0.00000000000E+00  0.65346863706E+01  0.65346863706E+01  0.00000000000E+00 0. -1.
          3   -1    0    0  503    0 -0.00000000000E+00 -0.00000000000E+00 -0.87976898554E+03  0.87976898554E+03  0.00000000000E+00 0. -1.
         25    2    1    2    0    0 -0.19794436302E+02 -0.13956732590E+02 -0.72110126441E+03  0.73225474995E+03  0.12499350060E+03 0.  0.
          5    1    3    3  501    0 -0.11260397504E+02  0.42190229654E+02 -0.55495390771E+03  0.55666925702E+03  0.10000000000E+00 0.  1.
         -5    1    3    3    0  501 -0.85340387984E+01 -0.56146962244E+02 -0.16614735670E+03  0.17558549293E+03  0.10000000000E+00 0.  1.
          3    1    1    2  502    0  0.19794436302E+02  0.13956732590E+02 -0.15213303476E+03  0.15404892197E+03  0.00000000000E+00 0. -1.
<mgrwt>
<rscale>  1 0.12731844E+03</rscale>
<asrwt>0</asrwt>
<pdfrwt beam="1">  1       21 0.10053370E-02 0.12731844E+03</pdfrwt>
<pdfrwt beam="2">  1        3 0.13534898E+00 0.12731844E+03</pdfrwt>
<totfact> 0.78308144E+04</totfact>
</mgrwt>
</event>
<event>
 6    2  0.1674964E-002  0.1271017E+03  0.7546771E-02  0.1231821E+00
         21   -1    0    0  502  503  0.00000000000E+00  0.00000000000E+00  0.45560383218E+02  0.45560383218E+02  0.00000000000E+00 0. -1.
          2   -1    0    0  503    0 -0.00000000000E+00 -0.00000000000E+00 -0.67998560710E+03  0.67998560710E+03  0.00000000000E+00 0.  1.
         25    2    1    2    0    0  0.18198347157E+02 -0.14076423930E+02 -0.43746661703E+02  0.13441953230E+03  0.12500205880E+03 0.  0.
          5    1    3    3  501    0  0.49073581938E+02 -0.34306497796E+02 -0.67728242418E+02  0.90400647433E+02  0.10000000000E+00 0. -1.
         -5    1    3    3    0  501 -0.30875234781E+02  0.20230073866E+02  0.23981580716E+02  0.44018884868E+02  0.10000000000E+00 0. -1.
          2    1    1    2  502    0 -0.18198347157E+02  0.14076423930E+02 -0.59067856218E+03  0.59112645802E+03  0.00000000000E+00 0.  1.
<mgrwt>
<rscale>  1 0.12710169E+03</rscale>
<asrwt>0</asrwt>
<pdfrwt beam="1">  1       21 0.70092894E-02 0.12710169E+03</pdfrwt>
<pdfrwt beam="2">  1        2 0.10461318E+00 0.12710169E+03</pdfrwt>
<totfact> 0.82359817E+04</totfact>
</mgrwt>
</event>
<event>
 6    2  0.1674964E-002  0.1267921E+03  0.7546771E-02  0.1232295E+00
         21   -1    0    0  502  503  0.00000000000E+00  0.00000000000E+00  0.92260639683E+03  0.92260639683E+03  0.00000000000E+00 0. -1.
          2   -1    0    0  503    0 -0.00000000000E+00 -0.00000000000E+00 -0.15113709282E+02  0.15113709282E+02  0.00000000000E+00 0.  1.
         25    2    1    2    0    0  0.21199105434E+02 -0.82543714910E+00  0.90769122520E+03  0.91650400763E+03  0.12500460907E+03 0.  0.
          5    1    3    3  501    0  0.23862121354E+02 -0.72775749661E+00  0.91152303228E+03  0.91183560955E+03  0.10000000000E+00 0. -1.
         -5    1    3    3    0  501 -0.26630159204E+01 -0.97679652485E-01 -0.38318070842E+01  0.46683980805E+01  0.10000000000E+00 0. -1.
          2    1    1    2  502    0 -0.21199105434E+02  0.82543714910E+00 -0.19853764584E+00  0.21216098484E+02  0.00000000000E+00 0.  1.
<mgrwt>
<rscale>  1 0.12679210E+03</rscale>
<asrwt>0</asrwt>
<pdfrwt beam="1">  1       21 0.14193940E+00 0.12679210E+03</pdfrwt>
<pdfrwt beam="2">  1        2 0.23251868E-02 0.12679210E+03</pdfrwt>
<totfact> 0.18409589E+04</totfact>
</mgrwt>
</event>
<event>
 6    2  0.1674964E-002  0.1342349E+03  0.7546771E-02  0.1221304E+00
          2   -1    0    0  503    0 -0.00000000000E+00  0.00000000000E+00  0.20647159953E+04  0.20647159953E+04  0.00000000000E+00 0. -1.
         21   -1    0    0  502  503  0.00000000000E+00 -0.00000000000E+00 -0.57863527383E+02  0.57863527383E+02  0.00000000000E+00 0. -1.
         25    2    1    2    0    0 -0.36742918776E+01  0.48796358651E+02  0.20696795440E+02  0.13582112259E+03  0.12499773982E+03 0.  0.
          5    1    3    3  501    0  0.40287007081E+02 -0.23082220025E+02  0.22390335012E+02  0.51547734410E+02  0.10000000000E+00 0.  1.
         -5    1    3    3    0  501 -0.43961298959E+02  0.71878578676E+02 -0.16935395716E+01  0.84273388177E+02  0.10000000000E+00 0.  1.
          2    1    1    2  502    0  0.36742918776E+01 -0.48796358651E+02  0.19861556725E+04  0.19867584001E+04  0.00000000000E+00 0. -1.
<mgrwt>
<rscale>  1 0.13423494E+03</rscale>
<asrwt>0</asrwt>
<pdfrwt beam="1">  1       21 0.89020827E-02 0.13423494E+03</pdfrwt>
<pdfrwt beam="2">  1        2 0.31764856E+00 0.13423494E+03</pdfrwt>
<totfact> 0.91392580E+03</totfact>
</mgrwt>
</event>
<event>
 6    2  0.1674964E-002  0.1297841E+03  0.7546771E-02  0.1227777E+00
          1   -1    0    0  503    0 -0.00000000000E+00  0.00000000000E+00  0.49841690621E+03  0.49841690621E+03  0.00000000000E+00 0. -1.
         21   -1    0    0  502  503  0.00000000000E+00 -0.00000000000E+00 -0.33897506541E+02  0.33897506541E+02  0.00000000000E+00 0. -1.
         25    2    1    2    0    0 -0.30072724853E+02  0.17722566136E+02  0.94232797198E+02  0.16038615878E+03  0.12500176691E+03 0.  0.
          5    1    3    3  501    0 -0.20863383666E+02 -0.45732618952E+02  0.80353648750E+02  0.94781179997E+02  0.10000000000E+00 0.  1.
         -5    1    3    3    0  501 -0.92093411874E+01  0.63455185088E+02  0.13879148447E+02  0.65604978784E+02  0.10000000000E+00 0.  1.
          1    1    1    2  502    0  0.30072724853E+02 -0.17722566136E+02  0.37028660247E+03  0.37192825397E+03  0.00000000000E+00 0. -1.
<mgrwt>
<rscale>  1 0.12978405E+03</rscale>
<asrwt>0</asrwt>
<pdfrwt beam="1">  1       21 0.52150014E-02 0.12978405E+03</pdfrwt>
<pdfrwt beam="2">  1        1 0.76679519E-01 0.12978405E+03</pdfrwt>
<totfact> 0.12426550E+05</totfact>
</mgrwt>
</event>
<event>
 6    2  0.1674964E-002  0.1763178E+03  0.7546771E-02  0.1171415E+00
         21   -1    0    0  502  503  0.00000000000E+00  0.00000000000E+00  0.10861516249E+02  0.10861516249E+02  0.00000000000E+00 0. -1.
          2   -1    0    0  503    0 -0.00000000000E+00 -0.00000000000E+00 -0.20965016255E+04  0.20965016255E+04  0.00000000000E+00 0. -1.
         25    2    1    2    0    0 -0.12101293649E+03 -0.28632109010E+02 -0.13114573652E+04  0.13232567397E+04  0.12499620035E+03 0.  0.
          5    1    3    3  501    0 -0.26590262657E+02 -0.58954352421E+02 -0.29680953058E+03  0.30377387179E+03  0.10000000000E+00 0. -1.
         -5    1    3    3    0  501 -0.94422673833E+02  0.30322243411E+02 -0.10146478346E+04  0.10194828679E+04  0.10000000000E+00 0. -1.
          2    1    1    2  502    0  0.12101293649E+03  0.28632109010E+02 -0.77418274408E+03  0.78410640202E+03  0.00000000000E+00 0. -1.
<mgrwt>
<rscale>  1 0.17631783E+03</rscale>
<asrwt>0</asrwt>
<pdfrwt beam="1">  1       21 0.16710024E-02 0.17631783E+03</pdfrwt>
<pdfrwt beam="2">  1        2 0.32253872E+00 0.17631783E+03</pdfrwt>
<totfact> 0.14170632E+05</totfact>
</mgrwt>
</event>
<event>
 6    2  0.1674964E-002  0.1367745E+03  0.7546771E-02  0.1217736E+00
          2   -1    0    0  503    0 -0.00000000000E+00  0.00000000000E+00  0.27687466959E+02  0.27687466959E+02  0.00000000000E+00 0. -1.
         21   -1    0    0  502  503  0.00000000000E+00 -0.00000000000E+00 -0.38918772703E+03  0.38918772703E+03  0.00000000000E+00 0. -1.
         25    2    1    2    0    0 -0.17158660082E+02  0.52782428957E+02 -0.31862840551E+03  0.34674388618E+03  0.12500742929E+03 0.  0.
          5    1    3    3  501    0 -0.68607635339E+02  0.89981005128E+01 -0.15816149882E+03  0.17263557904E+03  0.10000000000E+00 0.  1.
         -5    1    3    3    0  501  0.51448975257E+02  0.43784328444E+02 -0.16046690669E+03  0.17410830714E+03  0.10000000000E+00 0.  1.
          2    1    1    2  502    0  0.17158660082E+02 -0.52782428957E+02 -0.42871854559E+02  0.70131307814E+02  0.00000000000E+00 0. -1.
<mgrwt>
<rscale>  1 0.13677449E+03</rscale>
<asrwt>0</asrwt>
<pdfrwt beam="1">  1       21 0.59875030E-01 0.13677449E+03</pdfrwt>
<pdfrwt beam="2">  1        2 0.42596107E-02 0.13677449E+03</pdfrwt>
<totfact> 0.60253742E+04</totfact>
</mgrwt>
</event>
<event>
 6    2  0.1674964E-002  0.1832546E+03  0.7546771E-02  0.1164690E+00
          1   -1    0    0  503    0 -0.00000000000E+00  0.00000000000E+00  0.28477673673E+04  0.28477673673E+04  0.00000000000E+00 0. -1.
         21   -1    0    0  502  503  0.00000000000E+00 -0.00000000000E+00 -0.15066517909E+02  0.15066517909E+02  0.00000000000E+00 0. -1.
         25    2    1    2    0    0 -0.26177240413E+02 -0.13142132486E+03  0.63134022309E+03  0.65739845891E+03  0.12500177576E+03 0.  0.
          5    1    3    3  501    0  0.10002982023E+02 -0.46469503789E+02  0.46269551552E+03  0.46513076066E+03  0.10000000000E+00 0. -1.
         -5    1    3    3    0  501 -0.36180222436E+02 -0.84951821068E+02  0.16864470757E+03  0.19226769825E+03  0.10000000000E+00 0. -1.
          1    1    1    2  502    0  0.26177240413E+02  0.13142132486E+03  0.22013606263E+04  0.22054354263E+04  0.00000000000E+00 0. -1.
<mgrwt>
<rscale>  1 0.18325462E+03</rscale>
<asrwt>0</asrwt>
<pdfrwt beam="1">  1       21 0.23179281E-02 0.18325462E+03</pdfrwt>
<pdfrwt beam="2">  1        1 0.43811763E+00 0.18325462E+03</pdfrwt>
<totfact> 0.10393418E+04</totfact>
</mgrwt>
</event>
<event>
 6    2  0.1674964E-002  0.1367284E+03  0.7546771E-02  0.1217800E+00
         21   -1    0    0  502  503  0.00000000000E+00  0.00000000000E+00  0.46161355598E+01  0.46161355598E+01  0.00000000000E+00 0. -1.
          2   -1    0    0  503    0 -0.00000000000E+00 -0.00000000000E+00 -0.29796159531E+04  0.29796159531E+04  0.00000000000E+00 0. -1.
         25    2    1    2    0    0  0.36004279986E+02  0.42104550957E+02 -0.11071302227E+04  0.11155411231E+04  0.12500226378E+03 0.  0.
          5    1    3    3  501    0 -0.27772744621E+01  0.12589569741E+02 -0.96864271072E+03  0.96872850766E+03  0.10000000000E+00 0. -1.
         -5    1    3    3    0  501  0.38781554449E+02  0.29514981217E+02 -0.13848751196E+03  0.14681261543E+03  0.10000000000E+00 0. -1.
          2    1    1    2  502    0 -0.36004279986E+02 -0.42104550957E+02 -0.18678695948E+04  0.18686909656E+04  0.00000000000E+00 0. -1.
<mgrwt>
<rscale>  1 0.13672844E+03</rscale>
<asrwt>0</asrwt>
<pdfrwt beam="1">  1       21 0.71017406E-03 0.13672844E+03</pdfrwt>
<pdfrwt beam="2">  1        2 0.45840287E+00 0.13672844E+03</pdfrwt>
<totfact> 0.18396401E+05</totfact>
</mgrwt>
</event>
<event>
 6    2  0.1674964E-002  0.1329803E+03  0.7546771E-02  0.1223099E+00
         21   -1    0    0  502  503  0.00000000000E+00  0.00000000000E+00  0.32109560081E+02  0.32109560081E+02  0.00000000000E+00 0. -1.
          2   -1    0    0  503    0 -0.00000000000E+00 -0.00000000000E+00 -0.26867787492E+04  0.26867787492E+04  0.00000000000E+00 0. -1.
         25    2    1    2    0    0  0.98968332890E+01 -0.44284597306E+02 -0.10664703993E+03  0.17046213895E+03  0.12499870728E+03 0.  0.
          5    1    3    3  501    0  0.45352745287E+02  0.20959332157E+02 -0.74139391330E+02  0.89402597593E+02  0.10000000000E+00 0.  1.
         -5    1    3    3    0  501 -0.35455911998E+02 -0.65243929463E+02 -0.32507648598E+02  0.81059541355E+02  0.10000000000E+00 0.  1.
          2    1    1    2  502    0 -0.98968332890E+01  0.44284597306E+02 -0.25480221492E+04  0.25484261704E+04  0.00000000000E+00 0. -1.
<mgrwt>
<rscale>  1 0.13298026E+03</rscale>
<asrwt>0</asrwt>
<pdfrwt beam="1">  1       21 0.49399319E-02 0.13298026E+03</pdfrwt>
<pdfrwt beam="2">  1        2 0.41335061E+00 0.13298026E+03</pdfrwt>
<totfact> 0.11744807E+04</totfact>
</mgrwt>
</event>
<event>
 6    2  0.1674964E-002  0.1936248E+03  0.7546771E-02  0.1155232E+00
          2   -1    0    0  503    0 -0.00000000000E+00  0.00000000000E+00  0.18511940910E+03  0.18511940910E+03  0.00000000000E+00 0.  1.
         21   -1    0    0  502  503  0.00000000000E+00 -0.00000000000E+00 -0.54940832822E+03  0.54940832822E+03  0.00000000000E+00 0.  1.
         25    2    1    2    0    0  0.14688114098E+03 -0.17060217505E+02 -0.49853159674E+03  0.53481239716E+03  0.12500170642E+03 0.  0.
          5    1    3    3  501    0 -0.50729126148E+01 -0.25566650371E+02 -0.20566919174E+02  0.33202352596E+02  0.10000000000E+00 0. -1.
         -5    1    3    3    0  501  0.15195405360E+03  0.85064328662E+01 -0.47796467757E+03  0.50161004456E+03  0.10000000000E+00 0. -1.
          2    1    1    2  502    0 -0.14688114098E+03  0.17060217505E+02  0.13424267762E+03  0.19971534015E+03  0.00000000000E+00 0.  1.
<mgrwt>
<rscale>  1 0.19362476E+03</rscale>
<asrwt>0</asrwt>
<pdfrwt beam="1">  1       21 0.84524357E-01 0.19362476E+03</pdfrwt>
<pdfrwt beam="2">  1        2 0.28479909E-01 0.19362476E+03</pdfrwt>
<totfact> 0.27737927E+03</totfact>
</mgrwt>
</event>
<event>
 6    2  0.1674964E-002  0.1842403E+03  0.7546771E-02  0.1163761E+00
         21   -1    0    0  502  503  0.00000000000E+00  0.00000000000E+00  0.24946451417E+02  0.24946451417E+02  0.00000000000E+00 0. -1.
          2   -1    0    0  503    0 -0.00000000000E+00 -0.00000000000E+00 -0.17052651432E+04  0.17052651432E+04  0.00000000000E+00 0. -1.
         25    2    1    2    0    0  0.51596028599E+02  0.12512724864E+03 -0.37418346286E+03  0.41708242551E+03  0.12500202908E+03 0.  0.
          5    1    3    3  501    0 -0.35029380723E+02  0.36024974172E+02 -0.17710378060E+03  0.18409403951E+03  0.10000000000E+00 0. -1.
         -5    1    3    3    0  501  0.86625409323E+02  0.89102274464E+02 -0.19707968225E+03  0.23298838600E+03  0.10000000000E+00 0. -1.
          2    1    1    2  502    0 -0.51596028599E+02 -0.12512724864E+03 -0.13061352289E+04  0.13131291691E+04  0.00000000000E+00 0. -1.
<mgrwt>
<rscale>  1 0.18424029E+03</rscale>
<asrwt>0</asrwt>
<pdfrwt beam="1">  1       21 0.38379150E-02 0.18424029E+03</pdfrwt>
<pdfrwt beam="2">  1        2 0.26234852E+00 0.18424029E+03</pdfrwt>
<totfact> 0.57629196E+04</totfact>
</mgrwt>
</event>
<event>
 6    2  0.1674964E-002  0.1442069E+03  0.7546771E-02  0.1207778E+00
         21   -1    0    0  502  503  0.00000000000E+00  0.00000000000E+00  0.24472376743E+03  0.24472376743E+03  0.00000000000E+00 0.  1.
          2   -1    0    0  503    0 -0.00000000000E+00 -0.00000000000E+00 -0.10938386635E+04  0.10938386635E+04  0.00000000000E+00 0.  1.
         25    2    1    2    0    0 -0.22799839955E+02 -0.68186812453E+02  0.22216968654E+03  0.26486790685E+03  0.12500545735E+03 0.  0.
          5    1    3    3  501    0  0.24192549970E+02 -0.70023811062E+01 -0.43610657894E+01  0.25560549877E+02  0.10000000000E+00 0.  1.
         -5    1    3    3    0  501 -0.46992389925E+02 -0.61184431347E+02  0.22653075233E+03  0.23930735697E+03  0.10000000000E+00 0.  1.
          2    1    1    2  502    0  0.22799839955E+02  0.68186812453E+02 -0.10712845826E+04  0.10736945241E+04  0.00000000000E+00 0.  1.
<mgrwt>
<rscale>  1 0.14420693E+03</rscale>
<asrwt>0</asrwt>
<pdfrwt beam="1">  1       21 0.37649809E-01 0.14420693E+03</pdfrwt>
<pdfrwt beam="2">  1        2 0.16828288E+00 0.14420693E+03</pdfrwt>
<totfact> 0.20546200E+03</totfact>
</mgrwt>
</event>
<event>
 6    2  0.1674964E-002  0.1264474E+03  0.7546771E-02  0.1232824E+00
          2   -1    0    0  503    0 -0.00000000000E+00  0.00000000000E+00  0.41196120798E+03  0.41196120798E+03  0.00000000000E+00 0. -1.
         21   -1    0    0  502  503  0.00000000000E+00 -0.00000000000E+00 -0.19175754492E+02  0.19175754492E+02  0.00000000000E+00 0. -1.
         25    2    1    2    0    0 -0.15116068601E+02  0.11629781626E+02  0.19483965234E+03  0.23227447847E+03  0.12500078349E+03 0.  0.
          5    1    3    3  501    0  0.59675464453E+01 -0.50605997585E+02  0.42451739026E+02  0.66322988085E+02  0.10000000000E+00 0.  1.
         -5    1    3    3    0  501 -0.21083615046E+02  0.62235779211E+02  0.15238791331E+03  0.16595149038E+03  0.10000000000E+00 0.  1.
          2    1    1    2  502    0  0.15116068601E+02 -0.11629781626E+02  0.19794580115E+03  0.19886248400E+03  0.00000000000E+00 0. -1.
<mgrwt>
<rscale>  1 0.12644739E+03</rscale>
<asrwt>0</asrwt>
<pdfrwt beam="1">  1       21 0.29501164E-02 0.12644739E+03</pdfrwt>
<pdfrwt beam="2">  1        2 0.63378641E-01 0.12644739E+03</pdfrwt>
<totfact> 0.61055082E+05</totfact>
</mgrwt>
</event>
<event>
 6    2  0.1674964E-002  0.1356812E+03  0.7546771E-02  0.1219261E+00
         21   -1    0    0  502  503  0.00000000000E+00  0.00000000000E+00  0.14838936037E+03  0.14838936037E+03  0.00000000000E+00 0. -1.
          3   -1    0    0  503    0 -0.00000000000E+00 -0.00000000000E+00 -0.34993341556E+03  0.34993341556E+03  0.00000000000E+00 0.  1.
         25    2    1    2    0    0 -0.34687889435E+02  0.39758335172E+02  0.11472484108E+03  0.17768280706E+03  0.12500166349E+03 0.  0.
          5    1    3    3  501    0 -0.51684017657E+02 -0.24143656801E+02  0.91058566350E+02  0.10745150697E+03  0.10000000000E+00 0. -1.
         -5    1    3    3    0  501  0.16996128223E+02  0.63901991974E+02  0.23666274729E+02  0.70231300090E+02  0.10000000000E+00 0. -1.
          3    1    1    2  502    0  0.34687889435E+02 -0.39758335172E+02 -0.31626889627E+03  0.32063996887E+03  0.00000000000E+00 0.  1.
<mgrwt>
<rscale>  1 0.13568121E+03</rscale>
<asrwt>0</asrwt>
<pdfrwt beam="1">  1       21 0.22829133E-01 0.13568121E+03</pdfrwt>
<pdfrwt beam="2">  1        3 0.53835910E-01 0.13568121E+03</pdfrwt>
<totfact> 0.30371623E+03</totfact>
</mgrwt>
</event>
<event>
 6    2  0.1674964E-002  0.1268338E+03  0.7546771E-02  0.1232231E+00
         21   -1    0    0  502  503  0.00000000000E+00  0.00000000000E+00  0.15456170677E+03  0.15456170677E+03  0.00000000000E+00 0.  1.
          2   -1    0    0  503    0 -0.00000000000E+00 -0.00000000000E+00 -0.56131471286E+02  0.56131471286E+02  0.00000000000E+00 0. -1.
         25    2    1    2    0    0  0.15105241421E+02 -0.16024956630E+02  0.12370419141E+03  0.17717094064E+03  0.12490735639E+03 0.  0.
          5    1    3    3  501    0 -0.32877701580E+02 -0.54416482770E+02  0.77763005398E+02  0.10044496934E+03  0.10000000000E+00 0.  1.
         -5    1    3    3    0  501  0.47982943002E+02  0.38391526140E+02  0.45941186015E+02  0.76725971293E+02  0.10000000000E+00 0.  1.
          2    1    1    2  502    0 -0.15105241421E+02  0.16024956630E+02 -0.25273955928E+02  0.33522237419E+02  0.00000000000E+00 0. -1.
<mgrwt>
<rscale>  1 0.12683381E+03</rscale>
<asrwt>0</asrwt>
<pdfrwt beam="1">  1       21 0.23778724E-01 0.12683381E+03</pdfrwt>
<pdfrwt beam="2">  1        2 0.86356110E-02 0.12683381E+03</pdfrwt>
<totfact> 0.15238867E+05</totfact>
</mgrwt>
</event>
<event>
 6    2  0.1674964E-002  0.1766306E+03  0.7546771E-02  0.1171104E+00
         21   -1    0    0  502  503  0.00000000000E+00  0.00000000000E+00  0.15210047971E+02  0.15210047971E+02  0.00000000000E+00 0. -1.
          1   -1    0    0  503    0 -0.00000000000E+00 -0.00000000000E+00 -0.17225677287E+04  0.17225677287E+04  0.00000000000E+00 0. -1.
         25    2    1    2    0    0  0.49496164879E+02 -0.11454887896E+03 -0.12938859888E+04  0.13058864060E+04  0.12500814943E+03 0.  0.
          5    1    3    3  501    0  0.87198204285E+02 -0.10423671168E+03 -0.92391339320E+03  0.93385479976E+03  0.10000000000E+00 0. -1.
         -5    1    3    3    0  501 -0.37702039406E+02 -0.10312167279E+02 -0.36997259561E+03  0.37203160628E+03  0.10000000000E+00 0. -1.
          1    1    1    2  502    0 -0.49496164879E+02  0.11454887896E+03 -0.41347169190E+03  0.43189137062E+03  0.00000000000E+00 0. -1.
<mgrwt>
<rscale>  1 0.17663056E+03</rscale>
<asrwt>0</asrwt>
<pdfrwt beam="1">  1       21 0.23400088E-02 0.17663056E+03</pdfrwt>
<pdfrwt beam="2">  1        1 0.26501026E+00 0.17663056E+03</pdfrwt>
<totfact> 0.55629319E+04</totfact>
</mgrwt>
</event>
<event>
 6    2  0.1674964E-002  0.1663781E+03  0.7546771E-02  0.1181678E+00
         21   -1    0    0  502  503  0.00000000000E+00  0.00000000000E+00  0.24698207041E+02  0.24698207041E+02  0.00000000000E+00 0. -1.
          1   -1    0    0  503    0 -0.00000000000E+00 -0.00000000000E+00 -0.85822291242E+03  0.85822291242E+03  0.00000000000E+00 0. -1.
         25    2    1    2    0    0  0.19642466386E+02 -0.10803636697E+03 -0.35638385393E+03  0.39330793010E+03  0.12499597379E+03 0.  0.
          5    1    3    3  501    0 -0.32301698886E+02 -0.10158108089E+03 -0.17871972497E+03  0.20809340653E+03  0.10000000000E+00 0.  1.
         -5    1    3    3    0  501  0.51944165272E+02 -0.64552860846E+01 -0.17766412895E+03  0.18521452357E+03  0.10000000000E+00 0.  1.
          1    1    1    2  502    0 -0.19642466386E+02  0.10803636697E+03 -0.47714085145E+03  0.48961318937E+03  0.00000000000E+00 0. -1.
<mgrwt>
<rscale>  1 0.16637811E+03</rscale>
<asrwt>0</asrwt>
<pdfrwt beam="1">  1       21 0.37997240E-02 0.16637811E+03</pdfrwt>
<pdfrwt beam="2">  1        1 0.13203430E+00 0.16637811E+03</pdfrwt>
<totfact> 0.98569612E+04</totfact>
</mgrwt>
</event>
<event>
 6    2  0.1674964E-002  0.1302151E+03  0.7546771E-02  0.1227137E+00
         21   -1    0    0  502  503  0.00000000000E+00  0.00000000000E+00  0.88429258232E+02  0.88429258232E+02  0.00000000000E+00 0. -1.
          3   -1    0    0  503    0 -0.00000000000E+00 -0.00000000000E+00 -0.10665393134E+03  0.10665393134E+03  0.00000000000E+00 0. -1.
         25    2    1    2    0    0 -0.36230643066E+02 -0.46094038197E+01  0.30936874696E+02  0.13383970924E+03  0.12498828526E+03 0.  0.
          5    1    3    3  501    0 -0.18217370979E+02 -0.57702930511E+02  0.45739297463E+02  0.75852449712E+02  0.10000000000E+00 0. -1.
         -5    1    3    3    0  501 -0.18013272087E+02  0.53093526691E+02 -0.14802422767E+02  0.57987259528E+02  0.10000000000E+00 0. -1.
          3    1    1    2  502    0  0.36230643066E+02  0.46094038197E+01 -0.49161547803E+02  0.61243480330E+02  0.00000000000E+00 0. -1.
<mgrwt>
<rscale>  1 0.13021512E+03</rscale>
<asrwt>0</asrwt>
<pdfrwt beam="1">  1       21 0.13604501E-01 0.13021512E+03</pdfrwt>
<pdfrwt beam="2">  1        3 0.16408297E-01 0.13021512E+03</pdfrwt>
<totfact> 0.70704236E+04</totfact>
</mgrwt>
</event>
<event>
 6    2  0.1674964E-002  0.1259264E+03  0.7546771E-02  0.1233629E+00
          2   -1    0    0  503    0 -0.00000000000E+00  0.00000000000E+00  0.15309107580E+04  0.15309107580E+04  0.00000000000E+00 0.  1.
         21   -1    0    0  502  503  0.00000000000E+00 -0.00000000000E+00 -0.57350504236E+01  0.57350504236E+01  0.00000000000E+00 0.  1.
         25    2    1    2    0    0  0.13522768391E+02 -0.68628714598E+01  0.69402445811E+03  0.70535622967E+03  0.12500999159E+03 0.  0.
          5    1    3    3  501    0  0.18754616473E+02  0.25018046557E+02  0.41142814261E+02  0.51675714392E+02  0.10000000000E+00 0.  1.
         -5    1    3    3    0  501 -0.52318480820E+01 -0.31880918017E+02  0.65288164385E+03  0.65368051527E+03  0.10000000000E+00 0.  1.
          2    1    1    2  502    0 -0.13522768391E+02  0.68628714598E+01  0.83115124950E+03  0.83128957880E+03  0.00000000000E+00 0.  1.
<mgrwt>
<rscale>  1 0.12592642E+03</rscale>
<asrwt>0</asrwt>
<pdfrwt beam="1">  1       21 0.88231667E-03 0.12592642E+03</pdfrwt>
<pdfrwt beam="2">  1        2 0.23552441E+00 0.12592642E+03</pdfrwt>
<totfact> 0.76215944E+05</totfact>
</mgrwt>
</event>
<event>
 6    2  0.1674964E-002  0.1875676E+03  0.7546771E-02  0.1160674E+00
          2   -1    0    0  503    0 -0.00000000000E+00  0.00000000000E+00  0.10881317826E+04  0.10881317826E+04  0.00000000000E+00 0. -1.
         21   -1    0    0  502  503  0.00000000000E+00 -0.00000000000E+00 -0.37099597470E+03  0.37099597470E+03  0.00000000000E+00 0.  1.
         25    2    1    2    0    0  0.18502949846E+02  0.13861896846E+03 -0.34239638819E+03  0.39040606662E+03  0.12499613051E+03 0.  0.
          5    1    3    3  501    0  0.32549961539E+02  0.15873898621E+03 -0.30964356648E+03  0.34948063466E+03  0.10000000000E+00 0.  1.
         -5    1    3    3    0  501 -0.14047011693E+02 -0.20120017747E+02 -0.32752821706E+02  0.40925431963E+02  0.10000000000E+00 0.  1.
          2    1    1    2  502    0 -0.18502949846E+02 -0.13861896846E+03  0.10595321961E+04  0.10687216906E+04  0.00000000000E+00 0. -1.
<mgrwt>
<rscale>  1 0.18756762E+03</rscale>
<asrwt>0</asrwt>
<pdfrwt beam="1">  1       21 0.57076304E-01 0.18756762E+03</pdfrwt>
<pdfrwt beam="2">  1        2 0.16740489E+00 0.18756762E+03</pdfrwt>
<totfact> 0.85608380E+02</totfact>
</mgrwt>
</event>
<event>
 6    2  0.1674964E-002  0.1357052E+03  0.7546771E-02  0.1219228E+00
         21   -1    0    0  502  503  0.00000000000E+00  0.00000000000E+00  0.83402084106E+01  0.83402084106E+01  0.00000000000E+00 0.  1.
          2   -1    0    0  503    0 -0.00000000000E+00 -0.00000000000E+00 -0.12385858158E+04  0.12385858158E+04  0.00000000000E+00 0.  1.
         25    2    1    2    0    0  0.49306055129E+02 -0.18894342291E+02 -0.63476729848E+03  0.64911125389E+03  0.12501125330E+03 0.  0.
          5    1    3    3  501    0  0.37672483812E+01 -0.60174487138E+02 -0.17160744525E+03  0.18189086378E+03  0.10000000000E+00 0.  1.
         -5    1    3    3    0  501  0.45538806748E+02  0.41280144847E+02 -0.46315985323E+03  0.46722039010E+03  0.10000000000E+00 0.  1.
          2    1    1    2  502    0 -0.49306055129E+02  0.18894342291E+02 -0.59547830894E+03  0.59781477036E+03  0.00000000000E+00 0.  1.
<mgrwt>
<rscale>  1 0.13570518E+03</rscale>
<asrwt>0</asrwt>
<pdfrwt beam="1">  1       21 0.12831089E-02 0.13570518E+03</pdfrwt>
<pdfrwt beam="2">  1        2 0.19055167E+00 0.13570518E+03</pdfrwt>
<totfact> 0.60473394E+05</totfact>
</mgrwt>
</event>
<event>
 6    2  0.1674964E-002  0.1259182E+03  0.7546771E-02  0.1233641E+00
         21   -1    0    0  502  503  0.00000000000E+00  0.00000000000E+00  0.61000244620E+02  0.61000244620E+02  0.00000000000E+00 0. -1.
          2   -1    0    0  503    0 -0.00000000000E+00 -0.00000000000E+00 -0.11611807079E+03  0.11611807079E+03  0.00000000000E+00 0. -1.
         25    2    1    2    0    0  0.10963171289E+02  0.10546402756E+02 -0.64001212098E+01  0.12608075559E+03  0.12499591051E+03 0.  0.
          5    1    3    3  501    0 -0.16520858195E+02  0.33252490234E+01  0.55482433946E+02  0.57985399137E+02  0.10000000000E+00 0. -1.
         -5    1    3    3    0  501  0.27484029485E+02  0.72211537322E+01 -0.61882555155E+02  0.68095356453E+02  0.10000000000E+00 0. -1.
          2    1    1    2  502    0 -0.10963171289E+02 -0.10546402756E+02 -0.48717704961E+02  0.51037559821E+02  0.00000000000E+00 0. -1.
<mgrwt>
<rscale>  1 0.12591821E+03</rscale>
<asrwt>0</asrwt>
<pdfrwt beam="1">  1       21 0.93846531E-02 0.12591821E+03</pdfrwt>
<pdfrwt beam="2">  1        2 0.17864319E-01 0.12591821E+03</pdfrwt>
<totfact> 0.34210145E+05</totfact>
</mgrwt>
</event>
<event>
 6    2  0.1674964E-002  0.1273439E+03  0.7546771E-02  0.1231451E+00
         21   -1    0    0  502  503  0.00000000000E+00  0.00000000000E+00  0.34199245664E+03  0.34199245664E+03  0.00000000000E+00 0. -1.
          4   -1    0    0  503    0 -0.00000000000E+00 -0.00000000000E+00 -0.13656401513E+03  0.13656401513E+03  0.00000000000E+00 0. -1.
         25    2    1    2    0    0 -0.15172222727E+02 -0.18998899925E+02  0.32891135628E+03  0.35270264871E+03  0.12500129429E+03 0.  0.
          5    1    3    3  501    0 -0.47381871032E+02  0.24213845317E+02  0.25909882944E+03  0.26450626726E+03  0.10000000000E+00 0.  1.
         -5    1    3    3    0  501  0.32209648305E+02 -0.43212745242E+02  0.69812526842E+02  0.88196381441E+02  0.10000000000E+00 0.  1.
          4    1    1    2  502    0  0.15172222727E+02  0.18998899925E+02 -0.12348291477E+03  0.12585382307E+03  0.00000000000E+00 0. -1.
<mgrwt>
<rscale>  1 0.12734394E+03</rscale>
<asrwt>0</asrwt>
<pdfrwt beam="1">  1       21 0.52614224E-01 0.12734394E+03</pdfrwt>
<pdfrwt beam="2">  1        4 0.21009849E-01 0.12734394E+03</pdfrwt>
<totfact> 0.29250593E+03</totfact>
</mgrwt>
</event>
<event>
 6    2  0.1674964E-002  0.1376970E+03  0.7546771E-02  0.1216462E+00
          2   -1    0    0  503    0 -0.00000000000E+00  0.00000000000E+00  0.70905247035E+03  0.70905247035E+03  0.00000000000E+00 0. -1.
         21   -1    0    0  502  503  0.00000000000E+00 -0.00000000000E+00 -0.10317047456E+03  0.10317047456E+03  0.00000000000E+00 0.  1.
         25    2    1    2    0    0  0.51568366589E+02 -0.26076607112E+02 -0.55397911349E+02  0.14842297394E+03  0.12498465802E+03 0.  0.
          5    1    3    3  501    0 -0.20052858023E+02 -0.42831087425E+02  0.11855999448E+02  0.48756475342E+02  0.10000000000E+00 0. -1.
         -5    1    3    3    0  501  0.71621224612E+02  0.16754480313E+02 -0.67253910797E+02  0.99666498599E+02  0.10000000000E+00 0. -1.
          2    1    1    2  502    0 -0.51568366589E+02  0.26076607112E+02  0.66127990714E+03  0.66379997097E+03  0.00000000000E+00 0. -1.
<mgrwt>
<rscale>  1 0.13769695E+03</rscale>
<asrwt>0</asrwt>
<pdfrwt beam="1">  1       21 0.15872381E-01 0.13769695E+03</pdfrwt>
<pdfrwt beam="2">  1        2 0.10908499E+00 0.13769695E+03</pdfrwt>
<totfact> 0.18614851E+04</totfact>
</mgrwt>
</event>
<event>
 6    2  0.1674964E-002  0.1803202E+03  0.7546771E-02  0.1167493E+00
         21   -1    0    0  502  503  0.00000000000E+00  0.00000000000E+00  0.12665844339E+03  0.12665844339E+03  0.00000000000E+00 0.  1.
          1   -1    0    0  503    0 -0.00000000000E+00 -0.00000000000E+00 -0.26389625179E+03  0.26389625179E+03  0.00000000000E+00 0.  1.
         25    2    1    2    0    0  0.12925183834E+03 -0.13526202946E+02  0.25694638348E+02  0.18214169634E+03  0.12500554877E+03 0.  0.
          5    1    3    3  501    0  0.12459304043E+03 -0.51471421060E+02 -0.21873389949E+01  0.13482406077E+03  0.10000000000E+00 0.  1.
         -5    1    3    3    0  501  0.46587979146E+01  0.37945218114E+02  0.27881977343E+02  0.47317635573E+02  0.10000000000E+00 0.  1.
          1    1    1    2  502    0 -0.12925183834E+03  0.13526202946E+02 -0.16293244675E+03  0.20841299884E+03  0.00000000000E+00 0.  1.
<mgrwt>
<rscale>  1 0.18032022E+03</rscale>
<asrwt>0</asrwt>
<pdfrwt beam="1">  1       21 0.19485914E-01 0.18032022E+03</pdfrwt>
<pdfrwt beam="2">  1        1 0.40599423E-01 0.18032022E+03</pdfrwt>
<totfact> 0.27264569E+04</totfact>
</mgrwt>
</event>
<event>
 6    2  0.1674964E-002  0.1262016E+03  0.7546771E-02  0.1233203E+00
         21   -1    0    0  502  503  0.00000000000E+00  0.00000000000E+00  0.10846541640E+03  0.10846541640E+03  0.00000000000E+00 0.  1.
          1   -1    0    0  503    0 -0.00000000000E+00 -0.00000000000E+00 -0.33138687059E+03  0.33138687059E+03  0.00000000000E+00 0.  1.
         25    2    1    2    0    0 -0.72657499169E+01 -0.15678611982E+02  0.71416570749E+02  0.14500744148E+03  0.12501288538E+03 0.  0.
          5    1    3    3  501    0 -0.17912960699E+02 -0.28441323879E+02 -0.28285031756E+02  0.43929899686E+02  0.10000000000E+00 0.  1.
         -5    1    3    3    0  501  0.10647210782E+02  0.12762711897E+02  0.99701602505E+02  0.10107754179E+03  0.10000000000E+00 0.  1.
          1    1    1    2  502    0  0.72657499169E+01  0.15678611982E+02 -0.29433802494E+03  0.29484484551E+03  0.00000000000E+00 0.  1.
<mgrwt>
<rscale>  1 0.12620155E+03</rscale>
<asrwt>0</asrwt>
<pdfrwt beam="1">  1       21 0.16686987E-01 0.12620155E+03</pdfrwt>
<pdfrwt beam="2">  1        1 0.50982595E-01 0.12620155E+03</pdfrwt>
<totfact> 0.27368227E+04</totfact>
</mgrwt>
</event>
<event>
 6    2  0.1674964E-002  0.1269093E+03  0.7546771E-02  0.1232115E+00
         21   -1    0    0  502  503  0.00000000000E+00  0.00000000000E+00  0.26976258095E+02  0.26976258095E+02  0.00000000000E+00 0.  1.
          2   -1    0    0  503    0 -0.00000000000E+00 -0.00000000000E+00 -0.85047540290E+03  0.85047540290E+03  0.00000000000E+00 0. -1.
         25    2    1    2    0    0 -0.18864821496E+02  0.11235598273E+02 -0.12341490124E+03  0.17702317196E+03  0.12499538154E+03 0.  0.
          5    1    3    3  501    0  0.43932106090E+02 -0.57685101494E+01 -0.97309320855E+02  0.10692249333E+03  0.10000000000E+00 0.  1.
         -5    1    3    3    0  501 -0.62796927586E+02  0.17004108422E+02 -0.26105580383E+02  0.70100678631E+02  0.10000000000E+00 0.  1.
          2    1    1    2  502    0  0.18864821496E+02 -0.11235598273E+02 -0.70008424356E+03  0.70042848903E+03  0.00000000000E+00 0. -1.
<mgrwt>
<rscale>  1 0.12690928E+03</rscale>
<asrwt>0</asrwt>
<pdfrwt beam="1">  1       21 0.41501944E-02 0.12690928E+03</pdfrwt>
<pdfrwt beam="2">  1        2 0.13084234E+00 0.12690928E+03</pdfrwt>
<totfact> 0.15170886E+05</totfact>
</mgrwt>
</event>
<event>
 6    2  0.1674964E-002  0.1263349E+03  0.7546771E-02  0.1232998E+00
          1   -1    0    0  503    0 -0.00000000000E+00  0.00000000000E+00  0.13476680274E+04  0.13476680274E+04  0.00000000000E+00 0.  1.
         21   -1    0    0  502  503  0.00000000000E+00 -0.00000000000E+00 -0.31465120085E+02  0.31465120085E+02  0.00000000000E+00 0. -1.
         25    2    1    2    0    0  0.41865862695E+01 -0.17727121259E+02  0.95688440685E+02  0.15848277101E+03  0.12501492988E+03 0.  0.
          5    1    3    3  501    0 -0.30757057540E+02 -0.48782917225E+02  0.95700094986E+02  0.11173310960E+03  0.10000000000E+00 0.  1.
         -5    1    3    3    0  501  0.34943643810E+02  0.31055795966E+02 -0.11654301295E-01  0.46749661406E+02  0.10000000000E+00 0.  1.
          1    1    1    2  502    0 -0.41865862695E+01  0.17727121259E+02  0.12205144666E+04  0.12206503765E+04  0.00000000000E+00 0.  1.
<mgrwt>
<rscale>  1 0.12633492E+03</rscale>
<asrwt>0</asrwt>
<pdfrwt beam="1">  1       21 0.48407888E-02 0.12633492E+03</pdfrwt>
<pdfrwt beam="2">  1        1 0.20733350E+00 0.12633492E+03</pdfrwt>
<totfact> 0.29519551E+04</totfact>
</mgrwt>
</event>
<event>
 6    2  0.1674964E-002  0.1259180E+03  0.7546771E-02  0.1233641E+00
          2   -1    0    0  503    0 -0.00000000000E+00  0.00000000000E+00  0.39899641492E+03  0.39899641492E+03  0.00000000000E+00 0.  1.
         21   -1    0    0  502  503  0.00000000000E+00 -0.00000000000E+00 -0.20895824283E+02  0.20895824283E+02  0.00000000000E+00 0.  1.
         25    2    1    2    0    0 -0.11649811497E+02  0.96899576157E+01  0.17163156334E+03  0.21286791064E+03  0.12500296179E+03 0.  0.
          5    1    3    3  501    0  0.56703477947E+02  0.52971596957E+01  0.68797968760E+02  0.89311336446E+02  0.10000000000E+00 0.  1.
         -5    1    3    3    0  501 -0.68353289444E+02  0.43927979200E+01  0.10283359458E+03  0.12355657419E+03  0.10000000000E+00 0.  1.
          2    1    1    2  502    0  0.11649811497E+02 -0.96899576157E+01  0.20646902729E+03  0.20702432856E+03  0.00000000000E+00 0.  1.
<mgrwt>
<rscale>  1 0.12591804E+03</rscale>
<asrwt>0</asrwt>
<pdfrwt beam="1">  1       21 0.32147425E-02 0.12591804E+03</pdfrwt>
<pdfrwt beam="2">  1        2 0.61384058E-01 0.12591804E+03</pdfrwt>
<totfact> 0.54850657E+05</totfact>
</mgrwt>
</event>
<event>
 6    2  0.1674964E-002  0.1282050E+03  0.7546771E-02  0.1230144E+00
          2   -1    0    0  503    0 -0.00000000000E+00  0.00000000000E+00  0.16032800321E+03  0.16032800321E+03  0.00000000000E+00 0. -1.
         21   -1    0    0  502  503  0.00000000000E+00 -0.00000000000E+00 -0.59207587879E+02  0.59207587879E+02  0.00000000000E+00 0. -1.
         25    2    1    2    0    0 -0.85150657031E+00 -0.28445953197E+02  0.15294087919E+02  0.12911404612E+03  0.12500652169E+03 0.  0.
          5    1    3    3  501    0  0.38676192888E+01 -0.68150586398E+02 -0.24670489956E+02  0.72581705546E+02  0.10000000000E+00 0.  1.
         -5    1    3    3    0  501 -0.47191258591E+01  0.39704633201E+02  0.39964577875E+02  0.56532340578E+02  0.10000000000E+00 0.  1.
          2    1    1    2  502    0  0.85150657031E+00  0.28445953197E+02  0.85826327417E+02  0.90421544969E+02  0.00000000000E+00 0. -1.
<mgrwt>
<rscale>  1 0.12820502E+03</rscale>
<asrwt>0</asrwt>
<pdfrwt beam="1">  1       21 0.91088597E-02 0.12820502E+03</pdfrwt>
<pdfrwt beam="2">  1        2 0.24665846E-01 0.12820502E+03</pdfrwt>
<totfact> 0.25115229E+05</totfact>
</mgrwt>
</event>
<event>
 6    2  0.1674964E-002  0.1293686E+03  0.7546771E-02  0.1228396E+00
          2   -1    0    0  503    0 -0.00000000000E+00  0.00000000000E+00  0.10892603443E+04  0.10892603443E+04  0.00000000000E+00 0.  1.
         21   -1    0    0  502  503  0.00000000000E+00 -0.00000000000E+00 -0.26169017269E+02  0.26169017269E+02  0.00000000000E+00 0.  1.
         25    2    1    2    0    0  0.27243567161E+02 -0.19354937908E+02  0.13587857509E+03  0.18761455627E+03  0.12497763393E+03 0.  0.
          5    1    3    3  501    0 -0.13774282345E+02 -0.64185702722E+02  0.90374118720E+02  0.11170061156E+03  0.10000000000E+00 0.  1.
         -5    1    3    3    0  501  0.41017849506E+02  0.44830764813E+02  0.45504456368E+02  0.75913944708E+02  0.10000000000E+00 0.  1.
          2    1    1    2  502    0 -0.27243567161E+02  0.19354937908E+02  0.92721275195E+03  0.92781480531E+03  0.00000000000E+00 0.  1.
<mgrwt>
<rscale>  1 0.12936860E+03</rscale>
<asrwt>0</asrwt>
<pdfrwt beam="1">  1       21 0.40260035E-02 0.12936860E+03</pdfrwt>
<pdfrwt beam="2">  1        2 0.16757848E+00 0.12936860E+03</pdfrwt>
<totfact> 0.11433678E+05</totfact>
</mgrwt>
</event>
<event>
 6    2  0.1674964E-002  0.2096761E+03  0.7546771E-02  0.1141823E+00
         21   -1    0    0  502  503  0.00000000000E+00  0.00000000000E+00  0.33000849372E+02  0.33000849372E+02  0.00000000000E+00 0.  1.
          2   -1    0    0  503    0 -0.00000000000E+00 -0.00000000000E+00 -0.10860011481E+04  0.10860011481E+04  0.00000000000E+00 0.  1.
         25    2    1    2    0    0  0.16668139436E+03  0.23486585798E+02 -0.55210049856E+03  0.59057516551E+03  0.12501903320E+03 0.  0.
          5    1    3    3  501    0  0.13124859807E+03 -0.31457617433E+02 -0.28141375302E+03  0.31210492880E+03  0.10000000000E+00 0. -1.
         -5    1    3    3    0  501  0.35432796292E+02  0.54944203230E+02 -0.27068674554E+03  0.27847023671E+03  0.10000000000E+00 0. -1.
          2    1    1    2  502    0 -0.16668139436E+03 -0.23486585798E+02 -0.50089980022E+03  0.52842683202E+03  0.00000000000E+00 0.  1.
<mgrwt>
<rscale>  1 0.20967610E+03</rscale>
<asrwt>0</asrwt>
<pdfrwt beam="1">  1       21 0.50770533E-02 0.20967610E+03</pdfrwt>
<pdfrwt beam="2">  1        2 0.16707712E+00 0.20967610E+03</pdfrwt>
<totfact> 0.77673193E+04</totfact>
</mgrwt>
</event>
<event>
 6    2  0.1674964E-002  0.1907184E+03  0.7546771E-02  0.1157815E+00
          1   -1    0    0  503    0 -0.00000000000E+00  0.00000000000E+00  0.40709796581E+03  0.40709796581E+03  0.00000000000E+00 0.  1.
         21   -1    0    0  502  503  0.00000000000E+00 -0.00000000000E+00 -0.23455985492E+03  0.23455985492E+03  0.00000000000E+00 0. -1.
         25    2    1    2    0    0  0.13777403615E+03  0.42022890419E+02 -0.17911966247E+03  0.26164361321E+03  0.12500367392E+03 0.  0.
          5    1    3    3  501    0  0.34427105946E+02 -0.16561192522E+02 -0.12572074955E+03  0.13139716735E+03  0.10000000000E+00 0.  1.
         -5    1    3    3    0  501  0.10334693021E+03  0.58584082941E+02 -0.53398912922E+02  0.13024644586E+03  0.10000000000E+00 0.  1.
          1    1    1    2  502    0 -0.13777403615E+03 -0.42022890419E+02  0.35165777336E+03  0.38001420752E+03  0.00000000000E+00 0.  1.
<mgrwt>
<rscale>  1 0.19071845E+03</rscale>
<asrwt>0</asrwt>
<pdfrwt beam="1">  1       21 0.36086132E-01 0.19071845E+03</pdfrwt>
<pdfrwt beam="2">  1        1 0.62630456E-01 0.19071845E+03</pdfrwt>
<totfact> 0.48279669E+03</totfact>
</mgrwt>
</event>
<event>
 6    2  0.1674964E-002  0.1431988E+03  0.7546771E-02  0.1209088E+00
          2   -1    0    0  503    0 -0.00000000000E+00  0.00000000000E+00  0.28204494215E+04  0.28204494215E+04  0.00000000000E+00 0.  1.
         21   -1    0    0  502  503  0.00000000000E+00 -0.00000000000E+00 -0.75849001241E+01  0.75849001241E+01  0.00000000000E+00 0.  1.
         25    2    1    2    0    0 -0.27744343561E+02  0.64124162873E+02  0.72530614738E+03  0.73930704844E+03  0.12499699035E+03 0.  0.
          5    1    3    3  501    0 -0.58983904078E+02 -0.12634165548E+02  0.30858503808E+03  0.31442560138E+03  0.10000000000E+00 0. -1.
         -5    1    3    3    0  501  0.31239560517E+02  0.76758328421E+02  0.41672110930E+03  0.42488144706E+03  0.10000000000E+00 0. -1.
          2    1    1    2  502    0  0.27744343561E+02 -0.64124162873E+02  0.20875583740E+04  0.20887272732E+04  0.00000000000E+00 0.  1.
<mgrwt>
<rscale>  1 0.14319883E+03</rscale>
<asrwt>0</asrwt>
<pdfrwt beam="1">  1       21 0.11669100E-02 0.14319883E+03</pdfrwt>
<pdfrwt beam="2">  1        2 0.43391446E+00 0.14319883E+03</pdfrwt>
<totfact> 0.10354429E+05</totfact>
</mgrwt>
</event>
<event>
 6    2  0.1674964E-002  0.1345231E+03  0.7546771E-02  0.1220894E+00
          2   -1    0    0  503    0 -0.00000000000E+00  0.00000000000E+00  0.10572305877E+04  0.10572305877E+04  0.00000000000E+00 0. -1.
         21   -1    0    0  502  503  0.00000000000E+00 -0.00000000000E+00 -0.16989279358E+02  0.16989279358E+02  0.00000000000E+00 0. -1.
         25    2    1    2    0    0  0.34319022391E+02  0.35957880967E+02  0.26315389760E+03  0.29554431945E+03  0.12500282572E+03 0.  0.
          5    1    3    3  501    0  0.10702895083E+02 -0.42485975830E+02  0.14712032174E+03  0.15350573010E+03  0.10000000000E+00 0. -1.
         -5    1    3    3    0  501  0.23616127308E+02  0.78443856797E+02  0.11603357586E+03  0.14203858935E+03  0.10000000000E+00 0. -1.
          2    1    1    2  502    0 -0.34319022391E+02 -0.35957880967E+02  0.77708741076E+03  0.77867554763E+03  0.00000000000E+00 0. -1.
<mgrwt>
<rscale>  1 0.13452312E+03</rscale>
<asrwt>0</asrwt>
<pdfrwt beam="1">  1       21 0.26137361E-02 0.13452312E+03</pdfrwt>
<pdfrwt beam="2">  1        2 0.16265081E+00 0.13452312E+03</pdfrwt>
<totfact> 0.24319822E+05</totfact>
</mgrwt>
</event>
<event>
 6    2  0.1674964E-002  0.1363533E+03  0.7546771E-02  0.1218322E+00
          4   -1    0    0  503    0 -0.00000000000E+00  0.00000000000E+00  0.17651498507E+03  0.17651498507E+03  0.00000000000E+00 0. -1.
         21   -1    0    0  502  503  0.00000000000E+00 -0.00000000000E+00 -0.18439248144E+03  0.18439248144E+03  0.00000000000E+00 0.  1.
         25    2    1    2    0    0 -0.40728436281E+02 -0.36179862336E+02 -0.15356707750E+03  0.20536569718E+03  0.12499773728E+03 0.  0.
          5    1    3    3  501    0 -0.13161890672E+02  0.43598681553E+02 -0.85735008824E+02  0.97080287068E+02  0.10000000000E+00 0.  1.
         -5    1    3    3    0  501 -0.27566545610E+02 -0.79778543889E+02 -0.67832068675E+02  0.10828541011E+03  0.10000000000E+00 0.  1.
          4    1    1    2  502    0  0.40728436281E+02  0.36179862336E+02  0.14568958113E+03  0.15554176934E+03  0.00000000000E+00 0. -1.
<mgrwt>
<rscale>  1 0.13635330E+03</rscale>
<asrwt>0</asrwt>
<pdfrwt beam="1">  1       21 0.28368074E-01 0.13635330E+03</pdfrwt>
<pdfrwt beam="2">  1        4 0.27156151E-01 0.13635330E+03</pdfrwt>
<totfact> 0.62833460E+03</totfact>
</mgrwt>
</event>
<event>
 6    2  0.1674964E-002  0.1323043E+03  0.7546771E-02  0.1224076E+00
          1   -1    0    0  503    0 -0.00000000000E+00  0.00000000000E+00  0.91748197409E+02  0.91748197409E+02  0.00000000000E+00 0.  1.
         21   -1    0    0  502  503  0.00000000000E+00 -0.00000000000E+00 -0.84530053263E+02  0.84530053263E+02  0.00000000000E+00 0.  1.
         25    2    1    2    0    0  0.42180723492E+02 -0.95993306093E+01 -0.66843893277E+00  0.13230600061E+03  0.12503227746E+03 0.  0.
          5    1    3    3  501    0  0.80926277499E+02 -0.18903504018E+02  0.22651542126E+02  0.86136561429E+02  0.10000000000E+00 0.  1.
         -5    1    3    3    0  501 -0.38745554008E+02  0.93041734090E+01 -0.23319981059E+02  0.46169439186E+02  0.10000000000E+00 0.  1.
          1    1    1    2  502    0 -0.42180723492E+02  0.95993306093E+01  0.78865830789E+01  0.43972250057E+02  0.00000000000E+00 0.  1.
<mgrwt>
<rscale>  1 0.13230431E+03</rscale>
<asrwt>0</asrwt>
<pdfrwt beam="1">  1       21 0.13004624E-01 0.13230431E+03</pdfrwt>
<pdfrwt beam="2">  1        1 0.14115107E-01 0.13230431E+03</pdfrwt>
<totfact> 0.21518458E+05</totfact>
</mgrwt>
</event>
<event>
 6    2  0.1674964E-002  0.1281072E+03  0.7546771E-02  0.1230292E+00
          1   -1    0    0  503    0 -0.00000000000E+00  0.00000000000E+00  0.19015538108E+04  0.19015538108E+04  0.00000000000E+00 0.  1.
         21   -1    0    0  502  503  0.00000000000E+00 -0.00000000000E+00 -0.85427493648E+02  0.85427493648E+02  0.00000000000E+00 0. -1.
         25    2    1    2    0    0  0.10020182886E+02  0.26201353318E+02 -0.37234142708E+02  0.13340856265E+03  0.12499819288E+03 0.  0.
          5    1    3    3  501    0  0.45445474354E+01  0.20368918654E+02 -0.83698106386E+02  0.86260818285E+02  0.10000000000E+00 0. -1.
         -5    1    3    3    0  501  0.54756354504E+01  0.58324346637E+01  0.46463963678E+02  0.47147744361E+02  0.10000000000E+00 0. -1.
          1    1    1    2  502    0 -0.10020182886E+02 -0.26201353318E+02  0.18533604598E+04  0.18535727418E+04  0.00000000000E+00 0.  1.
<mgrwt>
<rscale>  1 0.12810723E+03</rscale>
<asrwt>0</asrwt>
<pdfrwt beam="1">  1       21 0.13142693E-01 0.12810723E+03</pdfrwt>
<pdfrwt beam="2">  1        1 0.29254671E+00 0.12810723E+03</pdfrwt>
<totfact> 0.23210069E+03</totfact>
</mgrwt>
</event>
<event>
 6    2  0.1674964E-002  0.1392944E+03  0.7546771E-02  0.1214282E+00
         21   -1    0    0  502  503  0.00000000000E+00  0.00000000000E+00  0.10077014160E+03  0.10077014160E+03  0.00000000000E+00 0. -1.
          2   -1    0    0  503    0 -0.00000000000E+00 -0.00000000000E+00 -0.47871124829E+03  0.47871124829E+03  0.00000000000E+00 0.  1.
         25    2    1    2    0    0  0.38159964035E+02 -0.48187816340E+02  0.49360333928E+02  0.14778152928E+03  0.12499875733E+03 0.  0.
          5    1    3    3  501    0  0.43946198576E+02  0.20832350354E+02  0.60505210173E+02  0.77628252902E+02  0.10000000000E+00 0.  1.
         -5    1    3    3    0  501 -0.57862345407E+01 -0.69020166694E+02 -0.11144876245E+02  0.70153276382E+02  0.10000000000E+00 0.  1.
          2    1    1    2  502    0 -0.38159964035E+02  0.48187816340E+02 -0.42730144061E+03  0.43169986061E+03  0.00000000000E+00 0.  1.
<mgrwt>
<rscale>  1 0.13929443E+03</rscale>
<asrwt>0</asrwt>
<pdfrwt beam="1">  1       21 0.15503099E-01 0.13929443E+03</pdfrwt>
<pdfrwt beam="2">  1        2 0.73647884E-01 0.13929443E+03</pdfrwt>
<totfact> 0.30333922E+04</totfact>
</mgrwt>
</event>
<event>
 6    2  0.1674964E-002  0.1887739E+03  0.7546771E-02  0.1159572E+00
          2   -1    0    0  503    0 -0.00000000000E+00  0.00000000000E+00  0.95167799285E+03  0.95167799285E+03  0.00000000000E+00 0. -1.
         21   -1    0    0  502  503  0.00000000000E+00 -0.00000000000E+00 -0.85234380656E+02  0.85234380656E+02  0.00000000000E+00 0. -1.
         25    2    1    2    0    0 -0.14143218052E+03 -0.31156415398E+01  0.33108980535E+02  0.19165538464E+03  0.12499125153E+03 0.  0.
          5    1    3    3  501    0 -0.53377393977E+02 -0.28013853553E+02 -0.41834073711E+02  0.73375894556E+02  0.10000000000E+00 0.  1.
         -5    1    3    3    0  501 -0.88054786540E+02  0.24898212014E+02  0.74943054245E+02  0.11827949008E+03  0.10000000000E+00 0.  1.
          2    1    1    2  502    0  0.14143218052E+03  0.31156415398E+01  0.83333463166E+03  0.84525698887E+03  0.00000000000E+00 0. -1.
<mgrwt>
<rscale>  1 0.18877389E+03</rscale>
<asrwt>0</asrwt>
<pdfrwt beam="1">  1       21 0.13112982E-01 0.18877389E+03</pdfrwt>
<pdfrwt beam="2">  1        2 0.14641199E+00 0.18877389E+03</pdfrwt>
<totfact> 0.17906418E+04</totfact>
</mgrwt>
</event>
<event>
 6    2  0.1674964E-002  0.1291735E+03  0.7546771E-02  0.1228687E+00
         21   -1    0    0  502  503  0.00000000000E+00  0.00000000000E+00  0.39952507063E+02  0.39952507063E+02  0.00000000000E+00 0.  1.
          2   -1    0    0  503    0 -0.00000000000E+00 -0.00000000000E+00 -0.16794291113E+03  0.16794291113E+03  0.00000000000E+00 0.  1.
         25    2    1    2    0    0  0.16254550445E+02 -0.28197422826E+02 -0.87840224588E+02  0.15621039158E+03  0.12500590513E+03 0.  0.
          5    1    3    3  501    0  0.30402524703E+02  0.31912510191E+02 -0.83360151564E+02  0.94295528440E+02  0.10000000000E+00 0.  1.
         -5    1    3    3    0  501 -0.14147974258E+02 -0.60109933017E+02 -0.44800730238E+01  0.61914863137E+02  0.10000000000E+00 0.  1.
          2    1    1    2  502    0 -0.16254550445E+02  0.28197422826E+02 -0.40150179484E+02  0.51685026621E+02  0.00000000000E+00 0.  1.
<mgrwt>
<rscale>  1 0.12917345E+03</rscale>
<asrwt>0</asrwt>
<pdfrwt beam="1">  1       21 0.61465396E-02 0.12917345E+03</pdfrwt>
<pdfrwt beam="2">  1        2 0.25837371E-01 0.12917345E+03</pdfrwt>
<totfact> 0.46923611E+05</totfact>
</mgrwt>
</event>
<event>
 6    2  0.1674964E-002  0.1267285E+03  0.7546771E-02  0.1232392E+00
          2   -1    0    0  503    0 -0.00000000000E+00  0.00000000000E+00  0.22351822644E+04  0.22351822644E+04  0.00000000000E+00 0. -1.
         21   -1    0    0  502  503  0.00000000000E+00 -0.00000000000E+00 -0.41068480772E+01  0.41068480772E+01  0.00000000000E+00 0. -1.
         25    2    1    2    0    0  0.33242453609E+01  0.20599309443E+02  0.99504494722E+03  0.10030825348E+04  0.12499896985E+03 0.  0.
          5    1    3    3  501    0  0.29078317874E+02 -0.44920794490E+02  0.32846267176E+03  0.33279297332E+03  0.10000000000E+00 0.  1.
         -5    1    3    3    0  501 -0.25754072513E+02  0.65520103933E+02  0.66658227546E+03  0.67028956148E+03  0.10000000000E+00 0.  1.
          2    1    1    2  502    0 -0.33242453609E+01 -0.20599309443E+02  0.12360304691E+04  0.12362065777E+04  0.00000000000E+00 0. -1.
<mgrwt>
<rscale>  1 0.12672855E+03</rscale>
<asrwt>0</asrwt>
<pdfrwt beam="1">  1       21 0.63182457E-03 0.12672855E+03</pdfrwt>
<pdfrwt beam="2">  1        2 0.34387322E+00 0.12672855E+03</pdfrwt>
<totfact> 0.55996755E+05</totfact>
</mgrwt>
</event>
<event>
 6    2  0.1674964E-002  0.1315148E+03  0.7546771E-02  0.1225225E+00
          2   -1    0    0  503    0 -0.00000000000E+00  0.00000000000E+00  0.24554474192E+03  0.24554474192E+03  0.00000000000E+00 0. -1.
         21   -1    0    0  502  503  0.00000000000E+00 -0.00000000000E+00 -0.33546344691E+03  0.33546344691E+03  0.00000000000E+00 0.  1.
         25    2    1    2    0    0 -0.40268393537E+02  0.70488797225E+01 -0.32070795091E+03  0.34662622225E+03  0.12499967179E+03 0.  0.
          5    1    3    3  501    0  0.15268338703E+02 -0.41949827656E+02 -0.55257032460E+02  0.71037031494E+02  0.10000000000E+00 0.  1.
         -5    1    3    3    0  501 -0.55536732240E+02  0.48998707379E+02 -0.26545091845E+03  0.27558919075E+03  0.10000000000E+00 0.  1.
          2    1    1    2  502    0  0.40268393537E+02 -0.70488797225E+01  0.23078924592E+03  0.23438196658E+03  0.00000000000E+00 0. -1.
<mgrwt>
<rscale>  1 0.13151482E+03</rscale>
<asrwt>0</asrwt>
<pdfrwt beam="1">  1       21 0.51609761E-01 0.13151482E+03</pdfrwt>
<pdfrwt beam="2">  1        2 0.37776114E-01 0.13151482E+03</pdfrwt>
<totfact> 0.61041949E+03</totfact>
</mgrwt>
</event>
<event>
 6    2  0.1674964E-002  0.1296346E+03  0.7546771E-02  0.1227999E+00
          1   -1    0    0  503    0 -0.00000000000E+00  0.00000000000E+00  0.68490701549E+02  0.68490701549E+02  0.00000000000E+00 0. -1.
         21   -1    0    0  502  503  0.00000000000E+00 -0.00000000000E+00 -0.20965279695E+03  0.20965279695E+03  0.00000000000E+00 0. -1.
         25    2    1    2    0    0 -0.22462031814E+02 -0.26002104229E+02 -0.18283672089E+03  0.22413028986E+03  0.12499787210E+03 0.  0.
          5    1    3    3  501    0  0.33854677124E+02 -0.99213231712E+00 -0.29679649713E+01  0.33999151545E+02  0.10000000000E+00 0. -1.
         -5    1    3    3    0  501 -0.56316708938E+02 -0.25009971912E+02 -0.17986875592E+03  0.19013113832E+03  0.10000000000E+00 0. -1.
          1    1    1    2  502    0  0.22462031814E+02  0.26002104229E+02  0.41674625492E+02  0.54013208638E+02  0.00000000000E+00 0. -1.
<mgrwt>
<rscale>  1 0.12963456E+03</rscale>
<asrwt>0</asrwt>
<pdfrwt beam="1">  1       21 0.32254277E-01 0.12963456E+03</pdfrwt>
<pdfrwt beam="2">  1        1 0.10537031E-01 0.12963456E+03</pdfrwt>
<totfact> 0.58345034E+04</totfact>
</mgrwt>
</event>
<event>
 6    2  0.1674964E-002  0.1343483E+03  0.7546771E-02  0.1221143E+00
          1   -1    0    0  503    0 -0.00000000000E+00  0.00000000000E+00  0.79438248261E+03  0.79438248261E+03  0.00000000000E+00 0. -1.
         21   -1    0    0  502  503  0.00000000000E+00 -0.00000000000E+00 -0.14298952049E+02  0.14298952049E+02  0.00000000000E+00 0. -1.
         25    2    1    2    0    0  0.47845026795E+02 -0.11616387073E+02  0.33580075389E+03  0.36167889251E+03  0.12500155175E+03 0.  0.
          5    1    3    3  501    0 -0.16170315115E+02  0.43522247287E+02  0.16049571162E+03  0.16707647515E+03  0.10000000000E+00 0.  1.
         -5    1    3    3    0  501  0.64015341911E+02 -0.55138634360E+02  0.17530504227E+03  0.19460241736E+03  0.10000000000E+00 0.  1.
          1    1    1    2  502    0 -0.47845026795E+02  0.11616387073E+02  0.44428277668E+03  0.44700254215E+03  0.00000000000E+00 0. -1.
<mgrwt>
<rscale>  1 0.13434833E+03</rscale>
<asrwt>0</asrwt>
<pdfrwt beam="1">  1       21 0.21998394E-02 0.13434833E+03</pdfrwt>
<pdfrwt beam="2">  1        1 0.12221266E+00 0.13434833E+03</pdfrwt>
<totfact> 0.27102703E+05</totfact>
</mgrwt>
</event>
<event>
 6    2  0.1674964E-002  0.1294151E+03  0.7546771E-02  0.1228326E+00
         21   -1    0    0  502  503  0.00000000000E+00  0.00000000000E+00  0.29190091104E+01  0.29190091104E+01  0.00000000000E+00 0. -1.
          2   -1    0    0  503    0 -0.00000000000E+00 -0.00000000000E+00 -0.26379348654E+04  0.26379348654E+04  0.00000000000E+00 0. -1.
         25    2    1    2    0    0  0.33298275253E+02  0.39513995566E+01 -0.15750619171E+04  0.15803696729E+04  0.12499548625E+03 0.  0.
          5    1    3    3  501    0 -0.39128894856E+02  0.32764482070E+02 -0.68739123285E+03  0.68928317744E+03  0.10000000000E+00 0.  1.
         -5    1    3    3    0  501  0.72427170109E+02 -0.28813082513E+02 -0.88767068424E+03  0.89108649543E+03  0.10000000000E+00 0.  1.
          2    1    1    2  502    0 -0.33298275253E+02 -0.39513995566E+01 -0.10599539392E+04  0.10604842017E+04  0.00000000000E+00 0. -1.
<mgrwt>
<rscale>  1 0.12941507E+03</rscale>
<asrwt>0</asrwt>
<pdfrwt beam="1">  1       21 0.44907985E-03 0.12941507E+03</pdfrwt>
<pdfrwt beam="2">  1        2 0.40583476E+00 0.12941507E+03</pdfrwt>
<totfact> 0.58148630E+05</totfact>
</mgrwt>
</event>
<event>
 6    2  0.1674964E-002  0.1260693E+03  0.7546771E-02  0.1233408E+00
          3   -1    0    0  503    0 -0.00000000000E+00  0.00000000000E+00  0.13972243471E+04  0.13972243471E+04  0.00000000000E+00 0.  1.
         21   -1    0    0  502  503  0.00000000000E+00 -0.00000000000E+00 -0.18707600232E+02  0.18707600232E+02  0.00000000000E+00 0.  1.
         25    2    1    2    0    0  0.14358044389E+02  0.79084043233E+01  0.19438817665E+03  0.23168992515E+03  0.12499904758E+03 0.  0.
          5    1    3    3  501    0 -0.19347382165E+02 -0.52357273755E+02  0.10295141412E+03  0.11710938895E+03  0.10000000000E+00 0. -1.
         -5    1    3    3    0  501  0.33705426553E+02  0.60265678078E+02  0.91436762539E+02  0.11458053620E+03  0.10000000000E+00 0. -1.
          3    1    1    2  502    0 -0.14358044389E+02 -0.79084043233E+01  0.11841285703E+04  0.11842420222E+04  0.00000000000E+00 0.  1.
<mgrwt>
<rscale>  1 0.12606926E+03</rscale>
<asrwt>0</asrwt>
<pdfrwt beam="1">  1       21 0.28780934E-02 0.12606926E+03</pdfrwt>
<pdfrwt beam="2">  1        3 0.21495751E+00 0.12606926E+03</pdfrwt>
<totfact> 0.43601017E+03</totfact>
</mgrwt>
</event>
<event>
 6    2  0.1674964E-002  0.1288897E+03  0.7546771E-02  0.1229113E+00
          2   -1    0    0  503    0 -0.00000000000E+00  0.00000000000E+00  0.46040668338E+03  0.46040668338E+03  0.00000000000E+00 0.  1.
         21   -1    0    0  502  503  0.00000000000E+00 -0.00000000000E+00 -0.14690259059E+02  0.14690259059E+02  0.00000000000E+00 0.  1.
         25    2    1    2    0    0 -0.45398117180E+01  0.31050662916E+02  0.30858458303E+03  0.33442037917E+03  0.12501116575E+03 0.  0.
          5    1    3    3  501    0 -0.40550193941E+02  0.11254816492E+02  0.27328375780E+02  0.50178075349E+02  0.10000000000E+00 0.  1.
         -5    1    3    3    0  501  0.36010382223E+02  0.19795846424E+02  0.28125620725E+03  0.28424230382E+03  0.10000000000E+00 0.  1.
          2    1    1    2  502    0  0.45398117180E+01 -0.31050662916E+02  0.13713184129E+03  0.14067656327E+03  0.00000000000E+00 0.  1.
<mgrwt>
<rscale>  1 0.12888966E+03</rscale>
<asrwt>0</asrwt>
<pdfrwt beam="1">  1       21 0.22600402E-02 0.12888966E+03</pdfrwt>
<pdfrwt beam="2">  1        2 0.70831787E-01 0.12888966E+03</pdfrwt>
<totfact> 0.83751408E+05</totfact>
</mgrwt>
</event>
<event>
 6    2  0.1674964E-002  0.1347690E+03  0.7546771E-02  0.1220546E+00
         21   -1    0    0  502  503  0.00000000000E+00  0.00000000000E+00  0.59218306889E+02  0.59218306889E+02  0.00000000000E+00 0.  1.
          3   -1    0    0  503    0 -0.00000000000E+00 -0.00000000000E+00 -0.43010337988E+03  0.43010337988E+03  0.00000000000E+00 0.  1.
         25    2    1    2    0    0 -0.14298312081E+02  0.48291045974E+02 -0.21677766166E+02  0.13650132173E+03  0.12500487365E+03 0.  0.
          5    1    3    3  501    0 -0.46426555361E+02  0.40385167615E+02 -0.59950386456E+02  0.85909520090E+02  0.10000000000E+00 0.  1.
         -5    1    3    3    0  501  0.32128243280E+02  0.79058783591E+01  0.38272620289E+02  0.50591801635E+02  0.10000000000E+00 0.  1.
          3    1    1    2  502    0  0.14298312081E+02 -0.48291045974E+02 -0.34920730682E+03  0.35282036504E+03  0.00000000000E+00 0.  1.
<mgrwt>
<rscale>  1 0.13476901E+03</rscale>
<asrwt>0</asrwt>
<pdfrwt beam="1">  1       21 0.91105087E-02 0.13476901E+03</pdfrwt>
<pdfrwt beam="2">  1        3 0.66169751E-01 0.13476901E+03</pdfrwt>
<totfact> 0.10401169E+04</totfact>
</mgrwt>
</event>
<event>
 6    2  0.1674964E-002  0.1300958E+03  0.7546771E-02  0.1227314E+00
         21   -1    0    0  502  503  0.00000000000E+00  0.00000000000E+00  0.34030976023E+02  0.34030976023E+02  0.00000000000E+00 0.  1.
          1   -1    0    0  503    0 -0.00000000000E+00 -0.00000000000E+00 -0.11317673111E+04  0.11317673111E+04  0.00000000000E+00 0. -1.
         25    2    1    2    0    0 -0.15835998334E+02  0.32458635321E+02 -0.91823189149E+02  0.15923701278E+03  0.12498234405E+03 0.  0.
          5    1    3    3  501    0 -0.57714743514E+02  0.43979729573E+02 -0.19942407104E+02  0.75252360982E+02  0.10000000000E+00 0.  1.
         -5    1    3    3    0  501  0.41878745180E+02 -0.11521094252E+02 -0.71880782045E+02  0.83984651801E+02  0.10000000000E+00 0.  1.
          1    1    1    2  502    0  0.15835998334E+02 -0.32458635321E+02 -0.10059131459E+04  0.10065612743E+04  0.00000000000E+00 0. -1.
<mgrwt>
<rscale>  1 0.13009584E+03</rscale>
<asrwt>0</asrwt>
<pdfrwt beam="1">  1       21 0.52355344E-02 0.13009584E+03</pdfrwt>
<pdfrwt beam="2">  1        1 0.17411806E+00 0.13009584E+03</pdfrwt>
<totfact> 0.36203866E+04</totfact>
</mgrwt>
</event>
<event>
 6    2  0.1674964E-002  0.1363708E+03  0.7546771E-02  0.1218297E+00
          2   -1    0    0  503    0 -0.00000000000E+00  0.00000000000E+00  0.30275287982E+04  0.30275287982E+04  0.00000000000E+00 0.  1.
         21   -1    0    0  502  503  0.00000000000E+00 -0.00000000000E+00 -0.33573166303E+01  0.33573166303E+01  0.00000000000E+00 0. -1.
         25    2    1    2    0    0  0.41629736636E+02 -0.35201517280E+02  0.16470423360E+04  0.16526782693E+04  0.12499929433E+03 0.  0.
          5    1    3    3  501    0  0.15161989297E+02 -0.71155161149E+01  0.15154759059E+04  0.15155684570E+04  0.10000000000E+00 0. -1.
         -5    1    3    3    0  501  0.26467747339E+02 -0.28086001165E+02  0.13156643007E+03  0.13710981231E+03  0.10000000000E+00 0. -1.
          2    1    1    2  502    0 -0.41629736636E+02  0.35201517280E+02  0.13771291456E+04  0.13782078455E+04  0.00000000000E+00 0.  1.
<mgrwt>
<rscale>  1 0.13637084E+03</rscale>
<asrwt>0</asrwt>
<pdfrwt beam="1">  1       21 0.51651267E-03 0.13637084E+03</pdfrwt>
<pdfrwt beam="2">  1        2 0.46577148E+00 0.13637084E+03</pdfrwt>
<totfact> 0.28313952E+05</totfact>
</mgrwt>
</event>
<event>
 6    2  0.1674964E-002  0.1390849E+03  0.7546771E-02  0.1214566E+00
          1   -1    0    0  503    0 -0.00000000000E+00  0.00000000000E+00  0.97331816530E+03  0.97331816530E+03  0.00000000000E+00 0. -1.
         21   -1    0    0  502  503  0.00000000000E+00 -0.00000000000E+00 -0.15304006648E+02  0.15304006648E+02  0.00000000000E+00 0. -1.
         25    2    1    2    0    0  0.56693379621E+02 -0.22440505948E+02  0.33631321010E+03  0.36393842394E+03  0.12500754189E+03 0.  0.
          5    1    3    3  501    0  0.57646595029E+02 -0.22685051148E+02  0.34736328620E+03  0.35284416400E+03  0.10000000000E+00 0. -1.
         -5    1    3    3    0  501 -0.95321540757E+00  0.24454519982E+00 -0.11050076098E+02  0.11094259945E+02  0.10000000000E+00 0. -1.
          1    1    1    2  502    0 -0.56693379621E+02  0.22440505948E+02  0.62170094855E+03  0.62468374801E+03  0.00000000000E+00 0. -1.
<mgrwt>
<rscale>  1 0.13908487E+03</rscale>
<asrwt>0</asrwt>
<pdfrwt beam="1">  1       21 0.23544633E-02 0.13908487E+03</pdfrwt>
<pdfrwt beam="2">  1        1 0.14974121E+00 0.13908487E+03</pdfrwt>
<totfact> 0.17639414E+05</totfact>
</mgrwt>
</event>
<event>
 6    2  0.1674964E-002  0.1267915E+03  0.7546771E-02  0.1232296E+00
          2   -1    0    0  503    0 -0.00000000000E+00  0.00000000000E+00  0.12152570495E+04  0.12152570495E+04  0.00000000000E+00 0.  1.
         21   -1    0    0  502  503  0.00000000000E+00 -0.00000000000E+00 -0.13192758145E+02  0.13192758145E+02  0.00000000000E+00 0.  1.
         25    2    1    2    0    0 -0.21026675243E+02  0.30692892765E+01  0.29446918227E+03  0.32060597545E+03  0.12499820232E+03 0.  0.
          5    1    3    3  501    0 -0.65884408676E+02 -0.27075441809E+02  0.14247374783E+03  0.15928783280E+03  0.10000000000E+00 0.  1.
         -5    1    3    3    0  501  0.44857733433E+02  0.30144731085E+02  0.15199543444E+03  0.16131814266E+03  0.10000000000E+00 0.  1.
          2    1    1    2  502    0  0.21026675243E+02 -0.30692892765E+01  0.90759510905E+03  0.90784383215E+03  0.00000000000E+00 0.  1.
<mgrwt>
<rscale>  1 0.12679153E+03</rscale>
<asrwt>0</asrwt>
<pdfrwt beam="1">  1       21 0.20296561E-02 0.12679153E+03</pdfrwt>
<pdfrwt beam="2">  1        2 0.18696254E+00 0.12679153E+03</pdfrwt>
<totfact> 0.29801067E+05</totfact>
</mgrwt>
</event>
<event>
 6    2  0.1674964E-002  0.1712117E+03  0.7546771E-02  0.1176590E+00
          2   -1    0    0  503    0 -0.00000000000E+00  0.00000000000E+00  0.29853304181E+03  0.29853304181E+03  0.00000000000E+00 0. -1.
         21   -1    0    0  502  503  0.00000000000E+00 -0.00000000000E+00 -0.88600031264E+02  0.88600031264E+02  0.00000000000E+00 0.  1.
         25    2    1    2    0    0  0.10331985313E+03 -0.54820997782E+02  0.31963842174E+02  0.17416979281E+03  0.12503237850E+03 0.  0.
          5    1    3    3  501    0  0.87786482544E+02  0.46723704141E+01  0.60160490833E+02  0.10652507789E+03  0.10000000000E+00 0.  1.
         -5    1    3    3    0  501  0.15533370586E+02 -0.59493368196E+02 -0.28196648659E+02  0.67644714920E+02  0.10000000000E+00 0.  1.
          2    1    1    2  502    0 -0.10331985313E+03  0.54820997782E+02  0.17796916838E+03  0.21296328027E+03  0.00000000000E+00 0. -1.
<mgrwt>
<rscale>  1 0.17121165E+03</rscale>
<asrwt>0</asrwt>
<pdfrwt beam="1">  1       21 0.13630774E-01 0.17121165E+03</pdfrwt>
<pdfrwt beam="2">  1        2 0.45928160E-01 0.17121165E+03</pdfrwt>
<totfact> 0.63568396E+04</totfact>
</mgrwt>
</event>
<event>
 6    2  0.1674964E-002  0.1261095E+03  0.7546771E-02  0.1233345E+00
         21   -1    0    0  502  503  0.00000000000E+00  0.00000000000E+00  0.58523749739E+01  0.58523749739E+01  0.00000000000E+00 0. -1.
          2   -1    0    0  503    0 -0.00000000000E+00 -0.00000000000E+00 -0.96891886686E+03  0.96891886686E+03  0.00000000000E+00 0. -1.
         25    2    1    2    0    0 -0.14808488322E+02  0.74729221182E+01 -0.70633981882E+03  0.71750927310E+03  0.12501392502E+03 0.  0.
          5    1    3    3  501    0 -0.57538888948E+02  0.41905654356E+02 -0.40890180775E+03  0.41505120888E+03  0.10000000000E+00 0. -1.
         -5    1    3    3    0  501  0.42730400626E+02 -0.34432732238E+02 -0.29743801107E+03  0.30245806423E+03  0.10000000000E+00 0. -1.
          2    1    1    2  502    0  0.14808488322E+02 -0.74729221182E+01 -0.25672667306E+03  0.25726196873E+03  0.00000000000E+00 0. -1.
<mgrwt>
<rscale>  1 0.12610954E+03</rscale>
<asrwt>0</asrwt>
<pdfrwt beam="1">  1       21 0.90036480E-03 0.12610954E+03</pdfrwt>
<pdfrwt beam="2">  1        2 0.14906454E+00 0.12610954E+03</pdfrwt>
<totfact> 0.15033630E+06</totfact>
</mgrwt>
</event>
<event>
 6    2  0.1674964E-002  0.1260329E+03  0.7546771E-02  0.1233464E+00
         21   -1    0    0  502  503  0.00000000000E+00  0.00000000000E+00  0.16633445866E+03  0.16633445866E+03  0.00000000000E+00 0.  1.
          1   -1    0    0  503    0 -0.00000000000E+00 -0.00000000000E+00 -0.51004623354E+02  0.51004623354E+02  0.00000000000E+00 0.  1.
         25    2    1    2    0    0 -0.15436866212E+02 -0.45076839089E+01  0.13969442946E+03  0.18814576941E+03  0.12500272346E+03 0.  0.
          5    1    3    3  501    0  0.12501598119E+02 -0.49860850853E+02  0.12138186680E+03  0.13181791225E+03  0.10000000000E+00 0. -1.
         -5    1    3    3    0  501 -0.27938464331E+02  0.45353166944E+02  0.18312562662E+02  0.56327857160E+02  0.10000000000E+00 0. -1.
          1    1    1    2  502    0  0.15436866212E+02  0.45076839089E+01 -0.24364594151E+02  0.29193312604E+02  0.00000000000E+00 0.  1.
<mgrwt>
<rscale>  1 0.12603292E+03</rscale>
<asrwt>0</asrwt>
<pdfrwt beam="1">  1       21 0.25589916E-01 0.12603292E+03</pdfrwt>
<pdfrwt beam="2">  1        1 0.78468652E-02 0.12603292E+03</pdfrwt>
<totfact> 0.13448487E+05</totfact>
</mgrwt>
</event>
<event>
 6    2  0.1674964E-002  0.1316095E+03  0.7546771E-02  0.1225087E+00
         21   -1    0    0  502  503  0.00000000000E+00  0.00000000000E+00  0.34277086767E+03  0.34277086767E+03  0.00000000000E+00 0.  1.
          1   -1    0    0  503    0 -0.00000000000E+00 -0.00000000000E+00 -0.61054376095E+03  0.61054376095E+03  0.00000000000E+00 0. -1.
         25    2    1    2    0    0  0.13215622300E+02  0.39234582658E+02  0.32939458192E+03  0.35471376112E+03  0.12492820571E+03 0.  0.
          5    1    3    3  501    0  0.55155898049E+02  0.65745341933E+01  0.67200964013E+02  0.87185877031E+02  0.10000000000E+00 0.  1.
         -5    1    3    3    0  501 -0.41940275749E+02  0.32660048464E+02  0.26219361790E+03  0.26752788409E+03  0.10000000000E+00 0.  1.
          1    1    1    2  502    0 -0.13215622300E+02 -0.39234582658E+02 -0.59716747520E+03  0.59860086751E+03  0.00000000000E+00 0. -1.
<mgrwt>
<rscale>  1 0.13160950E+03</rscale>
<asrwt>0</asrwt>
<pdfrwt beam="1">  1       21 0.52733979E-01 0.13160950E+03</pdfrwt>
<pdfrwt beam="2">  1        1 0.93929810E-01 0.13160950E+03</pdfrwt>
<totfact> 0.13451352E+03</totfact>
</mgrwt>
</event>
<event>
 6    2  0.1674964E-002  0.1316409E+03  0.7546771E-02  0.1225041E+00
          1   -1    0    0  503    0 -0.00000000000E+00  0.00000000000E+00  0.98957084391E+03  0.98957084391E+03  0.00000000000E+00 0. -1.
         21   -1    0    0  502  503  0.00000000000E+00 -0.00000000000E+00 -0.12271221639E+02  0.12271221639E+02  0.00000000000E+00 0. -1.
         25    2    1    2    0    0  0.15723670477E+02  0.38256681831E+02  0.36267032584E+03  0.38582260194E+03  0.12497402691E+03 0.  0.
          5    1    3    3  501    0 -0.17153762158E+02  0.42577766844E+02  0.34539539265E+03  0.34843235362E+03  0.10000000000E+00 0. -1.
         -5    1    3    3    0  501  0.32877432635E+02 -0.43210850131E+01  0.17274933190E+02  0.37390248316E+02  0.10000000000E+00 0. -1.
          1    1    1    2  502    0 -0.15723670477E+02 -0.38256681831E+02  0.61462929643E+03  0.61601946361E+03  0.00000000000E+00 0. -1.
<mgrwt>
<rscale>  1 0.13164086E+03</rscale>
<asrwt>0</asrwt>
<pdfrwt beam="1">  1       21 0.18878810E-02 0.13164086E+03</pdfrwt>
<pdfrwt beam="2">  1        1 0.15224161E+00 0.13164086E+03</pdfrwt>
<totfact> 0.24494001E+05</totfact>
</mgrwt>
</event>
<event>
 6    2  0.1674964E-002  0.1821361E+03  0.7546771E-02  0.1165752E+00
         21   -1    0    0  502  503  0.00000000000E+00  0.00000000000E+00  0.36544473927E+02  0.36544473927E+02  0.00000000000E+00 0. -1.
          1   -1    0    0  503    0 -0.00000000000E+00 -0.00000000000E+00 -0.23727825147E+04  0.23727825147E+04  0.00000000000E+00 0. -1.
         25    2    1    2    0    0 -0.10857103924E+03  0.75905716803E+02 -0.20599242773E+03  0.27496625990E+03  0.12499686156E+03 0.  0.
          5    1    3    3  501    0 -0.15031873286E+02  0.72672774852E+02 -0.14604670313E+03  0.16381983676E+03  0.10000000000E+00 0.  1.
         -5    1    3    3    0  501 -0.93539165955E+02  0.32329419513E+01 -0.59945724593E+02  0.11114642315E+03  0.10000000000E+00 0.  1.
          1    1    1    2  502    0  0.10857103924E+03 -0.75905716803E+02 -0.21302456131E+04  0.21343607287E+04  0.00000000000E+00 0. -1.
<mgrwt>
<rscale>  1 0.18213611E+03</rscale>
<asrwt>0</asrwt>
<pdfrwt beam="1">  1       21 0.56222270E-02 0.18213611E+03</pdfrwt>
<pdfrwt beam="2">  1        1 0.36504345E+00 0.18213611E+03</pdfrwt>
<totfact> 0.49096236E+03</totfact>
</mgrwt>
</event>
<event>
 6    2  0.1674964E-002  0.1259540E+03  0.7546771E-02  0.1233586E+00
         21   -1    0    0  502  503  0.00000000000E+00  0.00000000000E+00  0.62362173458E+02  0.62362173458E+02  0.00000000000E+00 0.  1.
          1   -1    0    0  503    0 -0.00000000000E+00 -0.00000000000E+00 -0.18428986112E+03  0.18428986112E+03  0.00000000000E+00 0.  1.
         25    2    1    2    0    0 -0.15262849598E+02  0.26044073642E+01 -0.22470913874E+01  0.12597402233E+03  0.12499866946E+03 0.  0.
          5    1    3    3  501    0  0.24752861405E+02 -0.14062061304E+02 -0.52430631107E+02  0.59660931891E+02  0.10000000000E+00 0.  1.
         -5    1    3    3    0  501 -0.40015711002E+02  0.16666468668E+02  0.50183539719E+02  0.66313090440E+02  0.10000000000E+00 0.  1.
          1    1    1    2  502    0  0.15262849598E+02 -0.26044073642E+01 -0.11968059627E+03  0.12067801224E+03  0.00000000000E+00 0.  1.
<mgrwt>
<rscale>  1 0.12595398E+03</rscale>
<asrwt>0</asrwt>
<pdfrwt beam="1">  1       21 0.95941807E-02 0.12595398E+03</pdfrwt>
<pdfrwt beam="2">  1        1 0.28352286E-01 0.12595398E+03</pdfrwt>
<totfact> 0.15128186E+05</totfact>
</mgrwt>
</event>
<event>
 6    2  0.1674964E-002  0.2147979E+03  0.7546771E-02  0.1137822E+00
          2   -1    0    0  503    0 -0.00000000000E+00  0.00000000000E+00  0.79212966479E+03  0.79212966479E+03  0.00000000000E+00 0. -1.
         21   -1    0    0  502  503  0.00000000000E+00 -0.00000000000E+00 -0.55389290911E+02  0.55389290911E+02  0.00000000000E+00 0. -1.
         25    2    1    2    0    0  0.16789053550E+03 -0.48244882245E+02  0.24581188336E+03  0.32643778796E+03  0.12499338716E+03 0.  0.
          5    1    3    3  501    0  0.15895855194E+03  0.21119852136E+01  0.15394672861E+03  0.22129592623E+03  0.10000000000E+00 0.  1.
         -5    1    3    3    0  501  0.89319835575E+01 -0.50356867458E+02  0.91865154750E+02  0.10514186173E+03  0.10000000000E+00 0.  1.
          2    1    1    2  502    0 -0.16789053550E+03  0.48244882245E+02  0.49092849051E+03  0.52108116774E+03  0.00000000000E+00 0. -1.
<mgrwt>
<rscale>  1 0.21479792E+03</rscale>
<asrwt>0</asrwt>
<pdfrwt beam="1">  1       21 0.85214299E-02 0.21479792E+03</pdfrwt>
<pdfrwt beam="2">  1        2 0.12186609E+00 0.21479792E+03</pdfrwt>
<totfact> 0.48730461E+04</totfact>
</mgrwt>
</event>
<event>
 6    2  0.1674964E-002  0.1268156E+03  0.7546771E-02  0.1232259E+00
         21   -1    0    0  502  503  0.00000000000E+00  0.00000000000E+00  0.24753110605E+03  0.24753110605E+03  0.00000000000E+00 0. -1.
          2   -1    0    0  503    0 -0.00000000000E+00 -0.00000000000E+00 -0.15803229930E+04  0.15803229930E+04  0.00000000000E+00 0.  1.
         25    2    1    2    0    0  0.21059612277E+02 -0.37293670610E+01  0.23121059130E+03  0.26370539530E+03  0.12499913012E+03 0.  0.
          5    1    3    3  501    0 -0.10019359181E+02 -0.40505161869E+02  0.20435798845E+03  0.20857433481E+03  0.10000000000E+00 0. -1.
         -5    1    3    3    0  501  0.31078971457E+02  0.36775794808E+02  0.26852602849E+02  0.55131060487E+02  0.10000000000E+00 0. -1.
          2    1    1    2  502    0 -0.21059612277E+02  0.37293670610E+01 -0.15640024783E+04  0.15641487038E+04  0.00000000000E+00 0.  1.
<mgrwt>
<rscale>  1 0.12681561E+03</rscale>
<asrwt>0</asrwt>
<pdfrwt beam="1">  1       21 0.38081707E-01 0.12681561E+03</pdfrwt>
<pdfrwt beam="2">  1        2 0.24312662E+00 0.12681561E+03</pdfrwt>
<totfact> 0.11144027E+03</totfact>
</mgrwt>
</event>
<event>
 6    2  0.1674964E-002  0.1283232E+03  0.7546771E-02  0.1229965E+00
          1   -1    0    0  503    0 -0.00000000000E+00  0.00000000000E+00  0.72706614508E+03  0.72706614508E+03  0.00000000000E+00 0.  1.
         21   -1    0    0  502  503  0.00000000000E+00 -0.00000000000E+00 -0.11251173369E+03  0.11251173369E+03  0.00000000000E+00 0. -1.
         25    2    1    2    0    0 -0.20109181265E+02 -0.20796593978E+02 -0.75520695085E+02  0.14889667150E+03  0.12501986205E+03 0.  0.
          5    1    3    3  501    0 -0.96569514637E+01 -0.31810731397E+02 -0.10802272343E+03  0.11302255580E+03  0.10000000000E+00 0.  1.
         -5    1    3    3    0  501 -0.10452229802E+02  0.11014137419E+02  0.32502028342E+02  0.35874115700E+02  0.10000000000E+00 0.  1.
          1    1    1    2  502    0  0.20109181265E+02  0.20796593978E+02  0.69007510648E+03  0.69068120727E+03  0.00000000000E+00 0.  1.
<mgrwt>
<rscale>  1 0.12832320E+03</rscale>
<asrwt>0</asrwt>
<pdfrwt beam="1">  1       21 0.17309498E-01 0.12832320E+03</pdfrwt>
<pdfrwt beam="2">  1        1 0.11185633E+00 0.12832320E+03</pdfrwt>
<totfact> 0.91307671E+03</totfact>
</mgrwt>
</event>
<event>
 6    2  0.1674964E-002  0.1304278E+03  0.7546771E-02  0.1226822E+00
         21   -1    0    0  502  503  0.00000000000E+00  0.00000000000E+00  0.18696488121E+03  0.18696488121E+03  0.00000000000E+00 0.  1.
          2   -1    0    0  503    0 -0.00000000000E+00 -0.00000000000E+00 -0.45305022748E+03  0.45305022748E+03  0.00000000000E+00 0. -1.
         25    2    1    2    0    0  0.35192294942E+02 -0.12156797316E+02  0.16331404053E+03  0.20900453025E+03  0.12500052995E+03 0.  0.
          5    1    3    3  501    0  0.81404280632E+02 -0.13033416669E+02  0.12049254662E+03  0.14599654327E+03  0.10000000000E+00 0. -1.
         -5    1    3    3    0  501 -0.46211985690E+02  0.87661935294E+00  0.42821493904E+02  0.63007986978E+02  0.10000000000E+00 0. -1.
          2    1    1    2  502    0 -0.35192294942E+02  0.12156797316E+02 -0.42939938680E+03  0.43101057844E+03  0.00000000000E+00 0. -1.
<mgrwt>
<rscale>  1 0.13042783E+03</rscale>
<asrwt>0</asrwt>
<pdfrwt beam="1">  1       21 0.28763828E-01 0.13042783E+03</pdfrwt>
<pdfrwt beam="2">  1        2 0.69700034E-01 0.13042783E+03</pdfrwt>
<totfact> 0.10201407E+04</totfact>
</mgrwt>
</event>
<event>
 6    2  0.1674964E-002  0.1269352E+03  0.7546771E-02  0.1232075E+00
          2   -1    0    0  503    0 -0.00000000000E+00  0.00000000000E+00  0.62246414598E+02  0.62246414598E+02  0.00000000000E+00 0.  1.
         21   -1    0    0  502  503  0.00000000000E+00 -0.00000000000E+00 -0.10966174496E+03  0.10966174496E+03  0.00000000000E+00 0.  1.
         25    2    1    2    0    0 -0.11460571410E+02  0.18819672554E+02 -0.66012864081E+02  0.14307427269E+03  0.12500809777E+03 0.  0.
          5    1    3    3  501    0 -0.66438603694E+02  0.26288535463E+02 -0.36812588308E+02  0.80376313771E+02  0.10000000000E+00 0. -1.
         -5    1    3    3    0  501  0.54978032283E+02 -0.74688629086E+01 -0.29200275773E+02  0.62697958915E+02  0.10000000000E+00 0. -1.
          2    1    1    2  502    0  0.11460571410E+02 -0.18819672554E+02  0.18597533715E+02  0.28833886876E+02  0.00000000000E+00 0.  1.
<mgrwt>
<rscale>  1 0.12693522E+03</rscale>
<asrwt>0</asrwt>
<pdfrwt beam="1">  1       21 0.16871038E-01 0.12693522E+03</pdfrwt>
<pdfrwt beam="2">  1        2 0.95763714E-02 0.12693522E+03</pdfrwt>
<totfact> 0.25290633E+05</totfact>
</mgrwt>
</event>
<event>
 6    2  0.1674964E-002  0.1271165E+03  0.7546771E-02  0.1231798E+00
         21   -1    0    0  502  503  0.00000000000E+00  0.00000000000E+00  0.23316867618E+02  0.23316867618E+02  0.00000000000E+00 0.  1.
          1   -1    0    0  503    0 -0.00000000000E+00 -0.00000000000E+00 -0.61128975208E+03  0.61128975208E+03  0.00000000000E+00 0.  1.
         25    2    1    2    0    0 -0.22564304356E+02 -0.49394178085E+01 -0.15254414765E+03  0.19856564626E+03  0.12500021284E+03 0.  0.
          5    1    3    3  501    0 -0.18257588068E+02 -0.25535384120E+02 -0.16897665507E+03  0.17186772624E+03  0.10000000000E+00 0. -1.
         -5    1    3    3    0  501 -0.43067162880E+01  0.20595966312E+02  0.16432507414E+02  0.26697920020E+02  0.10000000000E+00 0. -1.
          1    1    1    2  502    0  0.22564304356E+02  0.49394178085E+01 -0.43542873681E+03  0.43604097344E+03  0.00000000000E+00 0.  1.
<mgrwt>
<rscale>  1 0.12711648E+03</rscale>
<asrwt>0</asrwt>
<pdfrwt beam="1">  1       21 0.35872105E-02 0.12711648E+03</pdfrwt>
<pdfrwt beam="2">  1        1 0.94044574E-01 0.12711648E+03</pdfrwt>
<totfact> 0.17660389E+05</totfact>
</mgrwt>
</event>
<event>
 6    2  0.1674964E-002  0.1293312E+03  0.7546771E-02  0.1228451E+00
         21   -1    0    0  502  503  0.00000000000E+00  0.00000000000E+00  0.36238310464E+02  0.36238310464E+02  0.00000000000E+00 0.  1.
          2   -1    0    0  503    0 -0.00000000000E+00 -0.00000000000E+00 -0.31358900992E+03  0.31358900992E+03  0.00000000000E+00 0.  1.
         25    2    1    2    0    0 -0.23403748723E+01  0.33099057281E+02 -0.85292380696E+02  0.15492369612E+03  0.12500214585E+03 0.  0.
          5    1    3    3  501    0  0.43746840456E+02 -0.88104213334E+01 -0.81004297218E+02  0.92483056512E+02  0.10000000000E+00 0. -1.
         -5    1    3    3    0  501 -0.46087215329E+02  0.41909478614E+02 -0.42880834772E+01  0.62440639605E+02  0.10000000000E+00 0. -1.
          2    1    1    2  502    0  0.23403748723E+01 -0.33099057281E+02 -0.19205831876E+03  0.19490362426E+03  0.00000000000E+00 0.  1.
<mgrwt>
<rscale>  1 0.12933121E+03</rscale>
<asrwt>0</asrwt>
<pdfrwt beam="1">  1       21 0.55751245E-02 0.12933121E+03</pdfrwt>
<pdfrwt beam="2">  1        2 0.48244464E-01 0.12933121E+03</pdfrwt>
<totfact> 0.28354475E+05</totfact>
</mgrwt>
</event>
<event>
 6    2  0.1674964E-002  0.1420523E+03  0.7546771E-02  0.1210594E+00
         21   -1    0    0  502  503  0.00000000000E+00  0.00000000000E+00  0.13703669862E+02  0.13703669862E+02  0.00000000000E+00 0.  1.
          4   -1    0    0  503    0 -0.00000000000E+00 -0.00000000000E+00 -0.89975912300E+03  0.89975912300E+03  0.00000000000E+00 0. -1.
         25    2    1    2    0    0  0.46227494843E+02  0.49133021446E+02 -0.44074229844E+03  0.46306869785E+03  0.12501124036E+03 0.  0.
          5    1    3    3  501    0 -0.20295055538E+02 -0.27441527875E+02 -0.59817120087E+02  0.68869620203E+02  0.10000000000E+00 0.  1.
         -5    1    3    3    0  501  0.66522550381E+02  0.76574549321E+02 -0.38092517835E+03  0.39419907764E+03  0.10000000000E+00 0.  1.
          4    1    1    2  502    0 -0.46227494843E+02 -0.49133021446E+02 -0.44531315470E+03  0.45039409502E+03  0.00000000000E+00 0. -1.
<mgrwt>
<rscale>  1 0.14205226E+03</rscale>
<asrwt>0</asrwt>
<pdfrwt beam="1">  1       21 0.21082568E-02 0.14205226E+03</pdfrwt>
<pdfrwt beam="2">  1        4 0.13842449E+00 0.14205226E+03</pdfrwt>
<totfact> 0.18015224E+04</totfact>
</mgrwt>
</event>
<event>
 6    2  0.1674964E-002  0.1337767E+03  0.7546771E-02  0.1221957E+00
         21   -1    0    0  502  503  0.00000000000E+00  0.00000000000E+00  0.62397398572E+01  0.62397398572E+01  0.00000000000E+00 0.  1.
          1   -1    0    0  503    0 -0.00000000000E+00 -0.00000000000E+00 -0.24261271554E+04  0.24261271554E+04  0.00000000000E+00 0.  1.
         25    2    1    2    0    0 -0.47657582919E+02  0.10812341096E-01 -0.75250813179E+03  0.76430666816E+03  0.12499979705E+03 0.  0.
          5    1    3    3  501    0 -0.52369981616E+02  0.56322404628E+02 -0.46116968819E+03  0.46753857546E+03  0.10000000000E+00 0.  1.
         -5    1    3    3    0  501  0.47123986977E+01 -0.56311592287E+02 -0.29133844360E+03  0.29676809271E+03  0.10000000000E+00 0.  1.
          1    1    1    2  502    0  0.47657582919E+02 -0.10812341096E-01 -0.16673792838E+04  0.16680602271E+04  0.00000000000E+00 0.  1.
<mgrwt>
<rscale>  1 0.13377666E+03</rscale>
<asrwt>0</asrwt>
<pdfrwt beam="1">  1       21 0.95995974E-03 0.13377666E+03</pdfrwt>
<pdfrwt beam="2">  1        1 0.37325042E+00 0.13377666E+03</pdfrwt>
<totfact> 0.82677715E+04</totfact>
</mgrwt>
</event>
<event>
 6    2  0.1674964E-002  0.1279202E+03  0.7546771E-02  0.1230575E+00
         21   -1    0    0  502  503  0.00000000000E+00  0.00000000000E+00  0.50736860151E+02  0.50736860151E+02  0.00000000000E+00 0. -1.
          3   -1    0    0  503    0 -0.00000000000E+00 -0.00000000000E+00 -0.11962444822E+03  0.11962444822E+03  0.00000000000E+00 0. -1.
         25    2    1    2    0    0 -0.26206632011E+02 -0.71193442351E+01 -0.62919574003E+02  0.14255681565E+03  0.12500440101E+03 0.  0.
          5    1    3    3  501    0 -0.48587046325E+02  0.44575705769E+01 -0.91964046980E+02  0.10410555673E+03  0.10000000000E+00 0.  1.
         -5    1    3    3    0  501  0.22380414314E+02 -0.11576914812E+02  0.29044472977E+02  0.38451258912E+02  0.10000000000E+00 0.  1.
          3    1    1    2  502    0  0.26206632011E+02  0.71193442351E+01 -0.59680140652E+01  0.27804492723E+02  0.00000000000E+00 0. -1.
<mgrwt>
<rscale>  1 0.12792018E+03</rscale>
<asrwt>0</asrwt>
<pdfrwt beam="1">  1       21 0.78056708E-02 0.12792018E+03</pdfrwt>
<pdfrwt beam="2">  1        3 0.18403761E-01 0.12792018E+03</pdfrwt>
<totfact> 0.15320045E+05</totfact>
</mgrwt>
</event>
<event>
 6    2  0.1674964E-002  0.1285581E+03  0.7546771E-02  0.1229611E+00
          4   -1    0    0  503    0 -0.00000000000E+00  0.00000000000E+00  0.10526621155E+03  0.10526621155E+03  0.00000000000E+00 0.  1.
         21   -1    0    0  502  503  0.00000000000E+00 -0.00000000000E+00 -0.63134775404E+02  0.63134775404E+02  0.00000000000E+00 0. -1.
         25    2    1    2    0    0  0.26204948504E+02 -0.14695148373E+02  0.17890575581E+02  0.12979702300E+03  0.12499819108E+03 0.  0.
          5    1    3    3  501    0  0.51595925098E+02 -0.57389468002E+02  0.52498470446E+00  0.77174970899E+02  0.10000000000E+00 0. -1.
         -5    1    3    3    0  501 -0.25390976594E+02  0.42694319629E+02  0.17365590876E+02  0.52622052103E+02  0.10000000000E+00 0. -1.
          4    1    1    2  502    0 -0.26204948504E+02  0.14695148373E+02  0.24240860561E+02  0.38603963948E+02  0.00000000000E+00 0.  1.
<mgrwt>
<rscale>  1 0.12855814E+03</rscale>
<asrwt>0</asrwt>
<pdfrwt beam="1">  1       21 0.97130424E-02 0.12855814E+03</pdfrwt>
<pdfrwt beam="2">  1        4 0.16194802E-01 0.12855814E+03</pdfrwt>
<totfact> 0.11228416E+05</totfact>
</mgrwt>
</event>
<event>
 6    2  0.1674964E-002  0.1278927E+03  0.7546771E-02  0.1230617E+00
         21   -1    0    0  502  503  0.00000000000E+00  0.00000000000E+00  0.10116470896E+02  0.10116470896E+02  0.00000000000E+00 0.  1.
          2   -1    0    0  503    0 -0.00000000000E+00 -0.00000000000E+00 -0.11609025671E+04  0.11609025671E+04  0.00000000000E+00 0. -1.
         25    2    1    2    0    0 -0.25691682875E+02 -0.82397894127E+01 -0.40431114189E+03  0.42405664663E+03  0.12501433276E+03 0.  0.
          5    1    3    3  501    0 -0.73760928697E+01 -0.31859932829E+02 -0.38918699353E+03  0.39055855899E+03  0.10000000000E+00 0.  1.
         -5    1    3    3    0  501 -0.18315590005E+02  0.23620143416E+02 -0.15124148367E+02  0.33498087648E+02  0.10000000000E+00 0.  1.
          2    1    1    2  502    0  0.25691682875E+02  0.82397894127E+01 -0.74647495430E+03  0.74696239135E+03  0.00000000000E+00 0. -1.
<mgrwt>
<rscale>  1 0.12789269E+03</rscale>
<asrwt>0</asrwt>
<pdfrwt beam="1">  1       21 0.15563810E-02 0.12789269E+03</pdfrwt>
<pdfrwt beam="2">  1        2 0.17860030E+00 0.12789269E+03</pdfrwt>
<totfact> 0.48940417E+05</totfact>
</mgrwt>
</event>
<event>
 6    2  0.1674964E-002  0.1274835E+03  0.7546771E-02  0.1231238E+00
          2   -1    0    0  503    0 -0.00000000000E+00  0.00000000000E+00  0.19793114925E+03  0.19793114925E+03  0.00000000000E+00 0.  1.
         21   -1    0    0  502  503  0.00000000000E+00 -0.00000000000E+00 -0.31922871926E+02  0.31922871926E+02  0.00000000000E+00 0. -1.
         25    2    1    2    0    0 -0.21057961824E+02  0.13482952778E+02  0.10947604967E+03  0.16803880836E+03  0.12500723136E+03 0.  0.
          5    1    3    3  501    0  0.51212480526E+02  0.19467076394E+02  0.42741695882E+02  0.69487752819E+02  0.10000000000E+00 0. -1.
         -5    1    3    3    0  501 -0.72270442350E+02 -0.59841236161E+01  0.66734353790E+02  0.98551055543E+02  0.10000000000E+00 0. -1.
          2    1    1    2  502    0  0.21057961824E+02 -0.13482952778E+02  0.56532227652E+02  0.61815212813E+02  0.00000000000E+00 0.  1.
<mgrwt>
<rscale>  1 0.12748347E+03</rscale>
<asrwt>0</asrwt>
<pdfrwt beam="1">  1       21 0.49112112E-02 0.12748347E+03</pdfrwt>
<pdfrwt beam="2">  1        2 0.30450945E-01 0.12748347E+03</pdfrwt>
<totfact> 0.57244312E+05</totfact>
</mgrwt>
</event>
<event>
 6    2  0.1674964E-002  0.2140767E+03  0.7546771E-02  0.1138378E+00
         21   -1    0    0  502  503  0.00000000000E+00  0.00000000000E+00  0.12175340054E+03  0.12175340054E+03  0.00000000000E+00 0. -1.
          2   -1    0    0  503    0 -0.00000000000E+00 -0.00000000000E+00 -0.36072364680E+03  0.36072364680E+03  0.00000000000E+00 0.  1.
         25    2    1    2    0    0  0.99216212397E+02  0.14269052676E+03 -0.39107540850E+02  0.21761945495E+03  0.12499753674E+03 0.  0.
          5    1    3    3  501    0 -0.19169940177E+02  0.33825423499E+02  0.23044396430E+02  0.45196239756E+02  0.10000000000E+00 0. -1.
         -5    1    3    3    0  501  0.11838615257E+03  0.10886510327E+03 -0.62151937280E+02  0.17242321519E+03  0.10000000000E+00 0. -1.
          2    1    1    2  502    0 -0.99216212397E+02 -0.14269052676E+03 -0.19986270542E+03  0.26485759239E+03  0.00000000000E+00 0.  1.
<mgrwt>
<rscale>  1 0.21407669E+03</rscale>
<asrwt>0</asrwt>
<pdfrwt beam="1">  1       21 0.18731293E-01 0.21407669E+03</pdfrwt>
<pdfrwt beam="2">  1        2 0.55495944E-01 0.21407669E+03</pdfrwt>
<totfact> 0.28955505E+04</totfact>
</mgrwt>
</event>
<event>
 6    2  0.1674964E-002  0.1698662E+03  0.7546771E-02  0.1177987E+00
         21   -1    0    0  502  503  0.00000000000E+00  0.00000000000E+00  0.55078213893E+02  0.55078213893E+02  0.00000000000E+00 0.  1.
          1   -1    0    0  503    0 -0.00000000000E+00 -0.00000000000E+00 -0.55908991523E+03  0.55908991523E+03  0.00000000000E+00 0.  1.
         25    2    1    2    0    0  0.11298801038E+03 -0.21544819240E+02 -0.10683130416E+03  0.20066753949E+03  0.12499625647E+03 0.  0.
          5    1    3    3  501    0 -0.24708404348E+02  0.59884563747E+01 -0.34079731565E+02  0.42518289697E+02  0.10000000000E+00 0.  1.
         -5    1    3    3    0  501  0.13769641473E+03 -0.27533275615E+02 -0.72751572592E+02  0.15814924979E+03  0.10000000000E+00 0.  1.
          1    1    1    2  502    0 -0.11298801038E+03  0.21544819240E+02 -0.39718039718E+03  0.41350058963E+03  0.00000000000E+00 0.  1.
<mgrwt>
<rscale>  1 0.16986622E+03</rscale>
<asrwt>0</asrwt>
<pdfrwt beam="1">  1       21 0.84735714E-02 0.16986622E+03</pdfrwt>
<pdfrwt beam="2">  1        1 0.86013833E-01 0.16986622E+03</pdfrwt>
<totfact> 0.46695798E+04</totfact>
</mgrwt>
</event>
<event>
 6    2  0.1674964E-002  0.1259737E+03  0.7546771E-02  0.1233555E+00
          2   -1    0    0  503    0 -0.00000000000E+00  0.00000000000E+00  0.25794097489E+04  0.25794097489E+04  0.00000000000E+00 0.  1.
         21   -1    0    0  502  503  0.00000000000E+00 -0.00000000000E+00 -0.25651991100E+01  0.25651991100E+01  0.00000000000E+00 0.  1.
         25    2    1    2    0    0  0.86210622366E+01 -0.13061572272E+02  0.15821235760E+04  0.15871308683E+04  0.12499782300E+03 0.  0.
          5    1    3    3  501    0 -0.14629243766E+02 -0.20042282862E+02  0.61550326429E+02  0.66363849790E+02  0.10000000000E+00 0.  1.
         -5    1    3    3    0  501  0.23250306002E+02  0.69807105899E+01  0.15205732496E+04  0.15207670185E+04  0.10000000000E+00 0.  1.
          2    1    1    2  502    0 -0.86210622366E+01  0.13061572272E+02  0.99472097380E+03  0.99484407979E+03  0.00000000000E+00 0.  1.
<mgrwt>
<rscale>  1 0.12597374E+03</rscale>
<asrwt>0</asrwt>
<pdfrwt beam="1">  1       21 0.39464808E-03 0.12597374E+03</pdfrwt>
<pdfrwt beam="2">  1        2 0.39683020E+00 0.12597374E+03</pdfrwt>
<totfact> 0.76258863E+05</totfact>
</mgrwt>
</event>
<event>
 6    2  0.1674964E-002  0.1269997E+03  0.7546771E-02  0.1231977E+00
         21   -1    0    0  502  503  0.00000000000E+00  0.00000000000E+00  0.12037825349E+02  0.12037825349E+02  0.00000000000E+00 0.  1.
          2   -1    0    0  503    0 -0.00000000000E+00 -0.00000000000E+00 -0.17963055438E+04  0.17963055438E+04  0.00000000000E+00 0. -1.
         25    2    1    2    0    0 -0.21826755024E+01 -0.22345917570E+02 -0.32543280692E+03  0.34933569158E+03  0.12499923795E+03 0.  0.
          5    1    3    3  501    0 -0.30521643125E+01  0.49141521493E+02 -0.18897618759E+03  0.19528495671E+03  0.10000000000E+00 0.  1.
         -5    1    3    3    0  501  0.86948881013E+00 -0.71487439063E+02 -0.13645661933E+03  0.15405073487E+03  0.10000000000E+00 0.  1.
          2    1    1    2  502    0  0.21826755024E+01  0.22345917570E+02 -0.14588349115E+04  0.14590076775E+04  0.00000000000E+00 0. -1.
<mgrwt>
<rscale>  1 0.12699966E+03</rscale>
<asrwt>0</asrwt>
<pdfrwt beam="1">  1       21 0.18519725E-02 0.12699966E+03</pdfrwt>
<pdfrwt beam="2">  1        2 0.27635479E+00 0.12699966E+03</pdfrwt>
<totfact> 0.17174562E+05</totfact>
</mgrwt>
</event>
<event>
 6    2  0.1674964E-002  0.1518782E+03  0.7546771E-02  0.1198184E+00
          4   -1    0    0  503    0 -0.00000000000E+00  0.00000000000E+00  0.26081168378E+03  0.26081168378E+03  0.00000000000E+00 0.  1.
         21   -1    0    0  502  503  0.00000000000E+00 -0.00000000000E+00 -0.18946918654E+03  0.18946918654E+03  0.00000000000E+00 0.  1.
         25    2    1    2    0    0 -0.74254663271E+02  0.43907476848E+02 -0.14954580664E+03  0.21314533032E+03  0.12500144804E+03 0.  0.
          5    1    3    3  501    0 -0.10349513346E+03  0.43369741757E+02 -0.14530911695E+03  0.18359446239E+03  0.10000000000E+00 0.  1.
         -5    1    3    3    0  501  0.29240470192E+02  0.53773509074E+00 -0.42366896926E+01  0.29550867934E+02  0.10000000000E+00 0.  1.
          4    1    1    2  502    0  0.74254663271E+02 -0.43907476848E+02  0.22088830388E+03  0.23713554000E+03  0.00000000000E+00 0.  1.
<mgrwt>
<rscale>  1 0.15187819E+03</rscale>
<asrwt>0</asrwt>
<pdfrwt beam="1">  1       21 0.29149106E-01 0.15187819E+03</pdfrwt>
<pdfrwt beam="2">  1        4 0.40124874E-01 0.15187819E+03</pdfrwt>
<totfact> 0.28383549E+03</totfact>
</mgrwt>
</event>
<event>
 6    2  0.1674964E-002  0.1376201E+03  0.7546771E-02  0.1216568E+00
         21   -1    0    0  502  503  0.00000000000E+00  0.00000000000E+00  0.52088650328E+02  0.52088650328E+02  0.00000000000E+00 0. -1.
          2   -1    0    0  503    0 -0.00000000000E+00 -0.00000000000E+00 -0.28111414800E+03  0.28111414800E+03  0.00000000000E+00 0.  1.
         25    2    1    2    0    0 -0.51154839318E+02 -0.26418667728E+02 -0.52111115820E+02  0.14715586313E+03  0.12499806427E+03 0.  0.
          5    1    3    3  501    0 -0.42507112297E+02  0.16316642597E+02 -0.82347011485E+02  0.94096374649E+02  0.10000000000E+00 0.  1.
         -5    1    3    3    0  501 -0.86477270212E+01 -0.42735310325E+02  0.30235895665E+02  0.53059488481E+02  0.10000000000E+00 0.  1.
          2    1    1    2  502    0  0.51154839318E+02  0.26418667728E+02 -0.17691438185E+03  0.18604693520E+03  0.00000000000E+00 0.  1.
<mgrwt>
<rscale>  1 0.13762006E+03</rscale>
<asrwt>0</asrwt>
<pdfrwt beam="1">  1       21 0.80136386E-02 0.13762006E+03</pdfrwt>
<pdfrwt beam="2">  1        2 0.43248330E-01 0.13762006E+03</pdfrwt>
<totfact> 0.17185413E+05</totfact>
</mgrwt>
</event>
<event>
 6    2  0.1674964E-002  0.1268071E+03  0.7546771E-02  0.1232272E+00
         21   -1    0    0  502  503  0.00000000000E+00  0.00000000000E+00  0.21531388776E+02  0.21531388776E+02  0.00000000000E+00 0.  1.
          1   -1    0    0  503    0 -0.00000000000E+00 -0.00000000000E+00 -0.31263015913E+03  0.31263015913E+03  0.00000000000E+00 0.  1.
         25    2    1    2    0    0  0.20213165689E+02  0.66618650970E+01 -0.17491550241E+03  0.21604506191E+03  0.12500833284E+03 0.  0.
          5    1    3    3  501    0  0.39446388779E+02 -0.46831003497E+02 -0.50907486399E+02  0.79628780272E+02  0.10000000000E+00 0. -1.
         -5    1    3    3    0  501 -0.19233223090E+02  0.53492868594E+02 -0.12400801601E+03  0.13641628164E+03  0.10000000000E+00 0. -1.
          1    1    1    2  502    0 -0.20213165689E+02 -0.66618650970E+01 -0.11618326794E+03  0.11811648599E+03  0.00000000000E+00 0.  1.
<mgrwt>
<rscale>  1 0.12680708E+03</rscale>
<asrwt>0</asrwt>
<pdfrwt beam="1">  1       21 0.33125213E-02 0.12680708E+03</pdfrwt>
<pdfrwt beam="2">  1        1 0.48096948E-01 0.12680708E+03</pdfrwt>
<totfact> 0.47562124E+05</totfact>
</mgrwt>
</event>
<event>
 6    2  0.1674964E-002  0.1284320E+03  0.7546771E-02  0.1229801E+00
          2   -1    0    0  503    0 -0.00000000000E+00  0.00000000000E+00  0.18149576687E+04  0.18149576687E+04  0.00000000000E+00 0.  1.
         21   -1    0    0  502  503  0.00000000000E+00 -0.00000000000E+00 -0.47625367854E+01  0.47625367854E+01  0.00000000000E+00 0. -1.
         25    2    1    2    0    0  0.25543064612E+02  0.14754928106E+02  0.90747365504E+03  0.91651689457E+03  0.12499850948E+03 0.  0.
          5    1    3    3  501    0  0.18555470469E+02  0.28954556676E+02  0.62031649173E+02  0.70926774463E+02  0.10000000000E+00 0.  1.
         -5    1    3    3    0  501  0.69875941428E+01 -0.14199628569E+02  0.84544200587E+03  0.84559012010E+03  0.10000000000E+00 0.  1.
          2    1    1    2  502    0 -0.25543064612E+02 -0.14754928106E+02  0.90272147690E+03  0.90320331095E+03  0.00000000000E+00 0.  1.
<mgrwt>
<rscale>  1 0.12843202E+03</rscale>
<asrwt>0</asrwt>
<pdfrwt beam="1">  1       21 0.73269941E-03 0.12843202E+03</pdfrwt>
<pdfrwt beam="2">  1        2 0.27922371E+00 0.12843202E+03</pdfrwt>
<totfact> 0.72981607E+05</totfact>
</mgrwt>
</event>
<event>
 6    2  0.1674964E-002  0.1400718E+03  0.7546771E-02  0.1213232E+00
         21   -1    0    0  502  503  0.00000000000E+00  0.00000000000E+00  0.40785500007E+03  0.40785500007E+03  0.00000000000E+00 0.  1.
          1   -1    0    0  503    0 -0.00000000000E+00 -0.00000000000E+00 -0.39955331926E+03  0.39955331926E+03  0.00000000000E+00 0.  1.
         25    2    1    2    0    0  0.50067834799E+02  0.38574674535E+02  0.39317449086E+03  0.41738027737E+03  0.12500128829E+03 0.  0.
          5    1    3    3  501    0  0.76741181088E+02 -0.70288718488E+01  0.30504349133E+03  0.31462701015E+03  0.10000000000E+00 0. -1.
         -5    1    3    3    0  501 -0.26673346289E+02  0.45603546384E+02  0.88130999531E+02  0.10275326722E+03  0.10000000000E+00 0. -1.
          1    1    1    2  502    0 -0.50067834799E+02 -0.38574674535E+02 -0.38487281005E+03  0.39002804196E+03  0.00000000000E+00 0.  1.
<mgrwt>
<rscale>  1 0.14007182E+03</rscale>
<asrwt>0</asrwt>
<pdfrwt beam="1">  1       21 0.62746923E-01 0.14007182E+03</pdfrwt>
<pdfrwt beam="2">  1        1 0.61469741E-01 0.14007182E+03</pdfrwt>
<totfact> 0.16122025E+03</totfact>
</mgrwt>
</event>
<event>
 6    2  0.1674964E-002  0.1429642E+03  0.7546771E-02  0.1209395E+00
         21   -1    0    0  502  503  0.00000000000E+00  0.00000000000E+00  0.47151443350E+01  0.47151443350E+01  0.00000000000E+00 0.  1.
          2   -1    0    0  503    0 -0.00000000000E+00 -0.00000000000E+00 -0.24486898706E+04  0.24486898706E+04  0.00000000000E+00 0.  1.
         25    2    1    2    0    0 -0.63600012589E+02  0.27761609241E+02 -0.14585150279E+04  0.14655049767E+04  0.12499232543E+03 0.  0.
          5    1    3    3  501    0 -0.37263586707E+02  0.67562462161E+02 -0.12094480105E+04  0.12119066636E+04  0.10000000000E+00 0. -1.
         -5    1    3    3    0  501 -0.26336425882E+02 -0.39800852920E+02 -0.24906701746E+03  0.25359831310E+03  0.10000000000E+00 0. -1.
          2    1    1    2  502    0  0.63600012589E+02 -0.27761609241E+02 -0.98545969834E+03  0.98790003827E+03  0.00000000000E+00 0.  1.
<mgrwt>
<rscale>  1 0.14296416E+03</rscale>
<asrwt>0</asrwt>
<pdfrwt beam="1">  1       21 0.72540699E-03 0.14296416E+03</pdfrwt>
<pdfrwt beam="2">  1        2 0.37672143E+00 0.14296416E+03</pdfrwt>
<totfact> 0.34924637E+05</totfact>
</mgrwt>
</event>
<event>
 6    2  0.1674964E-002  0.1310911E+03  0.7546771E-02  0.1225846E+00
          1   -1    0    0  503    0 -0.00000000000E+00  0.00000000000E+00  0.46717621116E+03  0.46717621116E+03  0.00000000000E+00 0. -1.
         21   -1    0    0  502  503  0.00000000000E+00 -0.00000000000E+00 -0.17612443778E+02  0.17612443778E+02  0.00000000000E+00 0. -1.
         25    2    1    2    0    0  0.14872931754E+02 -0.36590013283E+02  0.40270294446E+03  0.42350268676E+03  0.12499932416E+03 0.  0.
          5    1    3    3  501    0  0.46421677903E+02  0.29438263948E+02  0.21820018134E+03  0.22501758310E+03  0.10000000000E+00 0. -1.
         -5    1    3    3    0  501 -0.31548746149E+02 -0.66028277230E+02  0.18450276312E+03  0.19848510366E+03  0.10000000000E+00 0. -1.
          1    1    1    2  502    0 -0.14872931754E+02  0.36590013283E+02  0.46860822920E+02  0.61285968179E+02  0.00000000000E+00 0. -1.
<mgrwt>
<rscale>  1 0.13109105E+03</rscale>
<asrwt>0</asrwt>
<pdfrwt beam="1">  1       21 0.27096071E-02 0.13109105E+03</pdfrwt>
<pdfrwt beam="2">  1        1 0.71873254E-01 0.13109105E+03</pdfrwt>
<totfact> 0.40014832E+05</totfact>
</mgrwt>
</event>
<event>
 6    2  0.1674964E-002  0.1915850E+03  0.7546771E-02  0.1157039E+00
         21   -1    0    0  502  503  0.00000000000E+00  0.00000000000E+00  0.12704768062E+03  0.12704768062E+03  0.00000000000E+00 0.  1.
          2   -1    0    0  503    0 -0.00000000000E+00 -0.00000000000E+00 -0.24473614056E+03  0.24473614056E+03  0.00000000000E+00 0.  1.
         25    2    1    2    0    0  0.14511815055E+03  0.45386540935E+01 -0.12092956090E+03  0.22655854193E+03  0.12499974889E+03 0.  0.
          5    1    3    3  501    0  0.24047558954E+02  0.42248694612E+02  0.37066524102E+01  0.48754349141E+02  0.10000000000E+00 0. -1.
         -5    1    3    3    0  501  0.12107059159E+03 -0.37710040519E+02 -0.12463621331E+03  0.17780419279E+03  0.10000000000E+00 0. -1.
          2    1    1    2  502    0 -0.14511815055E+03 -0.45386540935E+01  0.32411009611E+01  0.14522527925E+03  0.00000000000E+00 0.  1.
<mgrwt>
<rscale>  1 0.19158501E+03</rscale>
<asrwt>0</asrwt>
<pdfrwt beam="1">  1       21 0.19545797E-01 0.19158501E+03</pdfrwt>
<pdfrwt beam="2">  1        2 0.37651713E-01 0.19158501E+03</pdfrwt>
<totfact> 0.40658647E+04</totfact>
</mgrwt>
</event>
<event>
 6    2  0.1674964E-002  0.1294526E+03  0.7546771E-02  0.1228270E+00
          1   -1    0    0  503    0 -0.00000000000E+00  0.00000000000E+00  0.18206635850E+04  0.18206635850E+04  0.00000000000E+00 0. -1.
         21   -1    0    0  502  503  0.00000000000E+00 -0.00000000000E+00 -0.68012884923E+01  0.68012884923E+01  0.00000000000E+00 0. -1.
         25    2    1    2    0    0 -0.20013118413E+02 -0.27058346504E+02  0.63190927486E+03  0.64503279324E+03  0.12500117471E+03 0.  0.
          5    1    3    3  501    0  0.19037500290E+02 -0.37810977858E+02  0.70997221889E+02  0.82660220057E+02  0.10000000000E+00 0.  1.
         -5    1    3    3    0  501 -0.39050618703E+02  0.10752631355E+02  0.56091205297E+03  0.56237257319E+03  0.10000000000E+00 0.  1.
          1    1    1    2  502    0  0.20013118413E+02  0.27058346504E+02  0.11819530217E+04  0.11824320803E+04  0.00000000000E+00 0. -1.
<mgrwt>
<rscale>  1 0.12945259E+03</rscale>
<asrwt>0</asrwt>
<pdfrwt beam="1">  1       21 0.10463535E-02 0.12945259E+03</pdfrwt>
<pdfrwt beam="2">  1        1 0.28010170E+00 0.12945259E+03</pdfrwt>
<totfact> 0.17582703E+05</totfact>
</mgrwt>
</event>
<event>
 6    2  0.1674964E-002  0.1271363E+03  0.7546771E-02  0.1231768E+00
         21   -1    0    0  502  503  0.00000000000E+00  0.00000000000E+00  0.15549689543E+02  0.15549689543E+02  0.00000000000E+00 0. -1.
          1   -1    0    0  503    0 -0.00000000000E+00 -0.00000000000E+00 -0.86435053501E+03  0.86435053501E+03  0.00000000000E+00 0.  1.
         25    2    1    2    0    0  0.16489604078E+02 -0.16421101352E+02 -0.24836906450E+03  0.27901763768E+03  0.12498836075E+03 0.  0.
          5    1    3    3  501    0 -0.49332978926E+02  0.18089243231E+02 -0.93997543644E+02  0.10768710109E+03  0.10000000000E+00 0.  1.
         -5    1    3    3    0  501  0.65822583003E+02 -0.34510344582E+02 -0.15437152086E+03  0.17133053659E+03  0.10000000000E+00 0.  1.
          1    1    1    2  502    0 -0.16489604078E+02  0.16421101352E+02 -0.60043178096E+03  0.60088258687E+03  0.00000000000E+00 0.  1.
<mgrwt>
<rscale>  1 0.12713634E+03</rscale>
<asrwt>0</asrwt>
<pdfrwt beam="1">  1       21 0.23922598E-02 0.12713634E+03</pdfrwt>
<pdfrwt beam="2">  1        1 0.13297701E+00 0.12713634E+03</pdfrwt>
<totfact> 0.20747141E+05</totfact>
</mgrwt>
</event>
<event>
 6    2  0.1674964E-002  0.2195443E+03  0.7546771E-02  0.1134223E+00
          2   -1    0    0  503    0 -0.00000000000E+00  0.00000000000E+00  0.27403330563E+04  0.27403330563E+04  0.00000000000E+00 0.  1.
         21   -1    0    0  502  503  0.00000000000E+00 -0.00000000000E+00 -0.27676469544E+02  0.27676469544E+02  0.00000000000E+00 0.  1.
         25    2    1    2    0    0  0.17405161455E+03 -0.47750757900E+02  0.23751598644E+04  0.23852849029E+04  0.12500234865E+03 0.  0.
          5    1    3    3  501    0  0.11360938373E+03 -0.45399497236E+02  0.83273109506E+03  0.84167053715E+03  0.10000000000E+00 0.  1.
         -5    1    3    3    0  501  0.60442230825E+02 -0.23512606636E+01  0.15424287693E+04  0.15436143657E+04  0.10000000000E+00 0.  1.
          2    1    1    2  502    0 -0.17405161455E+03  0.47750757900E+02  0.33749672243E+03  0.38272462301E+03  0.00000000000E+00 0.  1.
<mgrwt>
<rscale>  1 0.21954427E+03</rscale>
<asrwt>0</asrwt>
<pdfrwt beam="1">  1       21 0.42579206E-02 0.21954427E+03</pdfrwt>
<pdfrwt beam="2">  1        2 0.42158949E+00 0.21954427E+03</pdfrwt>
<totfact> 0.13482499E+04</totfact>
</mgrwt>
</event>
<event>
 6    2  0.1674964E-002  0.1260639E+03  0.7546771E-02  0.1233416E+00
         21   -1    0    0  502  503  0.00000000000E+00  0.00000000000E+00  0.31820551745E+03  0.31820551745E+03  0.00000000000E+00 0.  1.
          1   -1    0    0  503    0 -0.00000000000E+00 -0.00000000000E+00 -0.47814559798E+02  0.47814559798E+02  0.00000000000E+00 0. -1.
         25    2    1    2    0    0 -0.13988120460E+02 -0.84466544737E+01  0.30375156295E+03  0.32887248686E+03  0.12500034854E+03 0.  0.
          5    1    3    3  501    0 -0.15021753482E+02 -0.28285572318E+02  0.87474451652E+01  0.33200218011E+02  0.10000000000E+00 0.  1.
         -5    1    3    3    0  501  0.10336330212E+01  0.19838917844E+02  0.29500411778E+03  0.29567226885E+03  0.10000000000E+00 0.  1.
          1    1    1    2  502    0  0.13988120460E+02  0.84466544737E+01 -0.33360605296E+02  0.37147590387E+02  0.00000000000E+00 0. -1.
<mgrwt>
<rscale>  1 0.12606388E+03</rscale>
<asrwt>0</asrwt>
<pdfrwt beam="1">  1       21 0.48954694E-01 0.12606388E+03</pdfrwt>
<pdfrwt beam="2">  1        1 0.73560863E-02 0.12606388E+03</pdfrwt>
<totfact> 0.40887747E+04</totfact>
</mgrwt>
</event>
<event>
 6    2  0.1674964E-002  0.2165132E+03  0.7546771E-02  0.1136510E+00
         21   -1    0    0  502  503  0.00000000000E+00  0.00000000000E+00  0.26850069018E+03  0.26850069018E+03  0.00000000000E+00 0. -1.
          1   -1    0    0  503    0 -0.00000000000E+00 -0.00000000000E+00 -0.33964505344E+03  0.33964505344E+03  0.00000000000E+00 0. -1.
         25    2    1    2    0    0  0.37986475448E+02  0.17265246930E+03  0.19317128514E+03  0.29016050896E+03  0.12500451226E+03 0.  0.
          5    1    3    3  501    0 -0.91032881224E+01  0.62914646652E+01  0.86070625775E+02  0.86779116172E+02  0.10000000000E+00 0.  1.
         -5    1    3    3    0  501  0.47089763571E+02  0.16636100463E+03  0.10710065936E+03  0.20338139279E+03  0.10000000000E+00 0.  1.
          1    1    1    2  502    0 -0.37986475448E+02 -0.17265246930E+03 -0.26431564840E+03  0.31798523466E+03  0.00000000000E+00 0. -1.
<mgrwt>
<rscale>  1 0.21651322E+03</rscale>
<asrwt>0</asrwt>
<pdfrwt beam="1">  1       21 0.41307799E-01 0.21651322E+03</pdfrwt>
<pdfrwt beam="2">  1        1 0.52253085E-01 0.21651322E+03</pdfrwt>
<totfact> 0.45925478E+03</totfact>
</mgrwt>
</event>
<event>
 6    2  0.1674964E-002  0.1337220E+03  0.7546771E-02  0.1222035E+00
         21   -1    0    0  502  503  0.00000000000E+00  0.00000000000E+00  0.30952601716E+03  0.30952601716E+03  0.00000000000E+00 0.  1.
          4   -1    0    0  503    0 -0.00000000000E+00 -0.00000000000E+00 -0.50262733706E+03  0.50262733706E+03  0.00000000000E+00 0.  1.
         25    2    1    2    0    0 -0.46547169307E+02 -0.95443637083E+01  0.29387284470E+03  0.32286655609E+03  0.12499532128E+03 0.  0.
          5    1    3    3  501    0  0.33743535641E+02  0.29061127369E+02  0.92150940618E+02  0.10234735550E+03  0.10000000000E+00 0. -1.
         -5    1    3    3    0  501 -0.80290704948E+02 -0.38605491077E+02  0.20172190408E+03  0.22051920059E+03  0.10000000000E+00 0. -1.
          4    1    1    2  502    0  0.46547169307E+02  0.95443637083E+01 -0.48697416459E+03  0.48928679813E+03  0.00000000000E+00 0.  1.
<mgrwt>
<rscale>  1 0.13372197E+03</rscale>
<asrwt>0</asrwt>
<pdfrwt beam="1">  1       21 0.47619387E-01 0.13372197E+03</pdfrwt>
<pdfrwt beam="2">  1        4 0.77327283E-01 0.13372197E+03</pdfrwt>
<totfact> 0.27285387E+02</totfact>
</mgrwt>
</event>
<event>
 6    2  0.1674964E-002  0.1482414E+03  0.7546771E-02  0.1202651E+00
         21   -1    0    0  502  503  0.00000000000E+00  0.00000000000E+00  0.11382942228E+03  0.11382942228E+03  0.00000000000E+00 0. -1.
          2   -1    0    0  503    0 -0.00000000000E+00 -0.00000000000E+00 -0.11431418644E+03  0.11431418644E+03  0.00000000000E+00 0. -1.
         25    2    1    2    0    0  0.35110470457E+02  0.71603473634E+02 -0.43030460351E+01  0.14830388271E+03  0.12496288588E+03 0.  0.
          5    1    3    3  501    0  0.79936427709E+02  0.60084238263E+02 -0.14119895330E+02  0.10099173039E+03  0.10000000000E+00 0.  1.
         -5    1    3    3    0  501 -0.44825957252E+02  0.11519235371E+02  0.98168492944E+01  0.47312152320E+02  0.10000000000E+00 0.  1.
          2    1    1    2  502    0 -0.35110470457E+02 -0.71603473634E+02  0.38182818743E+01  0.79839726006E+02  0.00000000000E+00 0. -1.
<mgrwt>
<rscale>  1 0.14824144E+03</rscale>
<asrwt>0</asrwt>
<pdfrwt beam="1">  1       21 0.17512219E-01 0.14824144E+03</pdfrwt>
<pdfrwt beam="2">  1        2 0.17586798E-01 0.14824144E+03</pdfrwt>
<totfact> 0.11542123E+05</totfact>
</mgrwt>
</event>
<event>
 6    2  0.1674964E-002  0.1319814E+03  0.7546771E-02  0.1224545E+00
         21   -1    0    0  502  503  0.00000000000E+00  0.00000000000E+00  0.45412944744E+03  0.45412944744E+03  0.00000000000E+00 0.  1.
          3   -1    0    0  503    0 -0.00000000000E+00 -0.00000000000E+00 -0.20332120893E+03  0.20332120893E+03  0.00000000000E+00 0. -1.
         25    2    1    2    0    0  0.41719868912E+02 -0.73478168160E+01  0.44217467000E+03  0.46145155185E+03  0.12499823214E+03 0.  0.
          5    1    3    3  501    0 -0.11664460002E+00  0.21558601430E+01 -0.84841853658E+01  0.87551550666E+01  0.10000000000E+00 0. -1.
         -5    1    3    3    0  501  0.41836513512E+02 -0.95036769590E+01  0.45065885537E+03  0.45269639678E+03  0.10000000000E+00 0. -1.
          3    1    1    2  502    0 -0.41719868912E+02  0.73478168160E+01 -0.19136643148E+03  0.19599910452E+03  0.00000000000E+00 0. -1.
<mgrwt>
<rscale>  1 0.13198142E+03</rscale>
<asrwt>0</asrwt>
<pdfrwt beam="1">  1       21 0.69866069E-01 0.13198142E+03</pdfrwt>
<pdfrwt beam="2">  1        3 0.31280186E-01 0.13198142E+03</pdfrwt>
<totfact> 0.91684315E+02</totfact>
</mgrwt>
</event>
<event>
 6    2  0.1674964E-002  0.1264869E+03  0.7546771E-02  0.1232764E+00
         21   -1    0    0  502  503  0.00000000000E+00  0.00000000000E+00  0.18011318232E+02  0.18011318232E+02  0.00000000000E+00 0. -1.
          1   -1    0    0  503    0 -0.00000000000E+00 -0.00000000000E+00 -0.48282733294E+03  0.48282733294E+03  0.00000000000E+00 0. -1.
         25    2    1    2    0    0  0.46275356942E+01  0.18779587188E+02 -0.20901605582E+03  0.24430852439E+03  0.12499942606E+03 0.  0.
          5    1    3    3  501    0 -0.80038271739E+01 -0.27965940742E+02  0.67747865134E+00  0.29096805122E+02  0.10000000000E+00 0.  1.
         -5    1    3    3    0  501  0.12631362868E+02  0.46745527930E+02 -0.20969353448E+03  0.21521171927E+03  0.10000000000E+00 0.  1.
          1    1    1    2  502    0 -0.46275356942E+01 -0.18779587188E+02 -0.25579995889E+03  0.25653012678E+03  0.00000000000E+00 0. -1.
<mgrwt>
<rscale>  1 0.12648693E+03</rscale>
<asrwt>0</asrwt>
<pdfrwt beam="1">  1       21 0.27709721E-02 0.12648693E+03</pdfrwt>
<pdfrwt beam="2">  1        1 0.74281127E-01 0.12648693E+03</pdfrwt>
<totfact> 0.36890229E+05</totfact>
</mgrwt>
</event>
<event>
 6    2  0.1674964E-002  0.1279864E+03  0.7546771E-02  0.1230475E+00
          2   -1    0    0  503    0 -0.00000000000E+00  0.00000000000E+00  0.18476084236E+03  0.18476084236E+03  0.00000000000E+00 0. -1.
         21   -1    0    0  502  503  0.00000000000E+00 -0.00000000000E+00 -0.19555122813E+03  0.19555122813E+03  0.00000000000E+00 0. -1.
         25    2    1    2    0    0  0.22058548389E+02 -0.16478016798E+02 -0.17332723354E+03  0.21545961683E+03  0.12498964759E+03 0.  0.
          5    1    3    3  501    0  0.72791672624E+02  0.24489580106E+01 -0.11254355203E+03  0.13405478769E+03  0.10000000000E+00 0.  1.
         -5    1    3    3    0  501 -0.50733124236E+02 -0.18926974809E+02 -0.60783681513E+02  0.81404829147E+02  0.10000000000E+00 0.  1.
          2    1    1    2  502    0 -0.22058548389E+02  0.16478016798E+02  0.16253684777E+03  0.16485245366E+03  0.00000000000E+00 0. -1.
<mgrwt>
<rscale>  1 0.12798639E+03</rscale>
<asrwt>0</asrwt>
<pdfrwt beam="1">  1       21 0.30084804E-01 0.12798639E+03</pdfrwt>
<pdfrwt beam="2">  1        2 0.28424745E-01 0.12798639E+03</pdfrwt>
<totfact> 0.24365787E+04</totfact>
</mgrwt>
</event>
<event>
 6    2  0.1674964E-002  0.1264041E+03  0.7546771E-02  0.1232891E+00
          2   -1    0    0  503    0 -0.00000000000E+00  0.00000000000E+00  0.71857540589E+03  0.71857540589E+03  0.00000000000E+00 0.  1.
         21   -1    0    0  502  503  0.00000000000E+00 -0.00000000000E+00 -0.12316692354E+02  0.12316692354E+02  0.00000000000E+00 0.  1.
         25    2    1    2    0    0 -0.92091390119E-01  0.18784525431E+02  0.31832319898E+03  0.34250204903E+03  0.12500051081E+03 0.  0.
          5    1    3    3  501    0 -0.47056303245E+02 -0.20125055149E+02  0.69484583124E+02  0.86298498316E+02  0.10000000000E+00 0. -1.
         -5    1    3    3    0  501  0.46964211854E+02  0.38909580580E+02  0.24883861586E+03  0.25620355071E+03  0.10000000000E+00 0. -1.
          2    1    1    2  502    0  0.92091390119E-01 -0.18784525431E+02  0.38793551455E+03  0.38839004921E+03  0.00000000000E+00 0.  1.
<mgrwt>
<rscale>  1 0.12640409E+03</rscale>
<asrwt>0</asrwt>
<pdfrwt beam="1">  1       21 0.18948763E-02 0.12640409E+03</pdfrwt>
<pdfrwt beam="2">  1        2 0.11055003E+00 0.12640409E+03</pdfrwt>
<totfact> 0.67256952E+05</totfact>
</mgrwt>
</event>
<event>
 6    2  0.1674964E-002  0.1300901E+03  0.7546771E-02  0.1227322E+00
         21   -1    0    0  502  503  0.00000000000E+00  0.00000000000E+00  0.31164639284E+02  0.31164639284E+02  0.00000000000E+00 0. -1.
          1   -1    0    0  503    0 -0.00000000000E+00 -0.00000000000E+00 -0.60691378710E+03  0.60691378710E+03  0.00000000000E+00 0. -1.
         25    2    1    2    0    0  0.57010932843E+01  0.35583110445E+02 -0.10837770616E+03  0.16931972013E+03  0.12499912087E+03 0.  0.
          5    1    3    3  501    0  0.34445079923E+02 -0.14921210889E+02 -0.10454753640E+03  0.11108241730E+03  0.10000000000E+00 0.  1.
         -5    1    3    3    0  501 -0.28743986639E+02  0.50504321334E+02 -0.38301697647E+01  0.58237302837E+02  0.10000000000E+00 0.  1.
          1    1    1    2  502    0 -0.57010932843E+01 -0.35583110445E+02 -0.46737144165E+03  0.46875870625E+03  0.00000000000E+00 0. -1.
<mgrwt>
<rscale>  1 0.13009012E+03</rscale>
<asrwt>0</asrwt>
<pdfrwt beam="1">  1       21 0.47945598E-02 0.13009012E+03</pdfrwt>
<pdfrwt beam="2">  1        1 0.93371353E-01 0.13009012E+03</pdfrwt>
<totfact> 0.11013796E+05</totfact>
</mgrwt>
</event>
<event>
 6    2  0.1674964E-002  0.1353857E+03  0.7546771E-02  0.1219676E+00
         21   -1    0    0  502  503  0.00000000000E+00  0.00000000000E+00  0.31030382217E+02  0.31030382217E+02  0.00000000000E+00 0.  1.
          1   -1    0    0  503    0 -0.00000000000E+00 -0.00000000000E+00 -0.12904256914E+04  0.12904256914E+04  0.00000000000E+00 0. -1.
         25    2    1    2    0    0 -0.47950627308E+02  0.20116324833E+02 -0.12011198558E+03  0.18098668751E+03  0.12500145117E+03 0.  0.
          5    1    3    3  501    0 -0.69096883968E+02  0.45825189280E+02 -0.12215536030E+03  0.14763559665E+03  0.10000000000E+00 0. -1.
         -5    1    3    3    0  501  0.21146256660E+02 -0.25708864447E+02  0.20433747254E+01  0.33351090869E+02  0.10000000000E+00 0. -1.
          1    1    1    2  502    0  0.47950627308E+02 -0.20116324833E+02 -0.11392833236E+04  0.11404693861E+04  0.00000000000E+00 0. -1.
<mgrwt>
<rscale>  1 0.13538572E+03</rscale>
<asrwt>0</asrwt>
<pdfrwt beam="1">  1       21 0.47739051E-02 0.13538572E+03</pdfrwt>
<pdfrwt beam="2">  1        1 0.19852702E+00 0.13538572E+03</pdfrwt>
<totfact> 0.32932608E+04</totfact>
</mgrwt>
</event>
<event>
 6    2  0.1674964E-002  0.1284395E+03  0.7546771E-02  0.1229790E+00
          4   -1    0    0  503    0 -0.00000000000E+00  0.00000000000E+00  0.49525973782E+02  0.49525973782E+02  0.00000000000E+00 0. -1.
         21   -1    0    0  502  503  0.00000000000E+00 -0.00000000000E+00 -0.13402818863E+03  0.13402818863E+03  0.00000000000E+00 0. -1.
         25    2    1    2    0    0  0.26228791270E+02 -0.13556974856E+02 -0.85010822015E+02  0.15402452070E+03  0.12499988823E+03 0.  0.
          5    1    3    3  501    0  0.57058281437E+02 -0.53074221585E+02 -0.45806371620E+02  0.90392223993E+02  0.10000000000E+00 0. -1.
         -5    1    3    3    0  501 -0.30829490167E+02  0.39517246729E+02 -0.39204450395E+02  0.63632296704E+02  0.10000000000E+00 0. -1.
          4    1    1    2  502    0 -0.26228791270E+02  0.13556974856E+02  0.50860716346E+00  0.29529641718E+02  0.00000000000E+00 0. -1.
<mgrwt>
<rscale>  1 0.12843953E+03</rscale>
<asrwt>0</asrwt>
<pdfrwt beam="1">  1       21 0.20619721E-01 0.12843953E+03</pdfrwt>
<pdfrwt beam="2">  1        4 0.76193808E-02 0.12843953E+03</pdfrwt>
<totfact> 0.10461088E+05</totfact>
</mgrwt>
</event>
<event>
 6    2  0.1674964E-002  0.1496984E+03  0.7546771E-02  0.1200844E+00
         21   -1    0    0  502  503  0.00000000000E+00  0.00000000000E+00  0.20054622940E+02  0.20054622940E+02  0.00000000000E+00 0. -1.
          1   -1    0    0  503    0 -0.00000000000E+00 -0.00000000000E+00 -0.25740874523E+04  0.25740874523E+04  0.00000000000E+00 0. -1.
         25    2    1    2    0    0 -0.29684726534E+01 -0.82320219659E+02 -0.27078915584E+03  0.30941296590E+03  0.12499674456E+03 0.  0.
          5    1    3    3  501    0  0.68551846901E+01 -0.14349848549E+02 -0.22787825470E+03  0.22843252981E+03  0.10000000000E+00 0. -1.
         -5    1    3    3    0  501 -0.98236573435E+01 -0.67970371110E+02 -0.42910901139E+02  0.80980436088E+02  0.10000000000E+00 0. -1.
          1    1    1    2  502    0  0.29684726534E+01  0.82320219659E+02 -0.22832436735E+04  0.22847291093E+04  0.00000000000E+00 0. -1.
<mgrwt>
<rscale>  1 0.14969842E+03</rscale>
<asrwt>0</asrwt>
<pdfrwt beam="1">  1       21 0.30853273E-02 0.14969842E+03</pdfrwt>
<pdfrwt beam="2">  1        1 0.39601337E+00 0.14969842E+03</pdfrwt>
<totfact> 0.10061689E+04</totfact>
</mgrwt>
</event>
<event>
 6    2  0.1674964E-002  0.2095553E+03  0.7546771E-02  0.1141919E+00
          4   -1    0    0  503    0 -0.00000000000E+00  0.00000000000E+00  0.91565425854E+03  0.91565425854E+03  0.00000000000E+00 0. -1.
         21   -1    0    0  502  503  0.00000000000E+00 -0.00000000000E+00 -0.54225174312E+02  0.54225174312E+02  0.00000000000E+00 0. -1.
         25    2    1    2    0    0  0.93232449960E+02  0.13998610676E+03  0.20840546090E+03  0.29554401747E+03  0.12500012128E+03 0.  0.
          5    1    3    3  501    0  0.72308512321E+02  0.42569810284E+02  0.16845286500E+03  0.18819428108E+03  0.10000000000E+00 0.  1.
         -5    1    3    3    0  501  0.20923937639E+02  0.97416296477E+02  0.39952595896E+02  0.10734973640E+03  0.10000000000E+00 0.  1.
          4    1    1    2  502    0 -0.93232449960E+02 -0.13998610676E+03  0.65302362333E+03  0.67433541538E+03  0.00000000000E+00 0. -1.
<mgrwt>
<rscale>  1 0.20955532E+03</rscale>
<asrwt>0</asrwt>
<pdfrwt beam="1">  1       21 0.83423352E-02 0.20955532E+03</pdfrwt>
<pdfrwt beam="2">  1        4 0.14086987E+00 0.20955532E+03</pdfrwt>
<totfact> 0.17513217E+03</totfact>
</mgrwt>
</event>
<event>
 6    2  0.1674964E-002  0.1392614E+03  0.7546771E-02  0.1214326E+00
          2   -1    0    0  503    0 -0.00000000000E+00  0.00000000000E+00  0.20994117536E+03  0.20994117536E+03  0.00000000000E+00 0.  1.
         21   -1    0    0  502  503  0.00000000000E+00 -0.00000000000E+00 -0.77343418447E+02  0.77343418447E+02  0.00000000000E+00 0.  1.
         25    2    1    2    0    0 -0.54700087138E+02  0.27875703854E+02 -0.20764397048E+01  0.13927684525E+03  0.12499829448E+03 0.  0.
          5    1    3    3  501    0  0.27112137166E+02  0.36859833105E+01 -0.37902088471E+02  0.46746473290E+02  0.10000000000E+00 0.  1.
         -5    1    3    3    0  501 -0.81812224304E+02  0.24189720543E+02  0.35825648766E+02  0.92530371960E+02  0.10000000000E+00 0.  1.
          2    1    1    2  502    0  0.54700087138E+02 -0.27875703854E+02  0.13467419662E+03  0.14800774856E+03  0.00000000000E+00 0.  1.
<mgrwt>
<rscale>  1 0.13926137E+03</rscale>
<asrwt>0</asrwt>
<pdfrwt beam="1">  1       21 0.11898988E-01 0.13926137E+03</pdfrwt>
<pdfrwt beam="2">  1        2 0.32298642E-01 0.13926137E+03</pdfrwt>
<totfact> 0.11758413E+05</totfact>
</mgrwt>
</event>
<event>
 6    2  0.1674964E-002  0.1282419E+03  0.7546771E-02  0.1230088E+00
          1   -1    0    0  503    0 -0.00000000000E+00  0.00000000000E+00  0.54693828700E+02  0.54693828700E+02  0.00000000000E+00 0.  1.
         21   -1    0    0  502  503  0.00000000000E+00 -0.00000000000E+00 -0.22836224278E+03  0.22836224278E+03  0.00000000000E+00 0.  1.
         25    2    1    2    0    0  0.25756092489E+02 -0.12632243854E+02 -0.20422026488E+03  0.24114705726E+03  0.12499214677E+03 0.  0.
          5    1    3    3  501    0  0.62708523444E+02 -0.32639594129E+02 -0.17822817847E+03  0.19173678733E+03  0.10000000000E+00 0. -1.
         -5    1    3    3    0  501 -0.36952430955E+02  0.20007350275E+02 -0.25992086417E+02  0.49410269932E+02  0.10000000000E+00 0. -1.
          1    1    1    2  502    0 -0.25756092489E+02  0.12632243854E+02  0.30551850802E+02  0.41909014215E+02  0.00000000000E+00 0.  1.
<mgrwt>
<rscale>  1 0.12824191E+03</rscale>
<asrwt>0</asrwt>
<pdfrwt beam="1">  1       21 0.35132654E-01 0.12824191E+03</pdfrwt>
<pdfrwt beam="2">  1        1 0.84144349E-02 0.12824191E+03</pdfrwt>
<totfact> 0.66529513E+04</totfact>
</mgrwt>
</event>
<event>
 6    2  0.1674964E-002  0.1270190E+03  0.7546771E-02  0.1231947E+00
         21   -1    0    0  502  503  0.00000000000E+00  0.00000000000E+00  0.34849202030E+02  0.34849202030E+02  0.00000000000E+00 0. -1.
          2   -1    0    0  503    0 -0.00000000000E+00 -0.00000000000E+00 -0.95054077101E+03  0.95054077101E+03  0.00000000000E+00 0. -1.
         25    2    1    2    0    0  0.21543938577E+02  0.55599395438E+01 -0.81534206132E+02  0.15093592385E+03  0.12505507635E+03 0.  0.
          5    1    3    3  501    0 -0.14385544542E+02 -0.54784147042E+02 -0.40017833851E+02  0.69351883067E+02  0.10000000000E+00 0. -1.
         -5    1    3    3    0  501  0.35929483119E+02  0.60344086586E+02 -0.41516372282E+02  0.81584040783E+02  0.10000000000E+00 0. -1.
          2    1    1    2  502    0 -0.21543938577E+02 -0.55599395438E+01 -0.83415736284E+03  0.83445404919E+03  0.00000000000E+00 0. -1.
<mgrwt>
<rscale>  1 0.12701900E+03</rscale>
<asrwt>0</asrwt>
<pdfrwt beam="1">  1       21 0.53614157E-02 0.12701900E+03</pdfrwt>
<pdfrwt beam="2">  1        2 0.14623704E+00 0.12701900E+03</pdfrwt>
<totfact> 0.85488085E+04</totfact>
</mgrwt>
</event>
<event>
 6    2  0.1674964E-002  0.1284645E+03  0.7546771E-02  0.1229752E+00
          2   -1    0    0  503    0 -0.00000000000E+00  0.00000000000E+00  0.82130288878E+02  0.82130288878E+02  0.00000000000E+00 0.  1.
         21   -1    0    0  502  503  0.00000000000E+00 -0.00000000000E+00 -0.84950376530E+02  0.84950376530E+02  0.00000000000E+00 0.  1.
         25    2    1    2    0    0 -0.18957081605E+02 -0.22790390564E+02 -0.23948456605E+02  0.13067763230E+03  0.12499736863E+03 0.  0.
          5    1    3    3  501    0 -0.55293783461E+02 -0.53817597788E+02  0.15570640027E+00  0.77160680179E+02  0.10000000000E+00 0. -1.
         -5    1    3    3    0  501  0.36336701856E+02  0.31027207224E+02 -0.24104163006E+02  0.53516952119E+02  0.10000000000E+00 0. -1.
          2    1    1    2  502    0  0.18957081605E+02  0.22790390564E+02  0.21128368953E+02  0.36403033111E+02  0.00000000000E+00 0.  1.
<mgrwt>
<rscale>  1 0.12846445E+03</rscale>
<asrwt>0</asrwt>
<pdfrwt beam="1">  1       21 0.13069289E-01 0.12846445E+03</pdfrwt>
<pdfrwt beam="2">  1        2 0.12635429E-01 0.12846445E+03</pdfrwt>
<totfact> 0.28650698E+05</totfact>
</mgrwt>
</event>
<event>
 6    2  0.1674964E-002  0.1267755E+03  0.7546771E-02  0.1232320E+00
          1   -1    0    0  503    0 -0.00000000000E+00  0.00000000000E+00  0.40696074997E+03  0.40696074997E+03  0.00000000000E+00 0.  1.
         21   -1    0    0  502  503  0.00000000000E+00 -0.00000000000E+00 -0.11151229388E+03  0.11151229388E+03  0.00000000000E+00 0. -1.
         25    2    1    2    0    0 -0.13839673926E+02 -0.15889950125E+02 -0.75084012763E+02  0.14734188433E+03  0.12501197870E+03 0.  0.
          5    1    3    3  501    0  0.18613174080E+02  0.30826066374E+00 -0.10103985187E+03  0.10274048346E+03  0.10000000000E+00 0.  1.
         -5    1    3    3    0  501 -0.32452848006E+02 -0.16198210789E+02  0.25955839111E+02  0.44601400879E+02  0.10000000000E+00 0.  1.
          1    1    1    2  502    0  0.13839673926E+02  0.15889950125E+02  0.37053246886E+03  0.37113115952E+03  0.00000000000E+00 0.  1.
<mgrwt>
<rscale>  1 0.12677548E+03</rscale>
<asrwt>0</asrwt>
<pdfrwt beam="1">  1       21 0.17155738E-01 0.12677548E+03</pdfrwt>
<pdfrwt beam="2">  1        1 0.62609346E-01 0.12677548E+03</pdfrwt>
<totfact> 0.20133423E+04</totfact>
</mgrwt>
</event>
<event>
 6    2  0.1674964E-002  0.1731693E+03  0.7546771E-02  0.1174583E+00
          1   -1    0    0  503    0 -0.00000000000E+00  0.00000000000E+00  0.93489836938E+03  0.93489836938E+03  0.00000000000E+00 0.  1.
         21   -1    0    0  502  503  0.00000000000E+00 -0.00000000000E+00 -0.30410078987E+02  0.30410078987E+02  0.00000000000E+00 0. -1.
         25    2    1    2    0    0 -0.72304444456E+02 -0.95550764383E+02  0.27844571891E+03  0.32790184142E+03  0.12501887045E+03 0.  0.
          5    1    3    3  501    0 -0.36392652532E+02 -0.11588898237E+03  0.24948224767E+03  0.27748168101E+03  0.10000000000E+00 0.  1.
         -5    1    3    3    0  501 -0.35911791924E+02  0.20338217986E+02  0.28963471232E+02  0.50420160411E+02  0.10000000000E+00 0.  1.
          1    1    1    2  502    0  0.72304444456E+02  0.95550764383E+02  0.62604257149E+03  0.63740660695E+03  0.00000000000E+00 0.  1.
<mgrwt>
<rscale>  1 0.17316928E+03</rscale>
<asrwt>0</asrwt>
<pdfrwt beam="1">  1       21 0.46784744E-02 0.17316928E+03</pdfrwt>
<pdfrwt beam="2">  1        1 0.14383050E+00 0.17316928E+03</pdfrwt>
<totfact> 0.60630058E+04</totfact>
</mgrwt>
</event>
<event>
 6    2  0.1674964E-002  0.1307033E+03  0.7546771E-02  0.1226416E+00
         21   -1    0    0  502  503  0.00000000000E+00  0.00000000000E+00  0.84655045634E+01  0.84655045634E+01  0.00000000000E+00 0. -1.
          2   -1    0    0  503    0 -0.00000000000E+00 -0.00000000000E+00 -0.25124486660E+04  0.25124486660E+04  0.00000000000E+00 0.  1.
         25    2    1    2    0    0 -0.38014386944E+02 -0.36028904424E+01 -0.50733435879E+03  0.52390027087E+03  0.12500107112E+03 0.  0.
          5    1    3    3  501    0  0.41372972875E+01 -0.22043594701E+02 -0.44921266421E+03  0.44977223679E+03  0.10000000000E+00 0. -1.
         -5    1    3    3    0  501 -0.42151684231E+02  0.18440704259E+02 -0.58121694573E+02  0.74128034084E+02  0.10000000000E+00 0. -1.
          2    1    1    2  502    0  0.38014386944E+02  0.36028904424E+01 -0.19966488027E+04  0.19970138997E+04  0.00000000000E+00 0.  1.
<mgrwt>
<rscale>  1 0.13070326E+03</rscale>
<asrwt>0</asrwt>
<pdfrwt beam="1">  1       21 0.13023842E-02 0.13070326E+03</pdfrwt>
<pdfrwt beam="2">  1        2 0.38653091E+00 0.13070326E+03</pdfrwt>
<totfact> 0.12849542E+05</totfact>
</mgrwt>
</event>
<event>
 6    2  0.1674964E-002  0.1287523E+03  0.7546771E-02  0.1229319E+00
         21   -1    0    0  502  503  0.00000000000E+00  0.00000000000E+00  0.20334330390E+03  0.20334330390E+03  0.00000000000E+00 0. -1.
          3   -1    0    0  503    0 -0.00000000000E+00 -0.00000000000E+00 -0.32174905746E+02  0.32174905746E+02  0.00000000000E+00 0. -1.
         25    2    1    2    0    0 -0.30324790661E+02  0.57716112460E+01  0.15191717116E+03  0.19913807543E+03  0.12499696703E+03 0.  0.
          5    1    3    3  501    0 -0.29788365103E+00 -0.31061715428E+02 -0.81919666470E+01  0.32125336069E+02  0.10000000000E+00 0.  1.
         -5    1    3    3    0  501 -0.30026907010E+02  0.36833326674E+02  0.16010913781E+03  0.16701273936E+03  0.10000000000E+00 0.  1.
          3    1    1    2  502    0  0.30324790661E+02 -0.57716112460E+01  0.19251226993E+02  0.36380134218E+02  0.00000000000E+00 0. -1.
<mgrwt>
<rscale>  1 0.12875227E+03</rscale>
<asrwt>0</asrwt>
<pdfrwt beam="1">  1       21 0.31283584E-01 0.12875227E+03</pdfrwt>
<pdfrwt beam="2">  1        3 0.49499856E-02 0.12875227E+03</pdfrwt>
<totfact> 0.10767513E+05</totfact>
</mgrwt>
</event>
<event>
 6    2  0.1674964E-002  0.1267994E+03  0.7546771E-02  0.1232284E+00
          2   -1    0    0  503    0 -0.00000000000E+00  0.00000000000E+00  0.65140026467E+03  0.65140026467E+03  0.00000000000E+00 0.  1.
         21   -1    0    0  502  503  0.00000000000E+00 -0.00000000000E+00 -0.10388975005E+03  0.10388975005E+03  0.00000000000E+00 0.  1.
         25    2    1    2    0    0 -0.18462980300E+02 -0.10683390552E+02 -0.64944548614E+02  0.14246359479E+03  0.12499225964E+03 0.  0.
          5    1    3    3  501    0 -0.23368284138E+02  0.23995982593E+02  0.27671194019E+02  0.43446390674E+02  0.10000000000E+00 0. -1.
         -5    1    3    3    0  501  0.49053038385E+01 -0.34679373145E+02 -0.92615742633E+02  0.99017204116E+02  0.10000000000E+00 0. -1.
          2    1    1    2  502    0  0.18462980300E+02  0.10683390552E+02  0.61245506324E+03  0.61282641993E+03  0.00000000000E+00 0.  1.
<mgrwt>
<rscale>  1 0.12679937E+03</rscale>
<asrwt>0</asrwt>
<pdfrwt beam="1">  1       21 0.15983039E-01 0.12679937E+03</pdfrwt>
<pdfrwt beam="2">  1        2 0.10021542E+00 0.12679937E+03</pdfrwt>
<totfact> 0.20345210E+04</totfact>
</mgrwt>
</event>
<event>
 6    2  0.1674964E-002  0.1374710E+03  0.7546771E-02  0.1216773E+00
         21   -1    0    0  502  503  0.00000000000E+00  0.00000000000E+00  0.26353723134E+02  0.26353723134E+02  0.00000000000E+00 0. -1.
          1   -1    0    0  503    0 -0.00000000000E+00 -0.00000000000E+00 -0.77568050079E+03  0.77568050079E+03  0.00000000000E+00 0. -1.
         25    2    1    2    0    0  0.18312796957E+02  0.54204287008E+02 -0.16434184180E+03  0.21425804336E+03  0.12499921966E+03 0.  0.
          5    1    3    3  501    0 -0.52486039070E+02  0.35630385283E+02 -0.88159949840E+02  0.10861167252E+03  0.10000000000E+00 0. -1.
         -5    1    3    3    0  501  0.70798836027E+02  0.18573901725E+02 -0.76181891963E+02  0.10564637084E+03  0.10000000000E+00 0. -1.
          1    1    1    2  502    0 -0.18312796957E+02 -0.54204287008E+02 -0.58498493585E+03  0.58777618056E+03  0.00000000000E+00 0. -1.
<mgrwt>
<rscale>  1 0.13747097E+03</rscale>
<asrwt>0</asrwt>
<pdfrwt beam="1">  1       21 0.40544194E-02 0.13747097E+03</pdfrwt>
<pdfrwt beam="2">  1        1 0.11933545E+00 0.13747097E+03</pdfrwt>
<totfact> 0.10297698E+05</totfact>
</mgrwt>
</event>
<event>
 6    2  0.1674964E-002  0.1269430E+03  0.7546771E-02  0.1232064E+00
          2   -1    0    0  503    0 -0.00000000000E+00  0.00000000000E+00  0.68355451559E+03  0.68355451559E+03  0.00000000000E+00 0. -1.
         21   -1    0    0  502  503  0.00000000000E+00 -0.00000000000E+00 -0.84565906661E+01  0.84565906661E+01  0.00000000000E+00 0.  1.
         25    2    1    2    0    0 -0.22082823193E+02  0.10063476973E+01  0.51603580779E+03  0.53142025682E+03  0.12500348243E+03 0.  0.
          5    1    3    3  501    0  0.25906940951E+02 -0.45016275523E+02  0.13538943999E+03  0.14501015520E+03  0.10000000000E+00 0. -1.
         -5    1    3    3    0  501 -0.47989764144E+02  0.46022623220E+02  0.38064636781E+03  0.38641010162E+03  0.10000000000E+00 0. -1.
          2    1    1    2  502    0  0.22082823193E+02 -0.10063476973E+01  0.15906211713E+03  0.16059084943E+03  0.00000000000E+00 0. -1.
<mgrwt>
<rscale>  1 0.12694304E+03</rscale>
<asrwt>0</asrwt>
<pdfrwt beam="1">  1       21 0.13010145E-02 0.12694304E+03</pdfrwt>
<pdfrwt beam="2">  1        2 0.10516219E+00 0.12694304E+03</pdfrwt>
<totfact> 0.13021704E+06</totfact>
</mgrwt>
</event>
<event>
 6    2  0.1674964E-002  0.1261867E+03  0.7546771E-02  0.1233226E+00
          1   -1    0    0  503    0 -0.00000000000E+00  0.00000000000E+00  0.76620891944E+02  0.76620891944E+02  0.00000000000E+00 0.  1.
         21   -1    0    0  502  503  0.00000000000E+00 -0.00000000000E+00 -0.11786626990E+03  0.11786626990E+03  0.00000000000E+00 0.  1.
         25    2    1    2    0    0  0.17216826556E+02  0.73395924303E+00 -0.81829074666E+02  0.15039641166E+03  0.12500450138E+03 0.  0.
          5    1    3    3  501    0  0.65234806021E+01 -0.24702708465E+02  0.27559819870E+02  0.37581022817E+02  0.10000000000E+00 0. -1.
         -5    1    3    3    0  501  0.10693345954E+02  0.25436667709E+02 -0.10938889454E+03  0.11281538884E+03  0.10000000000E+00 0. -1.
          1    1    1    2  502    0 -0.17216826556E+02 -0.73395924303E+00  0.40583696712E+02  0.44090750183E+02  0.00000000000E+00 0.  1.
<mgrwt>
<rscale>  1 0.12618670E+03</rscale>
<asrwt>0</asrwt>
<pdfrwt beam="1">  1       21 0.18133272E-01 0.12618670E+03</pdfrwt>
<pdfrwt beam="2">  1        1 0.11787830E-01 0.12618670E+03</pdfrwt>
<totfact> 0.14889062E+05</totfact>
</mgrwt>
</event>
<event>
 6    2  0.1674964E-002  0.1695629E+03  0.7546771E-02  0.1178304E+00
         21   -1    0    0  502  503  0.00000000000E+00  0.00000000000E+00  0.96493148207E+01  0.96493148207E+01  0.00000000000E+00 0. -1.
          2   -1    0    0  503    0 -0.00000000000E+00 -0.00000000000E+00 -0.22132231577E+04  0.22132231577E+04  0.00000000000E+00 0. -1.
         25    2    1    2    0    0  0.13058709043E+01 -0.11454750142E+03 -0.10472827015E+04  0.10609206495E+04  0.12501492831E+03 0.  0.
          5    1    3    3  501    0  0.26646373721E+02 -0.97597995108E+02 -0.38927106521E+03  0.40220314530E+03  0.10000000000E+00 0.  1.
         -5    1    3    3    0  501 -0.25340502817E+02 -0.16949506316E+02 -0.65801163629E+03  0.65871750421E+03  0.10000000000E+00 0.  1.
          2    1    1    2  502    0 -0.13058709043E+01  0.11454750142E+03 -0.11562911414E+04  0.11619518230E+04  0.00000000000E+00 0. -1.
<mgrwt>
<rscale>  1 0.16956287E+03</rscale>
<asrwt>0</asrwt>
<pdfrwt beam="1">  1       21 0.14845101E-02 0.16956287E+03</pdfrwt>
<pdfrwt beam="2">  1        2 0.34049583E+00 0.16956287E+03</pdfrwt>
<totfact> 0.14916491E+05</totfact>
</mgrwt>
</event>
<event>
 6    2  0.1674964E-002  0.1416123E+03  0.7546771E-02  0.1211176E+00
         21   -1    0    0  502  503  0.00000000000E+00  0.00000000000E+00  0.55966076317E+03  0.55966076317E+03  0.00000000000E+00 0. -1.
          1   -1    0    0  503    0 -0.00000000000E+00 -0.00000000000E+00 -0.93988087352E+03  0.93988087352E+03  0.00000000000E+00 0. -1.
         25    2    1    2    0    0  0.63003263470E+01  0.66256446244E+02  0.54949396260E+03  0.56744836441E+03  0.12499768219E+03 0.  0.
          5    1    3    3  501    0  0.12930375505E+02  0.58383411114E+02  0.55326413039E+03  0.55648632084E+03  0.10000000000E+00 0.  1.
         -5    1    3    3    0  501 -0.66300491579E+01  0.78730351299E+01 -0.37701677918E+01  0.10962043567E+02  0.10000000000E+00 0.  1.
          1    1    1    2  502    0 -0.63003263470E+01 -0.66256446244E+02 -0.92971407295E+03  0.93209327228E+03  0.00000000000E+00 0. -1.
<mgrwt>
<rscale>  1 0.14161226E+03</rscale>
<asrwt>0</asrwt>
<pdfrwt beam="1">  1       21 0.86101655E-01 0.14161226E+03</pdfrwt>
<pdfrwt beam="2">  1        1 0.14459706E+00 0.14161226E+03</pdfrwt>
<totfact> 0.24273251E+02</totfact>
</mgrwt>
</event>
<event>
 6    2  0.1674964E-002  0.2046200E+03  0.7546771E-02  0.1145899E+00
         21   -1    0    0  502  503  0.00000000000E+00  0.00000000000E+00  0.41034957599E+03  0.41034957599E+03  0.00000000000E+00 0. -1.
          3   -1    0    0  503    0 -0.00000000000E+00 -0.00000000000E+00 -0.11539564522E+04  0.11539564522E+04  0.00000000000E+00 0. -1.
         25    2    1    2    0    0 -0.84453543679E+02 -0.13824364538E+03  0.37865850690E+03  0.43040863572E+03  0.12500248926E+03 0.  0.
          5    1    3    3  501    0  0.77958500340E+01 -0.28999292531E+02  0.19676939352E+03  0.19904757841E+03  0.10000000000E+00 0.  1.
         -5    1    3    3    0  501 -0.92249393713E+02 -0.10924435285E+03  0.18188911338E+03  0.23136105730E+03  0.10000000000E+00 0.  1.
          3    1    1    2  502    0  0.84453543679E+02  0.13824364538E+03 -0.11222653832E+04  0.11338973925E+04  0.00000000000E+00 0. -1.
<mgrwt>
<rscale>  1 0.20461996E+03</rscale>
<asrwt>0</asrwt>
<pdfrwt beam="1">  1       21 0.63130705E-01 0.20461996E+03</pdfrwt>
<pdfrwt beam="2">  1        3 0.17753176E+00 0.20461996E+03</pdfrwt>
<totfact> 0.25424501E+01</totfact>
</mgrwt>
</event>
<event>
 6    2  0.1674964E-002  0.1526476E+03  0.7546771E-02  0.1197257E+00
          2   -1    0    0  503    0 -0.00000000000E+00  0.00000000000E+00  0.15940145283E+04  0.15940145283E+04  0.00000000000E+00 0. -1.
         21   -1    0    0  502  503  0.00000000000E+00 -0.00000000000E+00 -0.12583920803E+02  0.12583920803E+02  0.00000000000E+00 0. -1.
         25    2    1    2    0    0  0.75309511641E+02 -0.44779942571E+02  0.53058848299E+03  0.55210997765E+03  0.12499809332E+03 0.  0.
          5    1    3    3  501    0  0.95936006529E+02 -0.69191441264E+02  0.45320862413E+03  0.46839005100E+03  0.10000000000E+00 0.  1.
         -5    1    3    3    0  501 -0.20626494888E+02  0.24411498693E+02  0.77379858866E+02  0.83719926648E+02  0.10000000000E+00 0.  1.
          2    1    1    2  502    0 -0.75309511641E+02  0.44779942571E+02  0.10508421245E+04  0.10544884714E+04  0.00000000000E+00 0. -1.
<mgrwt>
<rscale>  1 0.15264760E+03</rscale>
<asrwt>0</asrwt>
<pdfrwt beam="1">  1       21 0.19359891E-02 0.15264760E+03</pdfrwt>
<pdfrwt beam="2">  1        2 0.24523284E+00 0.15264760E+03</pdfrwt>
<totfact> 0.20325036E+05</totfact>
</mgrwt>
</event>
<event>
 6    2  0.1674964E-002  0.1312816E+03  0.7546771E-02  0.1225566E+00
          1   -1    0    0  503    0 -0.00000000000E+00  0.00000000000E+00  0.13613635352E+03  0.13613635352E+03  0.00000000000E+00 0. -1.
         21   -1    0    0  502  503  0.00000000000E+00 -0.00000000000E+00 -0.13977545410E+04  0.13977545410E+04  0.00000000000E+00 0.  1.
         25    2    1    2    0    0  0.26783298449E+02 -0.29880328144E+02 -0.13916396732E+04  0.13978182454E+04  0.12499875211E+03 0.  0.
          5    1    3    3  501    0  0.10723391326E+02  0.29464199230E+02 -0.10639096262E+04  0.10643715671E+04  0.10000000000E+00 0. -1.
         -5    1    3    3    0  501  0.16059907123E+02 -0.59344527374E+02 -0.32773004702E+03  0.33344667830E+03  0.10000000000E+00 0. -1.
          1    1    1    2  502    0 -0.26783298449E+02  0.29880328144E+02  0.13002148573E+03  0.13607264911E+03  0.00000000000E+00 0. -1.
<mgrwt>
<rscale>  1 0.13128163E+03</rscale>
<asrwt>0</asrwt>
<pdfrwt beam="1">  1       21 0.21503917E+00 0.13128163E+03</pdfrwt>
<pdfrwt beam="2">  1        1 0.20944054E-01 0.13128163E+03</pdfrwt>
<totfact> 0.29671576E+02</totfact>
</mgrwt>
</event>
<event>
 6    2  0.1674964E-002  0.1272925E+03  0.7546771E-02  0.1231529E+00
          1   -1    0    0  503    0 -0.00000000000E+00  0.00000000000E+00  0.31435021145E+03  0.31435021145E+03  0.00000000000E+00 0.  1.
         21   -1    0    0  502  503  0.00000000000E+00 -0.00000000000E+00 -0.60749947617E+02  0.60749947617E+02  0.00000000000E+00 0.  1.
         25    2    1    2    0    0  0.17398394273E+02  0.16570918318E+02  0.71625164641E+01  0.12749389342E+03  0.12500436697E+03 0.  0.
          5    1    3    3  501    0  0.33746701476E+02  0.61150428632E+02 -0.20180254502E+02  0.72701220444E+02  0.10000000000E+00 0. -1.
         -5    1    3    3    0  501 -0.16348307203E+02 -0.44579510313E+02  0.27342770966E+02  0.54792672980E+02  0.10000000000E+00 0. -1.
          1    1    1    2  502    0 -0.17398394273E+02 -0.16570918318E+02  0.24643774736E+03  0.24760626564E+03  0.00000000000E+00 0.  1.
<mgrwt>
<rscale>  1 0.12729254E+03</rscale>
<asrwt>0</asrwt>
<pdfrwt beam="1">  1       21 0.93461460E-02 0.12729254E+03</pdfrwt>
<pdfrwt beam="2">  1        1 0.48361570E-01 0.12729254E+03</pdfrwt>
<totfact> 0.81867067E+04</totfact>
</mgrwt>
</event>
<event>
 6    2  0.1674964E-002  0.1288634E+03  0.7546771E-02  0.1229152E+00
          1   -1    0    0  503    0 -0.00000000000E+00  0.00000000000E+00  0.19175461919E+03  0.19175461919E+03  0.00000000000E+00 0. -1.
         21   -1    0    0  502  503  0.00000000000E+00 -0.00000000000E+00 -0.57048836277E+03  0.57048836277E+03  0.00000000000E+00 0.  1.
         25    2    1    2    0    0 -0.84597851663E+01 -0.30158071054E+02 -0.56186470144E+03  0.57645271058E+03  0.12499883037E+03 0.  0.
          5    1    3    3  501    0 -0.65699716723E+02 -0.10793695743E+02 -0.34284243714E+03  0.34924762469E+03  0.10000000000E+00 0. -1.
         -5    1    3    3    0  501  0.57239931557E+02 -0.19364375311E+02 -0.21902226430E+03  0.22720508589E+03  0.10000000000E+00 0. -1.
          1    1    1    2  502    0  0.84597851663E+01  0.30158071054E+02  0.18313095786E+03  0.18579027139E+03  0.00000000000E+00 0. -1.
<mgrwt>
<rscale>  1 0.12886343E+03</rscale>
<asrwt>0</asrwt>
<pdfrwt beam="1">  1       21 0.87767440E-01 0.12886343E+03</pdfrwt>
<pdfrwt beam="2">  1        1 0.29500711E-01 0.12886343E+03</pdfrwt>
<totfact> 0.19241358E+03</totfact>
</mgrwt>
</event>
<event>
 6    2  0.1674964E-002  0.1278847E+03  0.7546771E-02  0.1230629E+00
         21   -1    0    0  502  503  0.00000000000E+00  0.00000000000E+00  0.45217195182E+02  0.45217195182E+02  0.00000000000E+00 0. -1.
          1   -1    0    0  503    0 -0.00000000000E+00 -0.00000000000E+00 -0.24250001444E+03  0.24250001444E+03  0.00000000000E+00 0. -1.
         25    2    1    2    0    0  0.19842031818E+02 -0.18324120797E+02 -0.48929748387E+02  0.13692558762E+03  0.12500006655E+03 0.  0.
          5    1    3    3  501    0 -0.50260823845E+02 -0.27219434370E+02 -0.19771416255E+02  0.60481128641E+02  0.10000000000E+00 0.  1.
         -5    1    3    3    0  501  0.70102855663E+02  0.88953135735E+01 -0.29158332132E+02  0.76444458978E+02  0.10000000000E+00 0.  1.
          1    1    1    2  502    0 -0.19842031818E+02  0.18324120797E+02 -0.14835307087E+03  0.15079162200E+03  0.00000000000E+00 0. -1.
<mgrwt>
<rscale>  1 0.12788470E+03</rscale>
<asrwt>0</asrwt>
<pdfrwt beam="1">  1       21 0.69564917E-02 0.12788470E+03</pdfrwt>
<pdfrwt beam="2">  1        1 0.37307694E-01 0.12788470E+03</pdfrwt>
<totfact> 0.18770307E+05</totfact>
</mgrwt>
</event>
<event>
 6    2  0.1674964E-002  0.1259003E+03  0.7546771E-02  0.1233669E+00
          1   -1    0    0  503    0 -0.00000000000E+00  0.00000000000E+00  0.24756135384E+03  0.24756135384E+03  0.00000000000E+00 0. -1.
         21   -1    0    0  502  503  0.00000000000E+00 -0.00000000000E+00 -0.40081674083E+02  0.40081674083E+02  0.00000000000E+00 0. -1.
         25    2    1    2    0    0 -0.81301593185E+01 -0.12623040080E+02  0.60115920582E+02  0.13951633165E+03  0.12500176902E+03 0.  0.
          5    1    3    3  501    0 -0.52065076701E+01 -0.77409314507E+01 -0.39069390664E+02  0.40167860644E+02  0.10000000000E+00 0.  1.
         -5    1    3    3    0  501 -0.29236516485E+01 -0.48821086292E+01  0.99185311246E+02  0.99348471003E+02  0.10000000000E+00 0.  1.
          1    1    1    2  502    0  0.81301593185E+01  0.12623040080E+02  0.14736375918E+03  0.14812669628E+03  0.00000000000E+00 0. -1.
<mgrwt>
<rscale>  1 0.12590029E+03</rscale>
<asrwt>0</asrwt>
<pdfrwt beam="1">  1       21 0.61664115E-02 0.12590029E+03</pdfrwt>
<pdfrwt beam="2">  1        1 0.38086361E-01 0.12590029E+03</pdfrwt>
<totfact> 0.22450027E+05</totfact>
</mgrwt>
</event>
<event>
 6    2  0.1674964E-002  0.1265851E+03  0.7546771E-02  0.1232613E+00
         21   -1    0    0  502  503  0.00000000000E+00  0.00000000000E+00  0.92537762917E+02  0.92537762917E+02  0.00000000000E+00 0.  1.
          2   -1    0    0  503    0 -0.00000000000E+00 -0.00000000000E+00 -0.23273292804E+03  0.23273292804E+03  0.00000000000E+00 0.  1.
         25    2    1    2    0    0 -0.58527139867E+01  0.19236192581E+02  0.48462288168E+02  0.13554478327E+03  0.12497803619E+03 0.  0.
          5    1    3    3  501    0  0.16404108758E+02  0.69607205769E+02  0.27017242531E+02  0.76447362761E+02  0.10000000000E+00 0. -1.
         -5    1    3    3    0  501 -0.22256822745E+02 -0.50371013188E+02  0.21445045637E+02  0.59097420507E+02  0.10000000000E+00 0. -1.
          2    1    1    2  502    0  0.58527139867E+01 -0.19236192581E+02 -0.18865745329E+03  0.18972590769E+03  0.00000000000E+00 0.  1.
<mgrwt>
<rscale>  1 0.12658513E+03</rscale>
<asrwt>0</asrwt>
<pdfrwt beam="1">  1       21 0.14236579E-01 0.12658513E+03</pdfrwt>
<pdfrwt beam="2">  1        2 0.35805066E-01 0.12658513E+03</pdfrwt>
<totfact> 0.76222520E+04</totfact>
</mgrwt>
</event>
<event>
 6    2  0.1674964E-002  0.1349889E+03  0.7546771E-02  0.1220235E+00
          1   -1    0    0  503    0 -0.00000000000E+00  0.00000000000E+00  0.84213053195E+02  0.84213053195E+02  0.00000000000E+00 0.  1.
         21   -1    0    0  502  503  0.00000000000E+00 -0.00000000000E+00 -0.11830692663E+03  0.11830692663E+03  0.00000000000E+00 0.  1.
         25    2    1    2    0    0 -0.42735710886E+02  0.27807550706E+02  0.96594156165E+01  0.13533403513E+03  0.12498958314E+03 0.  0.
          5    1    3    3  501    0  0.11020921083E+02  0.43417323453E+02 -0.40337516249E+02  0.60279763557E+02  0.10000000000E+00 0. -1.
         -5    1    3    3    0  501 -0.53756631968E+02 -0.15609772747E+02  0.49996931865E+02  0.75054271575E+02  0.10000000000E+00 0. -1.
          1    1    1    2  502    0  0.42735710886E+02 -0.27807550706E+02 -0.43753289048E+02  0.67185944689E+02  0.00000000000E+00 0.  1.
<mgrwt>
<rscale>  1 0.13498888E+03</rscale>
<asrwt>0</asrwt>
<pdfrwt beam="1">  1       21 0.18201066E-01 0.13498888E+03</pdfrwt>
<pdfrwt beam="2">  1        1 0.12955854E-01 0.13498888E+03</pdfrwt>
<totfact> 0.13112559E+05</totfact>
</mgrwt>
</event>
<event>
 6    2  0.1674964E-002  0.1357493E+03  0.7546771E-02  0.1219166E+00
          2   -1    0    0  503    0 -0.00000000000E+00  0.00000000000E+00  0.13229517093E+04  0.13229517093E+04  0.00000000000E+00 0. -1.
         21   -1    0    0  502  503  0.00000000000E+00 -0.00000000000E+00 -0.30889116245E+02  0.30889116245E+02  0.00000000000E+00 0.  1.
         25    2    1    2    0    0  0.33879465677E+02  0.40689677367E+02  0.12180222157E+03  0.18238326972E+03  0.12499763140E+03 0.  0.
          5    1    3    3  501    0  0.19230481625E+02  0.64562551243E+02  0.11201060430E+02  0.68290615763E+02  0.10000000000E+00 0.  1.
         -5    1    3    3    0  501  0.14648984053E+02 -0.23872873876E+02  0.11060116114E+03  0.11409265396E+03  0.10000000000E+00 0.  1.
          2    1    1    2  502    0 -0.33879465677E+02 -0.40689677367E+02  0.11702603715E+04  0.11714575558E+04  0.00000000000E+00 0. -1.
<mgrwt>
<rscale>  1 0.13574931E+03</rscale>
<asrwt>0</asrwt>
<pdfrwt beam="1">  1       21 0.47521728E-02 0.13574931E+03</pdfrwt>
<pdfrwt beam="2">  1        2 0.20353099E+00 0.13574931E+03</pdfrwt>
<totfact> 0.64382741E+04</totfact>
</mgrwt>
</event>
<event>
 6    2  0.1674964E-002  0.1268758E+03  0.7546771E-02  0.1232167E+00
          1   -1    0    0  503    0 -0.00000000000E+00  0.00000000000E+00  0.29016493019E+02  0.29016493019E+02  0.00000000000E+00 0.  1.
         21   -1    0    0  502  503  0.00000000000E+00 -0.00000000000E+00 -0.14154961524E+04  0.14154961524E+04  0.00000000000E+00 0.  1.
         25    2    1    2    0    0 -0.19143409551E+02  0.10162758342E+02 -0.14081555612E+04  0.14138598069E+04  0.12501086884E+03 0.  0.
          5    1    3    3  501    0 -0.51651964156E+02 -0.32360671395E+02 -0.43699746312E+03  0.44122775437E+03  0.10000000000E+00 0.  1.
         -5    1    3    3    0  501  0.32508554605E+02  0.42523429737E+02 -0.97115809809E+03  0.97263205257E+03  0.10000000000E+00 0.  1.
          1    1    1    2  502    0  0.19143409551E+02 -0.10162758342E+02  0.21675901832E+02  0.30652838475E+02  0.00000000000E+00 0.  1.
<mgrwt>
<rscale>  1 0.12687580E+03</rscale>
<asrwt>0</asrwt>
<pdfrwt beam="1">  1       21 0.21776860E+00 0.12687580E+03</pdfrwt>
<pdfrwt beam="2">  1        1 0.44640766E-02 0.12687580E+03</pdfrwt>
<totfact> 0.22183371E+03</totfact>
</mgrwt>
</event>
<event>
 6    2  0.1674964E-002  0.1296206E+03  0.7546771E-02  0.1228020E+00
          1   -1    0    0  503    0 -0.00000000000E+00  0.00000000000E+00  0.13389625222E+03  0.13389625222E+03  0.00000000000E+00 0. -1.
         21   -1    0    0  502  503  0.00000000000E+00 -0.00000000000E+00 -0.35552227148E+03  0.35552227148E+03  0.00000000000E+00 0. -1.
         25    2    1    2    0    0 -0.14185386432E+02  0.31243384026E+02 -0.34121424769E+03  0.36500502519E+03  0.12499652539E+03 0.  0.
          5    1    3    3  501    0 -0.41442929822E+02  0.17322730776E+02 -0.32899849643E+03  0.33205061976E+03  0.10000000000E+00 0.  1.
         -5    1    3    3    0  501  0.27257543390E+02  0.13920653250E+02 -0.12215751261E+02  0.32954405433E+02  0.10000000000E+00 0.  1.
          1    1    1    2  502    0  0.14185386432E+02 -0.31243384026E+02  0.11958822843E+03  0.12441349851E+03  0.00000000000E+00 0. -1.
<mgrwt>
<rscale>  1 0.12962062E+03</rscale>
<asrwt>0</asrwt>
<pdfrwt beam="1">  1       21 0.54695734E-01 0.12962062E+03</pdfrwt>
<pdfrwt beam="2">  1        1 0.20599424E-01 0.12962062E+03</pdfrwt>
<totfact> 0.84575011E+03</totfact>
</mgrwt>
</event>
<event>
 6    2  0.1674964E-002  0.1276202E+03  0.7546771E-02  0.1231030E+00
         21   -1    0    0  502  503  0.00000000000E+00  0.00000000000E+00  0.40422973883E+02  0.40422973883E+02  0.00000000000E+00 0.  1.
          2   -1    0    0  503    0 -0.00000000000E+00 -0.00000000000E+00 -0.27794673851E+03  0.27794673851E+03  0.00000000000E+00 0. -1.
         25    2    1    2    0    0  0.54938330219E+01  0.25121975744E+02 -0.63663950524E+02  0.14261838003E+03  0.12500243142E+03 0.  0.
          5    1    3    3  501    0  0.27616451329E+00  0.75613868650E+02 -0.47716125835E+02  0.89411252444E+02  0.10000000000E+00 0. -1.
         -5    1    3    3    0  501  0.52176685086E+01 -0.50491892906E+02 -0.15947824689E+02  0.53207127588E+02  0.10000000000E+00 0. -1.
          2    1    1    2  502    0 -0.54938330219E+01 -0.25121975744E+02 -0.17385981410E+03  0.17575133236E+03  0.00000000000E+00 0. -1.
<mgrwt>
<rscale>  1 0.12762015E+03</rscale>
<asrwt>0</asrwt>
<pdfrwt beam="1">  1       21 0.62189186E-02 0.12762015E+03</pdfrwt>
<pdfrwt beam="2">  1        2 0.42761040E-01 0.12762015E+03</pdfrwt>
<totfact> 0.26749669E+05</totfact>
</mgrwt>
</event>
<event>
 6    2  0.1674964E-002  0.1293894E+03  0.7546771E-02  0.1228365E+00
          1   -1    0    0  503    0 -0.00000000000E+00  0.00000000000E+00  0.62990125677E+03  0.62990125677E+03  0.00000000000E+00 0. -1.
         21   -1    0    0  502  503  0.00000000000E+00 -0.00000000000E+00 -0.16781982741E+02  0.16781982741E+02  0.00000000000E+00 0. -1.
         25    2    1    2    0    0 -0.32434217528E+02 -0.79480603989E+01  0.24513854980E+03  0.27719039312E+03  0.12500582110E+03 0.  0.
          5    1    3    3  501    0 -0.76839625829E+02 -0.87128401906E+01  0.10652112725E+03  0.13163207144E+03  0.10000000000E+00 0. -1.
         -5    1    3    3    0  501  0.44405408302E+02  0.76477979171E+00  0.13861742255E+03  0.14555832168E+03  0.10000000000E+00 0. -1.
          1    1    1    2  502    0  0.32434217528E+02  0.79480603989E+01  0.36798072423E+03  0.36949284640E+03  0.00000000000E+00 0. -1.
<mgrwt>
<rscale>  1 0.12938936E+03</rscale>
<asrwt>0</asrwt>
<pdfrwt beam="1">  1       21 0.25818440E-02 0.12938936E+03</pdfrwt>
<pdfrwt beam="2">  1        1 0.96907867E-01 0.12938936E+03</pdfrwt>
<totfact> 0.29096796E+05</totfact>
</mgrwt>
</event>
<event>
 6    2  0.1674964E-002  0.1271239E+03  0.7546771E-02  0.1231787E+00
          2   -1    0    0  503    0 -0.00000000000E+00  0.00000000000E+00  0.21132084757E+02  0.21132084757E+02  0.00000000000E+00 0. -1.
         21   -1    0    0  502  503  0.00000000000E+00 -0.00000000000E+00 -0.13610464907E+04  0.13610464907E+04  0.00000000000E+00 0. -1.
         25    2    1    2    0    0  0.17202733308E+01 -0.23050129436E+02 -0.13507019062E+04  0.13566709694E+04  0.12500484814E+03 0.  0.
          5    1    3    3  501    0  0.28878934425E+02  0.10860396491E+02 -0.11839606953E+04  0.11843626468E+04  0.10000000000E+00 0. -1.
         -5    1    3    3    0  501 -0.27158661094E+02 -0.33910525927E+02 -0.16674121091E+03  0.17230832266E+03  0.10000000000E+00 0. -1.
          2    1    1    2  502    0 -0.17202733308E+01  0.23050129436E+02  0.10787500208E+02  0.25507606083E+02  0.00000000000E+00 0. -1.
<mgrwt>
<rscale>  1 0.12712388E+03</rscale>
<asrwt>0</asrwt>
<pdfrwt beam="1">  1       21 0.20939181E+00 0.12712388E+03</pdfrwt>
<pdfrwt beam="2">  1        2 0.32510892E-02 0.12712388E+03</pdfrwt>
<totfact> 0.40572193E+03</totfact>
</mgrwt>
</event>
<event>
 6    2  0.1674964E-002  0.1264968E+03  0.7546771E-02  0.1232748E+00
         21   -1    0    0  502  503  0.00000000000E+00  0.00000000000E+00  0.13616948745E+02  0.13616948745E+02  0.00000000000E+00 0.  1.
          2   -1    0    0  503    0 -0.00000000000E+00 -0.00000000000E+00 -0.13820797267E+04  0.13820797267E+04  0.00000000000E+00 0.  1.
         25    2    1    2    0    0  0.30843672480E+01 -0.19142751351E+02 -0.28212576339E+03  0.30918663524E+03  0.12500188315E+03 0.  0.
          5    1    3    3  501    0 -0.41321410470E+02  0.79307834542E+01 -0.29807400645E+02  0.51564012864E+02  0.10000000000E+00 0. -1.
         -5    1    3    3    0  501  0.44405777718E+02 -0.27073534806E+02 -0.25231836275E+03  0.25762262238E+03  0.10000000000E+00 0. -1.
          2    1    1    2  502    0 -0.30843672480E+01  0.19142751351E+02 -0.10863370145E+04  0.10865100402E+04  0.00000000000E+00 0.  1.
<mgrwt>
<rscale>  1 0.12649676E+03</rscale>
<asrwt>0</asrwt>
<pdfrwt beam="1">  1       21 0.20949149E-02 0.12649676E+03</pdfrwt>
<pdfrwt beam="2">  1        2 0.21262768E+00 0.12649676E+03</pdfrwt>
<totfact> 0.23028210E+05</totfact>
</mgrwt>
</event>
<event>
 6    2  0.1674964E-002  0.2099858E+03  0.7546771E-02  0.1141577E+00
          2   -1    0    0  503    0 -0.00000000000E+00  0.00000000000E+00  0.76238329351E+03  0.76238329351E+03  0.00000000000E+00 0. -1.
         21   -1    0    0  502  503  0.00000000000E+00 -0.00000000000E+00 -0.48177490625E+02  0.48177490625E+02  0.00000000000E+00 0. -1.
         25    2    1    2    0    0  0.15942990108E+03  0.55238912575E+02  0.45722205335E+03  0.50313619445E+03  0.12499917309E+03 0.  0.
          5    1    3    3  501    0  0.84271734609E+02 -0.31991573635E+02  0.14943304079E+03  0.17451484097E+03  0.10000000000E+00 0.  1.
         -5    1    3    3    0  501  0.75158166467E+02  0.87230486210E+02  0.30778901256E+03  0.32862135348E+03  0.10000000000E+00 0.  1.
          2    1    1    2  502    0 -0.15942990108E+03 -0.55238912575E+02  0.25698374953E+03  0.30742458968E+03  0.00000000000E+00 0. -1.
<mgrwt>
<rscale>  1 0.20998577E+03</rscale>
<asrwt>0</asrwt>
<pdfrwt beam="1">  1       21 0.74119222E-02 0.20998577E+03</pdfrwt>
<pdfrwt beam="2">  1        2 0.11728973E+00 0.20998577E+03</pdfrwt>
<totfact> 0.65230334E+04</totfact>
</mgrwt>
</event>
<event>
 6    2  0.1674964E-002  0.1263207E+03  0.7546771E-02  0.1233020E+00
         21   -1    0    0  502  503  0.00000000000E+00  0.00000000000E+00  0.71673146547E+01  0.71673146547E+01  0.00000000000E+00 0.  1.
          2   -1    0    0  503    0 -0.00000000000E+00 -0.00000000000E+00 -0.14774028729E+04  0.14774028729E+04  0.00000000000E+00 0.  1.
         25    2    1    2    0    0 -0.17686268178E+02  0.44122658091E+01 -0.55666138485E+03  0.57081417938E+03  0.12499863132E+03 0.  0.
          5    1    3    3  501    0  0.52228198960E+02 -0.10781716700E+02 -0.28124279500E+03  0.28625434481E+03  0.10000000000E+00 0. -1.
         -5    1    3    3    0  501 -0.69914467138E+02  0.15193982510E+02 -0.27541858985E+03  0.28455983458E+03  0.10000000000E+00 0. -1.
          2    1    1    2  502    0  0.17686268178E+02 -0.44122658091E+01 -0.91357417340E+03  0.91375600817E+03  0.00000000000E+00 0.  1.
<mgrwt>
<rscale>  1 0.12632074E+03</rscale>
<asrwt>0</asrwt>
<pdfrwt beam="1">  1       21 0.11026648E-02 0.12632074E+03</pdfrwt>
<pdfrwt beam="2">  1        2 0.22729254E+00 0.12632074E+03</pdfrwt>
<totfact> 0.57204813E+05</totfact>
</mgrwt>
</event>
<event>
 6    2  0.1674964E-002  0.1386668E+03  0.7546771E-02  0.1215134E+00
         21   -1    0    0  502  503  0.00000000000E+00  0.00000000000E+00  0.13139648666E+03  0.13139648666E+03  0.00000000000E+00 0. -1.
          1   -1    0    0  503    0 -0.00000000000E+00 -0.00000000000E+00 -0.93980733135E+02  0.93980733135E+02  0.00000000000E+00 0. -1.
         25    2    1    2    0    0 -0.56817513772E+02 -0.19335018288E+02  0.71857829016E+02  0.15617946428E+03  0.12500561855E+03 0.  0.
          5    1    3    3  501    0  0.44266692137E+01  0.24221799468E+02 -0.23992282333E+02  0.34379217289E+02  0.10000000000E+00 0. -1.
         -5    1    3    3    0  501 -0.61244182985E+02 -0.43556817757E+02  0.95850111349E+02  0.12180024700E+03  0.10000000000E+00 0. -1.
          1    1    1    2  502    0  0.56817513772E+02  0.19335018288E+02 -0.34442075492E+02  0.69197755510E+02  0.00000000000E+00 0. -1.
<mgrwt>
<rscale>  1 0.13866679E+03</rscale>
<asrwt>0</asrwt>
<pdfrwt beam="1">  1       21 0.20214844E-01 0.13866679E+03</pdfrwt>
<pdfrwt beam="2">  1        1 0.14458574E-01 0.13866679E+03</pdfrwt>
<totfact> 0.93767165E+04</totfact>
</mgrwt>
</event>
<event>
 6    2  0.1674964E-002  0.1271380E+03  0.7546771E-02  0.1231765E+00
         21   -1    0    0  502  503  0.00000000000E+00  0.00000000000E+00  0.13467588040E+03  0.13467588040E+03  0.00000000000E+00 0.  1.
          2   -1    0    0  503    0 -0.00000000000E+00 -0.00000000000E+00 -0.65341015602E+03  0.65341015602E+03  0.00000000000E+00 0.  1.
         25    2    1    2    0    0  0.18193337551E+01 -0.23240155158E+02  0.10440378105E+03  0.16451210137E+03  0.12498266765E+03 0.  0.
          5    1    3    3  501    0  0.51681352130E+02 -0.28627666716E+02  0.13365480325E+02  0.60573521640E+02  0.10000000000E+00 0. -1.
         -5    1    3    3    0  501 -0.49862018375E+02  0.53875115580E+01  0.91038300730E+02  0.10393857973E+03  0.10000000000E+00 0. -1.
          2    1    1    2  502    0 -0.18193337551E+01  0.23240155158E+02 -0.62313805668E+03  0.62357393505E+03  0.00000000000E+00 0.  1.
<mgrwt>
<rscale>  1 0.12713804E+03</rscale>
<asrwt>0</asrwt>
<pdfrwt beam="1">  1       21 0.20719366E-01 0.12713804E+03</pdfrwt>
<pdfrwt beam="2">  1        2 0.10052464E+00 0.12713804E+03</pdfrwt>
<totfact> 0.12600070E+04</totfact>
</mgrwt>
</event>
<event>
 6    2  0.1674964E-002  0.1475023E+03  0.7546771E-02  0.1203576E+00
          2   -1    0    0  503    0 -0.00000000000E+00  0.00000000000E+00  0.12743789961E+04  0.12743789961E+04  0.00000000000E+00 0.  1.
         21   -1    0    0  502  503  0.00000000000E+00 -0.00000000000E+00 -0.25778437156E+02  0.25778437156E+02  0.00000000000E+00 0.  1.
         25    2    1    2    0    0  0.78272686478E+02 -0.22445742501E+01  0.19933744964E+03  0.24797649630E+03  0.12500108929E+03 0.  0.
          5    1    3    3  501    0  0.43366977982E+02 -0.28209386381E+02  0.87282857465E+01  0.52465771998E+02  0.10000000000E+00 0. -1.
         -5    1    3    3    0  501  0.34905708496E+02  0.25964812131E+02  0.19060916390E+03  0.19551072430E+03  0.10000000000E+00 0. -1.
          2    1    1    2  502    0 -0.78272686478E+02  0.22445742501E+01  0.10492631093E+04  0.10521809369E+04  0.00000000000E+00 0.  1.
<mgrwt>
<rscale>  1 0.14750228E+03</rscale>
<asrwt>0</asrwt>
<pdfrwt beam="1">  1       21 0.39659144E-02 0.14750228E+03</pdfrwt>
<pdfrwt beam="2">  1        2 0.19605826E+00 0.14750228E+03</pdfrwt>
<totfact> 0.92491958E+04</totfact>
</mgrwt>
</event>
<event>
 6    2  0.1674964E-002  0.1503680E+03  0.7546771E-02  0.1200022E+00
          2   -1    0    0  503    0 -0.00000000000E+00  0.00000000000E+00  0.59282234082E+03  0.59282234082E+03  0.00000000000E+00 0.  1.
         21   -1    0    0  502  503  0.00000000000E+00 -0.00000000000E+00 -0.55295588063E+02  0.55295588063E+02  0.00000000000E+00 0.  1.
         25    2    1    2    0    0  0.68483429939E+02 -0.47922892374E+02  0.57689150667E+02  0.16105457759E+03  0.12499582021E+03 0.  0.
          5    1    3    3  501    0  0.75881612060E+02  0.17008102430E+02  0.55733625291E+02  0.95674142720E+02  0.10000000000E+00 0. -1.
         -5    1    3    3    0  501 -0.73981821211E+01 -0.64930994804E+02  0.19555253761E+01  0.65380434875E+02  0.10000000000E+00 0. -1.
          2    1    1    2  502    0 -0.68483429939E+02  0.47922892374E+02  0.47983760209E+03  0.48706335128E+03  0.00000000000E+00 0.  1.
<mgrwt>
<rscale>  1 0.15036801E+03</rscale>
<asrwt>0</asrwt>
<pdfrwt beam="1">  1       21 0.85070140E-02 0.15036801E+03</pdfrwt>
<pdfrwt beam="2">  1        2 0.91203433E-01 0.15036801E+03</pdfrwt>
<totfact> 0.69271775E+04</totfact>
</mgrwt>
</event>
<event>
 6    2  0.1674964E-002  0.1410761E+03  0.7546771E-02  0.1211888E+00
          1   -1    0    0  503    0 -0.00000000000E+00  0.00000000000E+00  0.28855095344E+02  0.28855095344E+02  0.00000000000E+00 0. -1.
         21   -1    0    0  502  503  0.00000000000E+00 -0.00000000000E+00 -0.58554635693E+03  0.58554635693E+03  0.00000000000E+00 0. -1.
         25    2    1    2    0    0  0.62696672767E+02  0.18583812628E+02 -0.52128719004E+03  0.54003963983E+03  0.12500498878E+03 0.  0.
          5    1    3    3  501    0 -0.24453717525E+02  0.42483680509E+02 -0.22499252226E+03  0.23027047679E+03  0.10000000000E+00 0.  1.
         -5    1    3    3    0  501  0.87150390292E+02 -0.23899867882E+02 -0.29629466778E+03  0.30976916303E+03  0.10000000000E+00 0.  1.
          1    1    1    2  502    0 -0.62696672767E+02 -0.18583812628E+02 -0.35404071545E+02  0.74361812443E+02  0.00000000000E+00 0. -1.
<mgrwt>
<rscale>  1 0.14107614E+03</rscale>
<asrwt>0</asrwt>
<pdfrwt beam="1">  1       21 0.90084049E-01 0.14107614E+03</pdfrwt>
<pdfrwt beam="2">  1        1 0.44392457E-02 0.14107614E+03</pdfrwt>
<totfact> 0.21700916E+04</totfact>
</mgrwt>
</event>
<event>
 6    2  0.1674964E-002  0.2006894E+03  0.7546771E-02  0.1149159E+00
          2   -1    0    0  503    0 -0.00000000000E+00  0.00000000000E+00  0.20808644401E+03  0.20808644401E+03  0.00000000000E+00 0. -1.
         21   -1    0    0  502  503  0.00000000000E+00 -0.00000000000E+00 -0.20480572878E+03  0.20480572878E+03  0.00000000000E+00 0. -1.
         25    2    1    2    0    0  0.35159075378E+02 -0.15301835148E+03  0.10432128342E+03  0.22618391670E+03  0.12500183011E+03 0.  0.
          5    1    3    3  501    0 -0.35675302941E+02 -0.87247664316E+02  0.86418874512E+02  0.12787929481E+03  0.10000000000E+00 0. -1.
         -5    1    3    3    0  501  0.70834378319E+02 -0.65770687163E+02  0.17902408903E+02  0.98304621897E+02  0.10000000000E+00 0. -1.
          2    1    1    2  502    0 -0.35159075378E+02  0.15301835148E+03 -0.10104056818E+03  0.18670825608E+03  0.00000000000E+00 0. -1.
<mgrwt>
<rscale>  1 0.20068940E+03</rscale>
<asrwt>0</asrwt>
<pdfrwt beam="1">  1       21 0.31508574E-01 0.20068940E+03</pdfrwt>
<pdfrwt beam="2">  1        2 0.32013299E-01 0.20068940E+03</pdfrwt>
<totfact> 0.19455162E+04</totfact>
</mgrwt>
</event>
<event>
 6    2  0.1674964E-002  0.1265956E+03  0.7546771E-02  0.1232597E+00
          1   -1    0    0  503    0 -0.00000000000E+00  0.00000000000E+00  0.98818673197E+03  0.98818673197E+03  0.00000000000E+00 0. -1.
         21   -1    0    0  502  503  0.00000000000E+00 -0.00000000000E+00 -0.15013474273E+02  0.15013474273E+02  0.00000000000E+00 0.  1.
         25    2    1    2    0    0 -0.19885779159E+02  0.25340808087E+01  0.25450159015E+03  0.28424900379E+03  0.12499828394E+03 0.  0.
          5    1    3    3  501    0  0.32357441405E+02 -0.43717617260E+02  0.84571729874E+02  0.10055158660E+03  0.10000000000E+00 0. -1.
         -5    1    3    3    0  501 -0.52243220564E+02  0.46251698069E+02  0.16992986028E+03  0.18369741719E+03  0.10000000000E+00 0. -1.
          1    1    1    2  502    0  0.19885779159E+02 -0.25340808087E+01  0.71867166754E+03  0.71895120245E+03  0.00000000000E+00 0. -1.
<mgrwt>
<rscale>  1 0.12659556E+03</rscale>
<asrwt>0</asrwt>
<pdfrwt beam="1">  1       21 0.23097660E-02 0.12659556E+03</pdfrwt>
<pdfrwt beam="2">  1        1 0.15202868E+00 0.12659556E+03</pdfrwt>
<totfact> 0.17699494E+05</totfact>
</mgrwt>
</event>
<event>
 6    2  0.1674964E-002  0.1313248E+03  0.7546771E-02  0.1225503E+00
         21   -1    0    0  502  503  0.00000000000E+00  0.00000000000E+00  0.10427135147E+03  0.10427135147E+03  0.00000000000E+00 0. -1.
          2   -1    0    0  503    0 -0.00000000000E+00 -0.00000000000E+00 -0.53052502473E+03  0.53052502473E+03  0.00000000000E+00 0. -1.
         25    2    1    2    0    0  0.10573172034E+02  0.38855249198E+02  0.61761270587E+02  0.14512290563E+03  0.12499872334E+03 0.  0.
          5    1    3    3  501    0 -0.93639965658E+01  0.66600373786E+02  0.81498442637E+02  0.10566598494E+03  0.10000000000E+00 0.  1.
         -5    1    3    3    0  501  0.19937168600E+02 -0.27745124588E+02 -0.19737172050E+02  0.39456920694E+02  0.10000000000E+00 0.  1.
          2    1    1    2  502    0 -0.10573172034E+02 -0.38855249198E+02 -0.48801494385E+03  0.48967347057E+03  0.00000000000E+00 0. -1.
<mgrwt>
<rscale>  1 0.13132480E+03</rscale>
<asrwt>0</asrwt>
<pdfrwt beam="1">  1       21 0.16041747E-01 0.13132480E+03</pdfrwt>
<pdfrwt beam="2">  1        2 0.81619234E-01 0.13132480E+03</pdfrwt>
<totfact> 0.25479931E+04</totfact>
</mgrwt>
</event>
<event>
 6    2  0.1674964E-002  0.1279499E+03  0.7546771E-02  0.1230530E+00
          1   -1    0    0  503    0 -0.00000000000E+00  0.00000000000E+00  0.12685728284E+04  0.12685728284E+04  0.00000000000E+00 0. -1.
         21   -1    0    0  502  503  0.00000000000E+00 -0.00000000000E+00 -0.66831133187E+01  0.66831133187E+01  0.00000000000E+00 0.  1.
         25    2    1    2    0    0 -0.26435107185E+02  0.69134923620E+01  0.63454323781E+03  0.64731469143E+03  0.12499831128E+03 0.  0.
          5    1    3    3  501    0 -0.30555002472E+02  0.23799889097E+02  0.62728271355E+03  0.62847725147E+03  0.10000000000E+00 0.  1.
         -5    1    3    3    0  501  0.41198952867E+01 -0.16886396735E+02  0.72605242661E+01  0.18837439967E+02  0.10000000000E+00 0.  1.
          1    1    1    2  502    0  0.26435107185E+02 -0.69134923620E+01  0.62734647730E+03  0.62794125032E+03  0.00000000000E+00 0. -1.
<mgrwt>
<rscale>  1 0.12794995E+03</rscale>
<asrwt>0</asrwt>
<pdfrwt beam="1">  1       21 0.10281723E-02 0.12794995E+03</pdfrwt>
<pdfrwt beam="2">  1        1 0.19516486E+00 0.12794995E+03</pdfrwt>
<totfact> 0.41128554E+05</totfact>
</mgrwt>
</event>
<event>
 6    2  0.1674964E-002  0.1384410E+03  0.7546771E-02  0.1215442E+00
          1   -1    0    0  503    0 -0.00000000000E+00  0.00000000000E+00  0.20212686862E+04  0.20212686862E+04  0.00000000000E+00 0.  1.
         21   -1    0    0  502  503  0.00000000000E+00 -0.00000000000E+00 -0.48482643352E+01  0.48482643352E+01  0.00000000000E+00 0.  1.
         25    2    1    2    0    0 -0.41602717487E+02 -0.42533692648E+02  0.14306376297E+04  0.14373203976E+04  0.12500398725E+03 0.  0.
          5    1    3    3  501    0  0.30992303390E+02 -0.54590183049E+02  0.53663148789E+03  0.54029063915E+03  0.10000000000E+00 0.  1.
         -5    1    3    3    0  501 -0.72595020876E+02  0.12056490401E+02  0.89400614181E+03  0.89702975849E+03  0.10000000000E+00 0.  1.
          1    1    1    2  502    0  0.41602717487E+02  0.42533692648E+02  0.58578279219E+03  0.58879655293E+03  0.00000000000E+00 0.  1.
<mgrwt>
<rscale>  1 0.13844095E+03</rscale>
<asrwt>0</asrwt>
<pdfrwt beam="1">  1       21 0.74588843E-03 0.13844095E+03</pdfrwt>
<pdfrwt beam="2">  1        1 0.31096374E+00 0.13844095E+03</pdfrwt>
<totfact> 0.22328154E+05</totfact>
</mgrwt>
</event>
<event>
 6    2  0.1674964E-002  0.1283146E+03  0.7546771E-02  0.1229978E+00
          2   -1    0    0  503    0 -0.00000000000E+00  0.00000000000E+00  0.12069225176E+04  0.12069225176E+04  0.00000000000E+00 0.  1.
         21   -1    0    0  502  503  0.00000000000E+00 -0.00000000000E+00 -0.58517703857E+01  0.58517703857E+01  0.00000000000E+00 0.  1.
         25    2    1    2    0    0 -0.24993304578E+02 -0.14692239560E+02  0.76035090420E+03  0.77110188993E+03  0.12499639979E+03 0.  0.
          5    1    3    3  501    0  0.25429051238E+02  0.31230014596E+02  0.51124164125E+03  0.51282548318E+03  0.10000000000E+00 0.  1.
         -5    1    3    3    0  501 -0.50422355816E+02 -0.45922254156E+02  0.24910926295E+03  0.25827640675E+03  0.10000000000E+00 0.  1.
          2    1    1    2  502    0  0.24993304578E+02  0.14692239560E+02  0.44071984299E+03  0.44167239804E+03  0.00000000000E+00 0.  1.
<mgrwt>
<rscale>  1 0.12831456E+03</rscale>
<asrwt>0</asrwt>
<pdfrwt beam="1">  1       21 0.90027333E-03 0.12831456E+03</pdfrwt>
<pdfrwt beam="2">  1        2 0.18568019E+00 0.12831456E+03</pdfrwt>
<totfact> 0.10986303E+06</totfact>
</mgrwt>
</event>
<event>
 6    2  0.1674964E-002  0.1292625E+03  0.7546771E-02  0.1228554E+00
         21   -1    0    0  502  503  0.00000000000E+00  0.00000000000E+00  0.77693790869E+01  0.77693790869E+01  0.00000000000E+00 0.  1.
          2   -1    0    0  503    0 -0.00000000000E+00 -0.00000000000E+00 -0.87329130044E+03  0.87329130044E+03  0.00000000000E+00 0.  1.
         25    2    1    2    0    0  0.20290450402E+02 -0.25922525725E+02 -0.61916645339E+03  0.63251552003E+03  0.12500042540E+03 0.  0.
          5    1    3    3  501    0 -0.16617083474E+02 -0.48855736313E+02 -0.11005336723E+03  0.12155148733E+03  0.10000000000E+00 0. -1.
         -5    1    3    3    0  501  0.36907533877E+02  0.22933210589E+02 -0.50911308616E+03  0.51096403270E+03  0.10000000000E+00 0. -1.
          2    1    1    2  502    0 -0.20290450402E+02  0.25922525725E+02 -0.24635546797E+03  0.24854515951E+03  0.00000000000E+00 0.  1.
<mgrwt>
<rscale>  1 0.12926247E+03</rscale>
<asrwt>0</asrwt>
<pdfrwt beam="1">  1       21 0.11952894E-02 0.12926247E+03</pdfrwt>
<pdfrwt beam="2">  1        2 0.13435248E+00 0.12926247E+03</pdfrwt>
<totfact> 0.11045553E+06</totfact>
</mgrwt>
</event>
<event>
 6    2  0.1674964E-002  0.1264771E+03  0.7546771E-02  0.1232779E+00
          2   -1    0    0  503    0 -0.00000000000E+00  0.00000000000E+00  0.11203434870E+04  0.11203434870E+04  0.00000000000E+00 0.  1.
         21   -1    0    0  502  503  0.00000000000E+00 -0.00000000000E+00 -0.23244132729E+02  0.23244132729E+02  0.00000000000E+00 0. -1.
         25    2    1    2    0    0 -0.77981122648E+01  0.17636492894E+02  0.14963143960E+03  0.19592348842E+03  0.12499835664E+03 0.  0.
          5    1    3    3  501    0  0.70041252162E+01  0.69806393004E+02  0.10167918677E+03  0.12353403295E+03  0.10000000000E+00 0. -1.
         -5    1    3    3    0  501 -0.14802237481E+02 -0.52169900111E+02  0.47952252828E+02  0.72389455470E+02  0.10000000000E+00 0. -1.
          2    1    1    2  502    0  0.77981122648E+01 -0.17636492894E+02  0.94746791467E+03  0.94766413131E+03  0.00000000000E+00 0.  1.
<mgrwt>
<rscale>  1 0.12647706E+03</rscale>
<asrwt>0</asrwt>
<pdfrwt beam="1">  1       21 0.35760213E-02 0.12647706E+03</pdfrwt>
<pdfrwt beam="2">  1        2 0.17236049E+00 0.12647706E+03</pdfrwt>
<totfact> 0.13354052E+05</totfact>
</mgrwt>
</event>
<event>
 6    2  0.1674964E-002  0.1286820E+03  0.7546771E-02  0.1229425E+00
         21   -1    0    0  502  503  0.00000000000E+00  0.00000000000E+00  0.10910969926E+02  0.10910969926E+02  0.00000000000E+00 0. -1.
          2   -1    0    0  503    0 -0.00000000000E+00 -0.00000000000E+00 -0.16735099990E+04  0.16735099990E+04  0.00000000000E+00 0. -1.
         25    2    1    2    0    0 -0.27270992198E+02 -0.13766129176E+02 -0.37509017750E+03  0.39654975790E+03  0.12500342355E+03 0.  0.
          5    1    3    3  501    0  0.30882652665E+02 -0.34674379362E+02 -0.62228220010E+02  0.77642850188E+02  0.10000000000E+00 0.  1.
         -5    1    3    3    0  501 -0.58153644862E+02  0.20908250185E+02 -0.31286195750E+03  0.31890690771E+03  0.10000000000E+00 0.  1.
          2    1    1    2  502    0  0.27270992198E+02  0.13766129176E+02 -0.12875088516E+04  0.12878712111E+04  0.00000000000E+00 0. -1.
<mgrwt>
<rscale>  1 0.12868205E+03</rscale>
<asrwt>0</asrwt>
<pdfrwt beam="1">  1       21 0.16786108E-02 0.12868205E+03</pdfrwt>
<pdfrwt beam="2">  1        2 0.25746307E+00 0.12868205E+03</pdfrwt>
<totfact> 0.23234208E+05</totfact>
</mgrwt>
</event>
<event>
 6    2  0.1674964E-002  0.1548818E+03  0.7546771E-02  0.1194599E+00
          3   -1    0    0  503    0 -0.00000000000E+00  0.00000000000E+00  0.58687662758E+02  0.58687662758E+02  0.00000000000E+00 0.  1.
         21   -1    0    0  502  503  0.00000000000E+00 -0.00000000000E+00 -0.23766451542E+04  0.23766451542E+04  0.00000000000E+00 0.  1.
         25    2    1    2    0    0 -0.86965717763E+02 -0.28289376638E+02 -0.23368279374E+04  0.23419549897E+04  0.12500015907E+03 0.  0.
          5    1    3    3  501    0 -0.87991591218E+02 -0.59728277541E+02 -0.12032290319E+04  0.12079197409E+04  0.10000000000E+00 0.  1.
         -5    1    3    3    0  501  0.10258734555E+01  0.31438900903E+02 -0.11335989056E+04  0.11340352489E+04  0.10000000000E+00 0.  1.
          3    1    1    2  502    0  0.86965717763E+02  0.28289376638E+02  0.18870445960E+02  0.93377827278E+02  0.00000000000E+00 0.  1.
<mgrwt>
<rscale>  1 0.15488178E+03</rscale>
<asrwt>0</asrwt>
<pdfrwt beam="1">  1       21 0.36563775E+00 0.15488178E+03</pdfrwt>
<pdfrwt beam="2">  1        3 0.90288704E-02 0.15488178E+03</pdfrwt>
<totfact> 0.63418414E+01</totfact>
</mgrwt>
</event>
<event>
 6    2  0.1674964E-002  0.1366790E+03  0.7546771E-02  0.1217869E+00
         21   -1    0    0  502  503  0.00000000000E+00  0.00000000000E+00  0.88621688360E+01  0.88621688360E+01  0.00000000000E+00 0.  1.
          2   -1    0    0  503    0 -0.00000000000E+00 -0.00000000000E+00 -0.18648103668E+04  0.18648103668E+04  0.00000000000E+00 0.  1.
         25    2    1    2    0    0  0.62781084227E+01  0.54927431157E+02 -0.55613999843E+03  0.57268914108E+03  0.12499886846E+03 0.  0.
          5    1    3    3  501    0 -0.56692402399E+02  0.16948328463E+02 -0.31782821166E+03  0.32328943140E+03  0.10000000000E+00 0. -1.
         -5    1    3    3    0  501  0.62970510821E+02  0.37979102695E+02 -0.23831178677E+03  0.24939970968E+03  0.10000000000E+00 0. -1.
          2    1    1    2  502    0 -0.62781084227E+01 -0.54927431157E+02 -0.12998081995E+04  0.13009833946E+04  0.00000000000E+00 0.  1.
<mgrwt>
<rscale>  1 0.13667902E+03</rscale>
<asrwt>0</asrwt>
<pdfrwt beam="1">  1       21 0.13634088E-02 0.13667902E+03</pdfrwt>
<pdfrwt beam="2">  1        2 0.28689427E+00 0.13667902E+03</pdfrwt>
<totfact> 0.25886352E+05</totfact>
</mgrwt>
</event>
<event>
 6    2  0.1674964E-002  0.1288503E+03  0.7546771E-02  0.1229172E+00
         21   -1    0    0  502  503  0.00000000000E+00  0.00000000000E+00  0.27996247331E+02  0.27996247331E+02  0.00000000000E+00 0. -1.
          1   -1    0    0  503    0 -0.00000000000E+00 -0.00000000000E+00 -0.56010160424E+03  0.56010160424E+03  0.00000000000E+00 0. -1.
         25    2    1    2    0    0  0.31257350051E+02  0.11656406152E+00 -0.12409167608E+03  0.17888861504E+03  0.12500142799E+03 0.  0.
          5    1    3    3  501    0 -0.17300053786E+02  0.20531604315E+02  0.14578354466E+02  0.30551220200E+02  0.10000000000E+00 0. -1.
         -5    1    3    3    0  501  0.48557403837E+02 -0.20415040254E+02 -0.13867003054E+03  0.14833739484E+03  0.10000000000E+00 0. -1.
          1    1    1    2  502    0 -0.31257350051E+02 -0.11656406152E+00 -0.40801368083E+03  0.40920923654E+03  0.00000000000E+00 0. -1.
<mgrwt>
<rscale>  1 0.12885027E+03</rscale>
<asrwt>0</asrwt>
<pdfrwt beam="1">  1       21 0.43071154E-02 0.12885027E+03</pdfrwt>
<pdfrwt beam="2">  1        1 0.86169469E-01 0.12885027E+03</pdfrwt>
<totfact> 0.14677692E+05</totfact>
</mgrwt>
</event>
<event>
 6    2  0.1674964E-002  0.1377676E+03  0.7546771E-02  0.1216365E+00
          2   -1    0    0  503    0 -0.00000000000E+00  0.00000000000E+00  0.23589326381E+03  0.23589326381E+03  0.00000000000E+00 0. -1.
         21   -1    0    0  502  503  0.00000000000E+00 -0.00000000000E+00 -0.49927167524E+02  0.49927167524E+02  0.00000000000E+00 0. -1.
         25    2    1    2    0    0  0.21003056475E+02  0.54022645039E+02  0.66374743970E+02  0.15292323006E+03  0.12498133099E+03 0.  0.
          5    1    3    3  501    0 -0.11115777011E+02 -0.37142379528E+02  0.32212783585E+02  0.50406252408E+02  0.10000000000E+00 0. -1.
         -5    1    3    3    0  501  0.32118833486E+02  0.91165024567E+02  0.34161960384E+02  0.10251697765E+03  0.10000000000E+00 0. -1.
          2    1    1    2  502    0 -0.21003056475E+02 -0.54022645039E+02  0.11959135232E+03  0.13289720128E+03  0.00000000000E+00 0. -1.
<mgrwt>
<rscale>  1 0.13776759E+03</rscale>
<asrwt>0</asrwt>
<pdfrwt beam="1">  1       21 0.76811028E-02 0.13776759E+03</pdfrwt>
<pdfrwt beam="2">  1        2 0.36291271E-01 0.13776759E+03</pdfrwt>
<totfact> 0.22284096E+05</totfact>
</mgrwt>
</event>
<event>
 6    2  0.1674964E-002  0.1452739E+03  0.7546771E-02  0.1206404E+00
         21   -1    0    0  502  503  0.00000000000E+00  0.00000000000E+00  0.32060769175E+02  0.32060769175E+02  0.00000000000E+00 0.  1.
          1   -1    0    0  503    0 -0.00000000000E+00 -0.00000000000E+00 -0.55349926656E+03  0.55349926656E+03  0.00000000000E+00 0.  1.
         25    2    1    2    0    0  0.39745978556E+02  0.62452208289E+02 -0.15790469784E+03  0.21456563612E+03  0.12499798988E+03 0.  0.
          5    1    3    3  501    0  0.34595606404E+02 -0.33489821295E+01  0.83003723982E+01  0.35734826790E+02  0.10000000000E+00 0.  1.
         -5    1    3    3    0  501  0.51503721518E+01  0.65801190419E+02 -0.16620507024E+03  0.17883080933E+03  0.10000000000E+00 0.  1.
          1    1    1    2  502    0 -0.39745978556E+02 -0.62452208289E+02 -0.36353379955E+03  0.37099439961E+03  0.00000000000E+00 0.  1.
<mgrwt>
<rscale>  1 0.14527394E+03</rscale>
<asrwt>0</asrwt>
<pdfrwt beam="1">  1       21 0.49324261E-02 0.14527394E+03</pdfrwt>
<pdfrwt beam="2">  1        1 0.85153732E-01 0.14527394E+03</pdfrwt>
<totfact> 0.11926618E+05</totfact>
</mgrwt>
</event>
<event>
 6    2  0.1674964E-002  0.1327182E+03  0.7546771E-02  0.1223477E+00
          2   -1    0    0  503    0 -0.00000000000E+00  0.00000000000E+00  0.67346321753E+03  0.67346321753E+03  0.00000000000E+00 0. -1.
         21   -1    0    0  502  503  0.00000000000E+00 -0.00000000000E+00 -0.13385866129E+02  0.13385866129E+02  0.00000000000E+00 0. -1.
         25    2    1    2    0    0  0.42897060915E+02  0.12139786009E+02  0.58199596460E+03  0.59693670851E+03  0.12500639552E+03 0.  0.
          5    1    3    3  501    0 -0.28030199988E+02 -0.29113639351E+02  0.97535544656E+02  0.10557693204E+03  0.10000000000E+00 0. -1.
         -5    1    3    3    0  501  0.70927260904E+02  0.41253425360E+02  0.48446041994E+03  0.49135977647E+03  0.10000000000E+00 0. -1.
          2    1    1    2  502    0 -0.42897060915E+02 -0.12139786009E+02  0.78081386800E+02  0.89912375144E+02  0.00000000000E+00 0. -1.
<mgrwt>
<rscale>  1 0.13271824E+03</rscale>
<asrwt>0</asrwt>
<pdfrwt beam="1">  1       21 0.20593645E-02 0.13271824E+03</pdfrwt>
<pdfrwt beam="2">  1        2 0.10360970E+00 0.13271824E+03</pdfrwt>
<totfact> 0.63698521E+05</totfact>
</mgrwt>
</event>
<event>
 6    2  0.1674964E-002  0.1287515E+03  0.7546771E-02  0.1229320E+00
          2   -1    0    0  503    0 -0.00000000000E+00  0.00000000000E+00  0.45739828571E+03  0.45739828571E+03  0.00000000000E+00 0.  1.
         21   -1    0    0  502  503  0.00000000000E+00 -0.00000000000E+00 -0.54202014778E+02  0.54202014778E+02  0.00000000000E+00 0.  1.
         25    2    1    2    0    0  0.30837104439E+02 -0.10759240231E+01  0.23777151102E+02  0.13092858744E+03  0.12499942988E+03 0.  0.
          5    1    3    3  501    0 -0.33546300660E+02 -0.39662639199E+02  0.20345338684E+02  0.55789085334E+02  0.10000000000E+00 0. -1.
         -5    1    3    3    0  501  0.64383405098E+02  0.38586715176E+02  0.34318124186E+01  0.75139502105E+02  0.10000000000E+00 0. -1.
          2    1    1    2  502    0 -0.30837104439E+02  0.10759240231E+01  0.37941911983E+03  0.38067171305E+03  0.00000000000E+00 0.  1.
<mgrwt>
<rscale>  1 0.12875147E+03</rscale>
<asrwt>0</asrwt>
<pdfrwt beam="1">  1       21 0.83387718E-02 0.12875147E+03</pdfrwt>
<pdfrwt beam="2">  1        2 0.70368964E-01 0.12875147E+03</pdfrwt>
<totfact> 0.95313647E+04</totfact>
</mgrwt>
</event>
<event>
 6    2  0.1674964E-002  0.2289162E+03  0.7546771E-02  0.1127405E+00
          1   -1    0    0  503    0 -0.00000000000E+00  0.00000000000E+00  0.13170464804E+03  0.13170464804E+03  0.00000000000E+00 0. -1.
         21   -1    0    0  502  503  0.00000000000E+00 -0.00000000000E+00 -0.53430947925E+03  0.53430947925E+03  0.00000000000E+00 0. -1.
         25    2    1    2    0    0  0.19105911266E+03 -0.16494249888E+02 -0.41488849785E+03  0.47385134921E+03  0.12500796250E+03 0.  0.
          5    1    3    3  501    0  0.19009910756E+03 -0.42719600347E+02 -0.31343349219E+03  0.36905717576E+03  0.10000000000E+00 0. -1.
         -5    1    3    3    0  501  0.96000509960E+00  0.26225350459E+02 -0.10145500566E+03  0.10479417346E+03  0.10000000000E+00 0. -1.
          1    1    1    2  502    0 -0.19105911266E+03  0.16494249888E+02  0.12283666646E+02  0.19216277807E+03  0.00000000000E+00 0. -1.
<mgrwt>
<rscale>  1 0.22891622E+03</rscale>
<asrwt>0</asrwt>
<pdfrwt beam="1">  1       21 0.82201458E-01 0.22891622E+03</pdfrwt>
<pdfrwt beam="2">  1        1 0.20262254E-01 0.22891622E+03</pdfrwt>
<totfact> 0.34541474E+03</totfact>
</mgrwt>
</event>
<event>
 6    2  0.1674964E-002  0.1400754E+03  0.7546771E-02  0.1213228E+00
         21   -1    0    0  502  503  0.00000000000E+00  0.00000000000E+00  0.69959854168E+03  0.69959854168E+03  0.00000000000E+00 0.  1.
          3   -1    0    0  503    0 -0.00000000000E+00 -0.00000000000E+00 -0.63690565257E+02  0.63690565257E+02  0.00000000000E+00 0. -1.
         25    2    1    2    0    0  0.32467032211E+02  0.54232219982E+02  0.67472627761E+03  0.68911294924E+03  0.12500346092E+03 0.  0.
          5    1    3    3  501    0  0.78588526817E+02  0.36625610435E+02  0.34588798316E+03  0.35658953824E+03  0.10000000000E+00 0.  1.
         -5    1    3    3    0  501 -0.46121494606E+02  0.17606609547E+02  0.32883829445E+03  0.33252341100E+03  0.10000000000E+00 0.  1.
          3    1    1    2  502    0 -0.32467032211E+02 -0.54232219982E+02 -0.38818301185E+02  0.74176157703E+02  0.00000000000E+00 0. -1.
<mgrwt>
<rscale>  1 0.14007536E+03</rscale>
<asrwt>0</asrwt>
<pdfrwt beam="1">  1       21 0.10763054E+00 0.14007536E+03</pdfrwt>
<pdfrwt beam="2">  1        3 0.97985490E-02 0.14007536E+03</pdfrwt>
<totfact> 0.25891459E+03</totfact>
</mgrwt>
</event>
<event>
 6    2  0.1674964E-002  0.1311647E+03  0.7546771E-02  0.1225738E+00
         21   -1    0    0  502  503  0.00000000000E+00  0.00000000000E+00  0.50565325180E+03  0.50565325180E+03  0.00000000000E+00 0. -1.
          1   -1    0    0  503    0 -0.00000000000E+00 -0.00000000000E+00 -0.16043821505E+02  0.16043821505E+02  0.00000000000E+00 0. -1.
         25    2    1    2    0    0 -0.31152014658E+02 -0.24669258929E+02  0.43373244026E+03  0.45313135032E+03  0.12500068222E+03 0.  0.
          5    1    3    3  501    0 -0.21873476925E+02  0.16913252242E+02  0.13544843943E+02  0.30789282090E+02  0.10000000000E+00 0. -1.
         -5    1    3    3    0  501 -0.92785377331E+01 -0.41582511171E+02  0.42018759631E+03  0.42234206823E+03  0.10000000000E+00 0. -1.
          1    1    1    2  502    0  0.31152014658E+02  0.24669258929E+02  0.55876990037E+02  0.68565722988E+02  0.00000000000E+00 0. -1.
<mgrwt>
<rscale>  1 0.13116475E+03</rscale>
<asrwt>0</asrwt>
<pdfrwt beam="1">  1       21 0.77792796E-01 0.13116475E+03</pdfrwt>
<pdfrwt beam="2">  1        1 0.24682806E-02 0.13116475E+03</pdfrwt>
<totfact> 0.67942025E+04</totfact>
</mgrwt>
</event>
<event>
 6    2  0.1674964E-002  0.1306162E+03  0.7546771E-02  0.1226544E+00
         21   -1    0    0  502  503  0.00000000000E+00  0.00000000000E+00  0.67952149533E+01  0.67952149533E+01  0.00000000000E+00 0. -1.
          1   -1    0    0  503    0 -0.00000000000E+00 -0.00000000000E+00 -0.10861532724E+04  0.10861532724E+04  0.00000000000E+00 0. -1.
         25    2    1    2    0    0  0.15878556878E+02  0.34369858503E+02 -0.91566929033E+03  0.92493828462E+03  0.12500866114E+03 0.  0.
          5    1    3    3  501    0  0.68894581893E+02  0.14164114543E+02 -0.39778503011E+03  0.40395547494E+03  0.10000000000E+00 0.  1.
         -5    1    3    3    0  501 -0.53016025015E+02  0.20205743960E+02 -0.51788426022E+03  0.52098280968E+03  0.10000000000E+00 0.  1.
          1    1    1    2  502    0 -0.15878556878E+02 -0.34369858503E+02 -0.16368876708E+03  0.16801020270E+03  0.00000000000E+00 0. -1.
<mgrwt>
<rscale>  1 0.13061616E+03</rscale>
<asrwt>0</asrwt>
<pdfrwt beam="1">  1       21 0.10454181E-02 0.13061616E+03</pdfrwt>
<pdfrwt beam="2">  1        1 0.16710043E+00 0.13061616E+03</pdfrwt>
<totfact> 0.53526575E+05</totfact>
</mgrwt>
</event>
<event>
 6    2  0.1674964E-002  0.1261886E+03  0.7546771E-02  0.1233223E+00
         21   -1    0    0  502  503  0.00000000000E+00  0.00000000000E+00  0.31033968569E+02  0.31033968569E+02  0.00000000000E+00 0.  1.
          4   -1    0    0  503    0 -0.00000000000E+00 -0.00000000000E+00 -0.38782914511E+03  0.38782914511E+03  0.00000000000E+00 0. -1.
         25    2    1    2    0    0 -0.16528293267E+02  0.51276356741E+01 -0.98740227022E+02  0.16022855664E+03  0.12499632316E+03 0.  0.
          5    1    3    3  501    0 -0.35371561028E+02 -0.49346589079E+02 -0.78275716232E+02  0.99062257873E+02  0.10000000000E+00 0. -1.
         -5    1    3    3    0  501  0.18843267762E+02  0.54474224753E+02 -0.20464510790E+02  0.61166298763E+02  0.10000000000E+00 0. -1.
          4    1    1    2  502    0  0.16528293267E+02 -0.51276356741E+01 -0.25805494952E+03  0.25863455705E+03  0.00000000000E+00 0. -1.
<mgrwt>
<rscale>  1 0.12618858E+03</rscale>
<asrwt>0</asrwt>
<pdfrwt beam="1">  1       21 0.47744570E-02 0.12618858E+03</pdfrwt>
<pdfrwt beam="2">  1        4 0.59666019E-01 0.12618858E+03</pdfrwt>
<totfact> 0.31375365E+04</totfact>
</mgrwt>
</event>
<event>
 6    2  0.1674964E-002  0.1265499E+03  0.7546771E-02  0.1232667E+00
          1   -1    0    0  503    0 -0.00000000000E+00  0.00000000000E+00  0.11126391181E+04  0.11126391181E+04  0.00000000000E+00 0.  1.
         21   -1    0    0  502  503  0.00000000000E+00 -0.00000000000E+00 -0.55860943546E+01  0.55860943546E+01  0.00000000000E+00 0.  1.
         25    2    1    2    0    0 -0.18920495851E+02  0.56930554641E+01  0.74805157809E+03  0.75868045303E+03  0.12499788114E+03 0.  0.
          5    1    3    3  501    0 -0.12129379989E+02 -0.43817456882E+02  0.11502723794E+03  0.12368656700E+03  0.10000000000E+00 0. -1.
         -5    1    3    3    0  501 -0.67911158616E+01  0.49510512346E+02  0.63302434014E+03  0.63499388604E+03  0.10000000000E+00 0. -1.
          1    1    1    2  502    0  0.18920495851E+02 -0.56930554641E+01  0.35900144566E+03  0.35954475942E+03  0.00000000000E+00 0.  1.
<mgrwt>
<rscale>  1 0.12654986E+03</rscale>
<asrwt>0</asrwt>
<pdfrwt beam="1">  1       21 0.85940002E-03 0.12654986E+03</pdfrwt>
<pdfrwt beam="2">  1        1 0.17117507E+00 0.12654986E+03</pdfrwt>
<totfact> 0.69675133E+05</totfact>
</mgrwt>
</event>
<event>
 6    2  0.1674964E-002  0.1464792E+03  0.7546771E-02  0.1204867E+00
          2   -1    0    0  503    0 -0.00000000000E+00  0.00000000000E+00  0.91203323751E+03  0.91203323751E+03  0.00000000000E+00 0.  1.
         21   -1    0    0  502  503  0.00000000000E+00 -0.00000000000E+00 -0.31139484879E+02  0.31139484879E+02  0.00000000000E+00 0. -1.
         25    2    1    2    0    0  0.13803375119E+01 -0.76356929116E+02  0.15496407917E+03  0.21323698771E+03  0.12499544447E+03 0.  0.
          5    1    3    3  501    0 -0.25649278436E+01  0.25107407350E+02  0.88135164436E+02  0.91677576150E+02  0.10000000000E+00 0.  1.
         -5    1    3    3    0  501  0.39452653556E+01 -0.10146433647E+03  0.66828914734E+02  0.12155941156E+03  0.10000000000E+00 0.  1.
          2    1    1    2  502    0 -0.13803375119E+01  0.76356929116E+02  0.72592967346E+03  0.72993573469E+03  0.00000000000E+00 0.  1.
<mgrwt>
<rscale>  1 0.14647917E+03</rscale>
<asrwt>0</asrwt>
<pdfrwt beam="1">  1       21 0.47906907E-02 0.14647917E+03</pdfrwt>
<pdfrwt beam="2">  1        2 0.14031279E+00 0.14647917E+03</pdfrwt>
<totfact> 0.10931508E+05</totfact>
</mgrwt>
</event>
<event>
 6    2  0.1674964E-002  0.1692496E+03  0.7546771E-02  0.1178633E+00
          3   -1    0    0  503    0 -0.00000000000E+00  0.00000000000E+00  0.11558502881E+04  0.11558502881E+04  0.00000000000E+00 0.  1.
         21   -1    0    0  502  503  0.00000000000E+00 -0.00000000000E+00 -0.58378759033E+02  0.58378759033E+02  0.00000000000E+00 0.  1.
         25    2    1    2    0    0 -0.10460033125E+03  0.45601808858E+02  0.74513001078E+02  0.18492593130E+03  0.12499863388E+03 0.  0.
          5    1    3    3  501    0 -0.80503816559E+01  0.97783485481E+01  0.80767362205E+02  0.81754520014E+02  0.10000000000E+00 0. -1.
         -5    1    3    3    0  501 -0.96549949591E+02  0.35823460309E+02 -0.62543611274E+01  0.10317141129E+03  0.10000000000E+00 0. -1.
          3    1    1    2  502    0  0.10460033125E+03 -0.45601808858E+02  0.10229585280E+04  0.10293031158E+04  0.00000000000E+00 0.  1.
<mgrwt>
<rscale>  1 0.16924956E+03</rscale>
<asrwt>0</asrwt>
<pdfrwt beam="1">  1       21 0.89813483E-02 0.16924956E+03</pdfrwt>
<pdfrwt beam="2">  1        3 0.17782311E+00 0.16924956E+03</pdfrwt>
<totfact> 0.10769704E+03</totfact>
</mgrwt>
</event>
<event>
 6    2  0.1674964E-002  0.1306226E+03  0.7546771E-02  0.1226535E+00
          1   -1    0    0  503    0 -0.00000000000E+00  0.00000000000E+00  0.12549041521E+04  0.12549041521E+04  0.00000000000E+00 0. -1.
         21   -1    0    0  502  503  0.00000000000E+00 -0.00000000000E+00 -0.31910352657E+02  0.31910352657E+02  0.00000000000E+00 0.  1.
         25    2    1    2    0    0  0.72035399611E-01  0.37891994399E+02  0.10343991688E+03  0.16661956440E+03  0.12500581750E+03 0.  0.
          5    1    3    3  501    0  0.36844710744E+02 -0.30771818904E+02  0.61935329047E+02  0.78360912020E+02  0.10000000000E+00 0. -1.
         -5    1    3    3    0  501 -0.36772675344E+02  0.68663813303E+02  0.41504587830E+02  0.88258652382E+02  0.10000000000E+00 0. -1.
          1    1    1    2  502    0 -0.72035399611E-01 -0.37891994399E+02  0.11195538826E+04  0.11201949403E+04  0.00000000000E+00 0. -1.
<mgrwt>
<rscale>  1 0.13062260E+03</rscale>
<asrwt>0</asrwt>
<pdfrwt beam="1">  1       21 0.49092860E-02 0.13062260E+03</pdfrwt>
<pdfrwt beam="2">  1        1 0.19306214E+00 0.13062260E+03</pdfrwt>
<totfact> 0.33222076E+04</totfact>
</mgrwt>
</event>
<event>
 6    2  0.1674964E-002  0.1280999E+03  0.7546771E-02  0.1230303E+00
         21   -1    0    0  502  503  0.00000000000E+00  0.00000000000E+00  0.19963227971E+03  0.19963227971E+03  0.00000000000E+00 0.  1.
          1   -1    0    0  503    0 -0.00000000000E+00 -0.00000000000E+00 -0.14157156173E+03  0.14157156173E+03  0.00000000000E+00 0. -1.
         25    2    1    2    0    0  0.27966771909E+02 -0.19077643233E+01  0.17728834708E+03  0.21872524153E+03  0.12499517342E+03 0.  0.
          5    1    3    3  501    0  0.41360670366E+02 -0.10971348465E+02  0.19209189955E+03  0.19680036436E+03  0.10000000000E+00 0.  1.
         -5    1    3    3    0  501 -0.13393898457E+02  0.90635841417E+01 -0.14803552468E+02  0.21924877173E+02  0.10000000000E+00 0.  1.
          1    1    1    2  502    0 -0.27966771909E+02  0.19077643233E+01 -0.11922762910E+03  0.12247859991E+03  0.00000000000E+00 0. -1.
<mgrwt>
<rscale>  1 0.12809986E+03</rscale>
<asrwt>0</asrwt>
<pdfrwt beam="1">  1       21 0.30712658E-01 0.12809986E+03</pdfrwt>
<pdfrwt beam="2">  1        1 0.21780240E-01 0.12809986E+03</pdfrwt>
<totfact> 0.25114068E+04</totfact>
</mgrwt>
</event>
<event>
 6    2  0.1674964E-002  0.1412515E+03  0.7546771E-02  0.1211655E+00
          2   -1    0    0  503    0 -0.00000000000E+00  0.00000000000E+00  0.25959082319E+03  0.25959082319E+03  0.00000000000E+00 0.  1.
         21   -1    0    0  502  503  0.00000000000E+00 -0.00000000000E+00 -0.67227571514E+02  0.67227571514E+02  0.00000000000E+00 0.  1.
         25    2    1    2    0    0  0.33458170980E+02 -0.56631221936E+02  0.20415776172E+02  0.14271929412E+03  0.12500179397E+03 0.  0.
          5    1    3    3  501    0 -0.25678510432E+01 -0.89521271898E+02 -0.70698550701E+00  0.89560939084E+02  0.10000000000E+00 0. -1.
         -5    1    3    3    0  501  0.36026022023E+02  0.32890049962E+02  0.21122761679E+02  0.53158355037E+02  0.10000000000E+00 0. -1.
          2    1    1    2  502    0 -0.33458170980E+02  0.56631221936E+02  0.17194747551E+03  0.18409910059E+03  0.00000000000E+00 0.  1.
<mgrwt>
<rscale>  1 0.14125152E+03</rscale>
<asrwt>0</asrwt>
<pdfrwt beam="1">  1       21 0.10342703E-01 0.14125152E+03</pdfrwt>
<pdfrwt beam="2">  1        2 0.39937049E-01 0.14125152E+03</pdfrwt>
<totfact> 0.12003721E+05</totfact>
</mgrwt>
</event>
<event>
 6    2  0.1674964E-002  0.1376199E+03  0.7546771E-02  0.1216568E+00
          2   -1    0    0  503    0 -0.00000000000E+00  0.00000000000E+00  0.35030332699E+02  0.35030332699E+02  0.00000000000E+00 0.  1.
         21   -1    0    0  502  503  0.00000000000E+00 -0.00000000000E+00 -0.49574361310E+03  0.49574361310E+03  0.00000000000E+00 0.  1.
         25    2    1    2    0    0 -0.51609203596E+02 -0.25473989217E+02 -0.45209672267E+03  0.47257876482E+03  0.12500723295E+03 0.  0.
          5    1    3    3  501    0 -0.88220586164E+02 -0.47071773102E+01 -0.22710348473E+03  0.24368223595E+03  0.10000000000E+00 0.  1.
         -5    1    3    3    0  501  0.36611382569E+02 -0.20766811907E+02 -0.22499323794E+03  0.22889652887E+03  0.10000000000E+00 0.  1.
          2    1    1    2  502    0  0.51609203596E+02  0.25473989217E+02 -0.86165577356E+01  0.58195180983E+02  0.00000000000E+00 0.  1.
<mgrwt>
<rscale>  1 0.13761992E+03</rscale>
<asrwt>0</asrwt>
<pdfrwt beam="1">  1       21 0.76268249E-01 0.13761992E+03</pdfrwt>
<pdfrwt beam="2">  1        2 0.53892819E-02 0.13761992E+03</pdfrwt>
<totfact> 0.26183577E+04</totfact>
</mgrwt>
</event>
<event>
 6    2  0.1674964E-002  0.1293835E+03  0.7546771E-02  0.1228373E+00
         21   -1    0    0  502  503  0.00000000000E+00  0.00000000000E+00  0.14626859034E+03  0.14626859034E+03  0.00000000000E+00 0. -1.
          1   -1    0    0  503    0 -0.00000000000E+00 -0.00000000000E+00 -0.14646304045E+03  0.14646304045E+03  0.00000000000E+00 0. -1.
         25    2    1    2    0    0 -0.20362438811E+02 -0.26453895575E+02  0.11481112941E+03  0.17297888207E+03  0.12500264278E+03 0.  0.
          5    1    3    3  501    0  0.38806488103E+02  0.12806002799E+02  0.35896571050E+01  0.41022345920E+02  0.10000000000E+00 0.  1.
         -5    1    3    3    0  501 -0.59168926915E+02 -0.39259898374E+02  0.11122147230E+03  0.13195653615E+03  0.10000000000E+00 0.  1.
          1    1    1    2  502    0  0.20362438811E+02  0.26453895575E+02 -0.11500557952E+03  0.11975274872E+03  0.00000000000E+00 0. -1.
<mgrwt>
<rscale>  1 0.12938353E+03</rscale>
<asrwt>0</asrwt>
<pdfrwt beam="1">  1       21 0.22502860E-01 0.12938353E+03</pdfrwt>
<pdfrwt beam="2">  1        1 0.22532775E-01 0.12938353E+03</pdfrwt>
<totfact> 0.43460571E+04</totfact>
</mgrwt>
</event>
<event>
 6    2  0.1674964E-002  0.1276881E+03  0.7546771E-02  0.1230927E+00
         21   -1    0    0  502  503  0.00000000000E+00  0.00000000000E+00  0.10523965343E+03  0.10523965343E+03  0.00000000000E+00 0.  1.
          1   -1    0    0  503    0 -0.00000000000E+00 -0.00000000000E+00 -0.15595382202E+04  0.15595382202E+04  0.00000000000E+00 0.  1.
         25    2    1    2    0    0  0.95569198154E+01 -0.24325332070E+02  0.66354739045E+02  0.14389999130E+03  0.12498479750E+03 0.  0.
          5    1    3    3  501    0 -0.23492571212E+02 -0.61848626364E+02  0.66628708085E+02  0.93896476113E+02  0.10000000000E+00 0.  1.
         -5    1    3    3    0  501  0.33049491028E+02  0.37523294294E+02 -0.27396903978E+00  0.50003515185E+02  0.10000000000E+00 0.  1.
          1    1    1    2  502    0 -0.95569198154E+01  0.24325332070E+02 -0.15206533059E+04  0.15208778824E+04  0.00000000000E+00 0.  1.
<mgrwt>
<rscale>  1 0.12768812E+03</rscale>
<asrwt>0</asrwt>
<pdfrwt beam="1">  1       21 0.16190717E-01 0.12768812E+03</pdfrwt>
<pdfrwt beam="2">  1        1 0.23992894E+00 0.12768812E+03</pdfrwt>
<totfact> 0.26345905E+03</totfact>
</mgrwt>
</event>
<event>
 6    2  0.1674964E-002  0.1482881E+03  0.7546771E-02  0.1202592E+00
          1   -1    0    0  503    0 -0.00000000000E+00  0.00000000000E+00  0.20656340893E+03  0.20656340893E+03  0.00000000000E+00 0. -1.
         21   -1    0    0  502  503  0.00000000000E+00 -0.00000000000E+00 -0.18657451054E+03  0.18657451054E+03  0.00000000000E+00 0.  1.
         25    2    1    2    0    0 -0.77245288188E+02 -0.19992733526E+02 -0.14654107013E+03  0.20847938500E+03  0.12499129887E+03 0.  0.
          5    1    3    3  501    0  0.29485115437E+02  0.15245832266E+02 -0.18115564229E+02  0.37815223140E+02  0.10000000000E+00 0.  1.
         -5    1    3    3    0  501 -0.10673040363E+03 -0.35238565792E+02 -0.12842550590E+03  0.17066416186E+03  0.10000000000E+00 0.  1.
          1    1    1    2  502    0  0.77245288188E+02  0.19992733526E+02  0.16652996851E+03  0.18465853447E+03  0.00000000000E+00 0. -1.
<mgrwt>
<rscale>  1 0.14828813E+03</rscale>
<asrwt>0</asrwt>
<pdfrwt beam="1">  1       21 0.28703771E-01 0.14828813E+03</pdfrwt>
<pdfrwt beam="2">  1        1 0.31778986E-01 0.14828813E+03</pdfrwt>
<totfact> 0.17816221E+04</totfact>
</mgrwt>
</event>
<event>
 6    2  0.1674964E-002  0.1327235E+03  0.7546771E-02  0.1223470E+00
         21   -1    0    0  502  503  0.00000000000E+00  0.00000000000E+00  0.37290418260E+02  0.37290418260E+02  0.00000000000E+00 0.  1.
          4   -1    0    0  503    0 -0.00000000000E+00 -0.00000000000E+00 -0.23893673910E+03  0.23893673910E+03  0.00000000000E+00 0.  1.
         25    2    1    2    0    0 -0.33963020359E+02  0.28925144547E+02 -0.10313135490E+03  0.16808211932E+03  0.12500148692E+03 0.  0.
          5    1    3    3  501    0  0.27064882824E+02  0.46815908926E+02 -0.95144358115E+01  0.54906936717E+02  0.10000000000E+00 0.  1.
         -5    1    3    3    0  501 -0.61027903183E+02 -0.17890764380E+02 -0.93616919087E+02  0.11317518260E+03  0.10000000000E+00 0.  1.
          4    1    1    2  502    0  0.33963020359E+02 -0.28925144547E+02 -0.98514965938E+02  0.10814503804E+03  0.00000000000E+00 0.  1.
<mgrwt>
<rscale>  1 0.13272348E+03</rscale>
<asrwt>0</asrwt>
<pdfrwt beam="1">  1       21 0.57369874E-02 0.13272348E+03</pdfrwt>
<pdfrwt beam="2">  1        4 0.36759498E-01 0.13272348E+03</pdfrwt>
<totfact> 0.61533127E+04</totfact>
</mgrwt>
</event>
<event>
 6    2  0.1674964E-002  0.1468550E+03  0.7546771E-02  0.1204392E+00
         21   -1    0    0  502  503  0.00000000000E+00  0.00000000000E+00  0.11040878029E+03  0.11040878029E+03  0.00000000000E+00 0.  1.
          2   -1    0    0  503    0 -0.00000000000E+00 -0.00000000000E+00 -0.14262561891E+04  0.14262561891E+04  0.00000000000E+00 0.  1.
         25    2    1    2    0    0  0.76830893850E+02  0.67411981206E+01  0.60013298652E+02  0.15864424519E+03  0.12497187890E+03 0.  0.
          5    1    3    3  501    0  0.26254870439E+02 -0.94633586128E+01  0.92343650973E+02  0.96468820108E+02  0.10000000000E+00 0.  1.
         -5    1    3    3    0  501  0.50576023411E+02  0.16204556733E+02 -0.32330352321E+02  0.62175425083E+02  0.10000000000E+00 0.  1.
          2    1    1    2  502    0 -0.76830893850E+02 -0.67411981206E+01 -0.13758607074E+04  0.13780207242E+04  0.00000000000E+00 0.  1.
<mgrwt>
<rscale>  1 0.14685503E+03</rscale>
<asrwt>0</asrwt>
<pdfrwt beam="1">  1       21 0.16985966E-01 0.14685503E+03</pdfrwt>
<pdfrwt beam="2">  1        2 0.21942403E+00 0.14685503E+03</pdfrwt>
<totfact> 0.61277735E+03</totfact>
</mgrwt>
</event>
<event>
 6    2  0.1674964E-002  0.1372588E+03  0.7546771E-02  0.1217066E+00
          1   -1    0    0  503    0 -0.00000000000E+00  0.00000000000E+00  0.12085795718E+04  0.12085795718E+04  0.00000000000E+00 0. -1.
         21   -1    0    0  502  503  0.00000000000E+00 -0.00000000000E+00 -0.15163651358E+02  0.15163651358E+02  0.00000000000E+00 0.  1.
         25    2    1    2    0    0 -0.47614164339E+02  0.30838772703E+02  0.31634070123E+03  0.34483533339E+03  0.12498731675E+03 0.  0.
          5    1    3    3  501    0  0.82771363504E+01 -0.27961983533E+02  0.15054606225E+02  0.32818206500E+02  0.10000000000E+00 0. -1.
         -5    1    3    3    0  501 -0.55891300690E+02  0.58800756236E+02  0.30128609501E+03  0.31201712689E+03  0.10000000000E+00 0. -1.
          1    1    1    2  502    0  0.47614164339E+02 -0.30838772703E+02  0.87707521923E+03  0.87890788979E+03  0.00000000000E+00 0. -1.
<mgrwt>
<rscale>  1 0.13725876E+03</rscale>
<asrwt>0</asrwt>
<pdfrwt beam="1">  1       21 0.23328704E-02 0.13725876E+03</pdfrwt>
<pdfrwt beam="2">  1        1 0.18593524E+00 0.13725876E+03</pdfrwt>
<totfact> 0.12193716E+05</totfact>
</mgrwt>
</event>
<event>
 6    2  0.1674964E-002  0.1270224E+03  0.7546771E-02  0.1231942E+00
         21   -1    0    0  502  503  0.00000000000E+00  0.00000000000E+00  0.48998087698E+02  0.48998087698E+02  0.00000000000E+00 0.  1.
          1   -1    0    0  503    0 -0.00000000000E+00 -0.00000000000E+00 -0.11716140525E+04  0.11716140525E+04  0.00000000000E+00 0. -1.
         25    2    1    2    0    0  0.12132695804E+02  0.19030074031E+02 -0.33638788483E+02  0.13140112457E+03  0.12500136568E+03 0.  0.
          5    1    3    3  501    0  0.88197445496E+01  0.18979408517E+02 -0.81134259224E+02  0.83790117922E+02  0.10000000000E+00 0.  1.
         -5    1    3    3    0  501  0.33129512542E+01  0.50665513900E-01  0.47495470741E+02  0.47611006646E+02  0.10000000000E+00 0.  1.
          1    1    1    2  502    0 -0.12132695804E+02 -0.19030074031E+02 -0.10889771763E+04  0.10892110156E+04  0.00000000000E+00 0. -1.
<mgrwt>
<rscale>  1 0.12702239E+03</rscale>
<asrwt>0</asrwt>
<pdfrwt beam="1">  1       21 0.75381677E-02 0.12702239E+03</pdfrwt>
<pdfrwt beam="2">  1        1 0.18024831E+00 0.12702239E+03</pdfrwt>
<totfact> 0.18293193E+04</totfact>
</mgrwt>
</event>
<event>
 6    2  0.1674964E-002  0.1287615E+03  0.7546771E-02  0.1229305E+00
         21   -1    0    0  502  503  0.00000000000E+00  0.00000000000E+00  0.12373978223E+03  0.12373978223E+03  0.00000000000E+00 0.  1.
          2   -1    0    0  503    0 -0.00000000000E+00 -0.00000000000E+00 -0.27569535380E+03  0.27569535380E+03  0.00000000000E+00 0.  1.
         25    2    1    2    0    0  0.25418641864E+02  0.17543375739E+02  0.88988346879E+02  0.15651982316E+03  0.12500260707E+03 0.  0.
          5    1    3    3  501    0  0.55585246930E+02 -0.18509082270E+01  0.10376638756E+03  0.11773112896E+03  0.10000000000E+00 0.  1.
         -5    1    3    3    0  501 -0.30166605066E+02  0.19394283966E+02 -0.14778040682E+02  0.38788694205E+02  0.10000000000E+00 0.  1.
          2    1    1    2  502    0 -0.25418641864E+02 -0.17543375739E+02 -0.24094391846E+03  0.24291531287E+03  0.00000000000E+00 0.  1.
<mgrwt>
<rscale>  1 0.12876152E+03</rscale>
<asrwt>0</asrwt>
<pdfrwt beam="1">  1       21 0.19036890E-01 0.12876152E+03</pdfrwt>
<pdfrwt beam="2">  1        2 0.42414669E-01 0.12876152E+03</pdfrwt>
<totfact> 0.37569271E+04</totfact>
</mgrwt>
</event>
<event>
 6    2  0.1674964E-002  0.1369218E+03  0.7546771E-02  0.1217532E+00
          2   -1    0    0  503    0 -0.00000000000E+00  0.00000000000E+00  0.25510723219E+04  0.25510723219E+04  0.00000000000E+00 0. -1.
         21   -1    0    0  502  503  0.00000000000E+00 -0.00000000000E+00 -0.36527318492E+01  0.36527318492E+01  0.00000000000E+00 0. -1.
         25    2    1    2    0    0 -0.42491970790E+02 -0.36259769320E+02  0.17451170968E+04  0.17504802967E+04  0.12500899720E+03 0.  0.
          5    1    3    3  501    0  0.63553700935E+01 -0.64413933302E+02  0.13271845303E+04  0.13287619550E+04  0.10000000000E+00 0. -1.
         -5    1    3    3    0  501 -0.48847340883E+02  0.28154163982E+02  0.41793256645E+03  0.42171834174E+03  0.10000000000E+00 0. -1.
          2    1    1    2  502    0  0.42491970790E+02  0.36259769320E+02  0.80230249327E+03  0.80424475700E+03  0.00000000000E+00 0. -1.
<mgrwt>
<rscale>  1 0.13692183E+03</rscale>
<asrwt>0</asrwt>
<pdfrwt beam="1">  1       21 0.56196078E-03 0.13692183E+03</pdfrwt>
<pdfrwt beam="2">  1        2 0.39247124E+00 0.13692183E+03</pdfrwt>
<totfact> 0.45822231E+05</totfact>
</mgrwt>
</event>
<event>
 6    2  0.1674964E-002  0.1271123E+03  0.7546771E-02  0.1231805E+00
         21   -1    0    0  502  503  0.00000000000E+00  0.00000000000E+00  0.61024341829E+01  0.61024341829E+01  0.00000000000E+00 0.  1.
          2   -1    0    0  503    0 -0.00000000000E+00 -0.00000000000E+00 -0.16270618195E+04  0.16270618195E+04  0.00000000000E+00 0.  1.
         25    2    1    2    0    0  0.27938719728E+01  0.22981670994E+02 -0.67163821288E+03  0.68356083575E+03  0.12498625621E+03 0.  0.
          5    1    3    3  501    0 -0.18321190159E+02 -0.94502412820E+01 -0.61273656798E+03  0.61308326091E+03  0.10000000000E+00 0. -1.
         -5    1    3    3    0  501  0.21115062131E+02  0.32431912276E+02 -0.58901644907E+02  0.70477574841E+02  0.10000000000E+00 0. -1.
          2    1    1    2  502    0 -0.27938719728E+01 -0.22981670994E+02 -0.94932117240E+03  0.94960341791E+03  0.00000000000E+00 0.  1.
<mgrwt>
<rscale>  1 0.12711226E+03</rscale>
<asrwt>0</asrwt>
<pdfrwt beam="1">  1       21 0.93883591E-03 0.12711226E+03</pdfrwt>
<pdfrwt beam="2">  1        2 0.25031723E+00 0.12711226E+03</pdfrwt>
<totfact> 0.61709808E+05</totfact>
</mgrwt>
</event>
<event>
 6    2  0.1674964E-002  0.1306766E+03  0.7546771E-02  0.1226455E+00
          2   -1    0    0  503    0 -0.00000000000E+00  0.00000000000E+00  0.75955485575E+03  0.75955485575E+03  0.00000000000E+00 0. -1.
         21   -1    0    0  502  503  0.00000000000E+00 -0.00000000000E+00 -0.17681848367E+02  0.17681848367E+02  0.00000000000E+00 0. -1.
         25    2    1    2    0    0  0.31191284157E+02 -0.21902463582E+02  0.23464608992E+03  0.26857988472E+03  0.12499501128E+03 0.  0.
          5    1    3    3  501    0  0.48742650824E+02  0.41371187117E+02  0.98549559809E+02  0.11747104695E+03  0.10000000000E+00 0.  1.
         -5    1    3    3    0  501 -0.17551366667E+02 -0.63273650699E+02  0.13609653011E+03  0.15110883777E+03  0.10000000000E+00 0.  1.
          2    1    1    2  502    0 -0.31191284157E+02  0.21902463582E+02  0.50722691746E+03  0.50865681939E+03  0.00000000000E+00 0. -1.
<mgrwt>
<rscale>  1 0.13067657E+03</rscale>
<asrwt>0</asrwt>
<pdfrwt beam="1">  1       21 0.27202850E-02 0.13067657E+03</pdfrwt>
<pdfrwt beam="2">  1        2 0.11685457E+00 0.13067657E+03</pdfrwt>
<totfact> 0.35068934E+05</totfact>
</mgrwt>
</event>
<event>
 6    2  0.1674964E-002  0.1305329E+03  0.7546771E-02  0.1226667E+00
          2   -1    0    0  503    0 -0.00000000000E+00  0.00000000000E+00  0.62242530409E+02  0.62242530409E+02  0.00000000000E+00 0.  1.
         21   -1    0    0  502  503  0.00000000000E+00 -0.00000000000E+00 -0.12869190286E+03  0.12869190286E+03  0.00000000000E+00 0.  1.
         25    2    1    2    0    0  0.30196269643E+02  0.22409558716E+02 -0.77417838042E+02  0.15176416061E+03  0.12499934311E+03 0.  0.
          5    1    3    3  501    0  0.71323621076E+02 -0.12166191202E+02 -0.63484066717E+02  0.96256489956E+02  0.10000000000E+00 0. -1.
         -5    1    3    3    0  501 -0.41127351432E+02  0.34575749918E+02 -0.13933771325E+02  0.55507670655E+02  0.10000000000E+00 0. -1.
          2    1    1    2  502    0 -0.30196269643E+02 -0.22409558716E+02  0.10968465595E+02  0.39170272653E+02  0.00000000000E+00 0.  1.
<mgrwt>
<rscale>  1 0.13053290E+03</rscale>
<asrwt>0</asrwt>
<pdfrwt beam="1">  1       21 0.19798754E-01 0.13053290E+03</pdfrwt>
<pdfrwt beam="2">  1        2 0.95757741E-02 0.13053290E+03</pdfrwt>
<totfact> 0.18894415E+05</totfact>
</mgrwt>
</event>
<event>
 6    2  0.1674964E-002  0.1940963E+03  0.7546771E-02  0.1154818E+00
         21   -1    0    0  502  503  0.00000000000E+00  0.00000000000E+00  0.53207562035E+02  0.53207562035E+02  0.00000000000E+00 0. -1.
          2   -1    0    0  503    0 -0.00000000000E+00 -0.00000000000E+00 -0.55179553892E+03  0.55179553892E+03  0.00000000000E+00 0. -1.
         25    2    1    2    0    0 -0.70901827746E+02  0.13046521771E+03 -0.29007842695E+03  0.34902561244E+03  0.12500056859E+03 0.  0.
          5    1    3    3  501    0 -0.17839594418E+02  0.12500018816E+03 -0.25677221039E+03  0.28613856119E+03  0.10000000000E+00 0. -1.
         -5    1    3    3    0  501 -0.53062233329E+02  0.54650295507E+01 -0.33306216553E+02  0.62887051250E+02  0.10000000000E+00 0. -1.
          2    1    1    2  502    0  0.70901827746E+02 -0.13046521771E+03 -0.20850954994E+03  0.25597748851E+03  0.00000000000E+00 0. -1.
<mgrwt>
<rscale>  1 0.19409633E+03</rscale>
<asrwt>0</asrwt>
<pdfrwt beam="1">  1       21 0.81857790E-02 0.19409633E+03</pdfrwt>
<pdfrwt beam="2">  1        2 0.84891619E-01 0.19409633E+03</pdfrwt>
<totfact> 0.80472282E+04</totfact>
</mgrwt>
</event>
<event>
 6    2  0.1674964E-002  0.1271720E+03  0.7546771E-02  0.1231713E+00
          2   -1    0    0  503    0 -0.00000000000E+00  0.00000000000E+00  0.14957516679E+03  0.14957516679E+03  0.00000000000E+00 0.  1.
         21   -1    0    0  502  503  0.00000000000E+00 -0.00000000000E+00 -0.88738351291E+02  0.88738351291E+02  0.00000000000E+00 0.  1.
         25    2    1    2    0    0  0.99656603976E+01  0.21273506655E+02 -0.41143831060E+02  0.13366205490E+03  0.12498341336E+03 0.  0.
          5    1    3    3  501    0 -0.42241723102E+02 -0.27207694418E+02  0.21522813972E+01  0.50291789801E+02  0.10000000000E+00 0.  1.
         -5    1    3    3    0  501  0.52207383500E+02  0.48481201073E+02 -0.43296112457E+02  0.83370265103E+02  0.10000000000E+00 0.  1.
          2    1    1    2  502    0 -0.99656603976E+01 -0.21273506655E+02  0.10198064656E+03  0.10465146318E+03  0.00000000000E+00 0.  1.
<mgrwt>
<rscale>  1 0.12717205E+03</rscale>
<asrwt>0</asrwt>
<pdfrwt beam="1">  1       21 0.13652054E-01 0.12717205E+03</pdfrwt>
<pdfrwt beam="2">  1        2 0.23011564E-01 0.12717205E+03</pdfrwt>
<totfact> 0.13286118E+05</totfact>
</mgrwt>
</event>
<event>
 6    2  0.1674964E-002  0.1551603E+03  0.7546771E-02  0.1194272E+00
         21   -1    0    0  502  503  0.00000000000E+00  0.00000000000E+00  0.86462987466E+03  0.86462987466E+03  0.00000000000E+00 0. -1.
          1   -1    0    0  503    0 -0.00000000000E+00 -0.00000000000E+00 -0.20278325804E+02  0.20278325804E+02  0.00000000000E+00 0.  1.
         25    2    1    2    0    0 -0.75865150134E+02 -0.51900136230E+02  0.67087265128E+03  0.68858175535E+03  0.12500229767E+03 0.  0.
          5    1    3    3  501    0 -0.75029038483E+02 -0.82314815848E+02  0.37616257394E+03  0.39230520970E+03  0.10000000000E+00 0.  1.
         -5    1    3    3    0  501 -0.83611165099E+00  0.30414679617E+02  0.29471007734E+03  0.29627654565E+03  0.10000000000E+00 0.  1.
          1    1    1    2  502    0  0.75865150134E+02  0.51900136230E+02  0.17347889758E+03  0.19632644511E+03  0.00000000000E+00 0.  1.
<mgrwt>
<rscale>  1 0.15516030E+03</rscale>
<asrwt>0</asrwt>
<pdfrwt beam="1">  1       21 0.13301995E+00 0.15516030E+03</pdfrwt>
<pdfrwt beam="2">  1        1 0.31197431E-02 0.15516030E+03</pdfrwt>
<totfact> 0.13843672E+04</totfact>
</mgrwt>
</event>
<event>
 6    2  0.1674964E-002  0.1284670E+03  0.7546771E-02  0.1229748E+00
          1   -1    0    0  503    0 -0.00000000000E+00  0.00000000000E+00  0.10281323104E+04  0.10281323104E+04  0.00000000000E+00 0. -1.
         21   -1    0    0  502  503  0.00000000000E+00 -0.00000000000E+00 -0.64104360272E+01  0.64104360272E+01  0.00000000000E+00 0. -1.
         25    2    1    2    0    0  0.29301556117E+02  0.43508546489E+01  0.72009071743E+03  0.73146047052E+03  0.12500506984E+03 0.  0.
          5    1    3    3  501    0  0.20317199684E+02  0.48725693288E+02  0.61197157107E+03  0.61424441030E+03  0.10000000000E+00 0.  1.
         -5    1    3    3    0  501  0.89843564327E+01 -0.44374838639E+02  0.10811914636E+03  0.11721606022E+03  0.10000000000E+00 0.  1.
          1    1    1    2  502    0 -0.29301556117E+02 -0.43508546489E+01  0.30163115697E+03  0.30308227593E+03  0.00000000000E+00 0. -1.
<mgrwt>
<rscale>  1 0.12846703E+03</rscale>
<asrwt>0</asrwt>
<pdfrwt beam="1">  1       21 0.98622174E-03 0.12846703E+03</pdfrwt>
<pdfrwt beam="2">  1        1 0.15817407E+00 0.12846703E+03</pdfrwt>
<totfact> 0.64497152E+05</totfact>
</mgrwt>
</event>
<event>
 6    2  0.1674964E-002  0.1264564E+03  0.7546771E-02  0.1232811E+00
          2   -1    0    0  503    0 -0.00000000000E+00  0.00000000000E+00  0.23337430887E+04  0.23337430887E+04  0.00000000000E+00 0. -1.
         21   -1    0    0  502  503  0.00000000000E+00 -0.00000000000E+00 -0.26731880385E+01  0.26731880385E+01  0.00000000000E+00 0. -1.
         25    2    1    2    0    0  0.97258824263E+01 -0.16491538357E+02  0.15628036441E+04  0.15679114917E+04  0.12499860890E+03 0.  0.
          5    1    3    3  501    0 -0.23827171614E+02  0.39297819962E+02  0.30692529159E+03  0.31034689845E+03  0.10000000000E+00 0.  1.
         -5    1    3    3    0  501  0.33553054040E+02 -0.55789358319E+02  0.12558783525E+04  0.12575645932E+04  0.10000000000E+00 0.  1.
          2    1    1    2  502    0 -0.97258824263E+01  0.16491538357E+02  0.76826625656E+03  0.76850478501E+03  0.00000000000E+00 0. -1.
<mgrwt>
<rscale>  1 0.12645638E+03</rscale>
<asrwt>0</asrwt>
<pdfrwt beam="1">  1       21 0.41126156E-03 0.12645638E+03</pdfrwt>
<pdfrwt beam="2">  1        2 0.35903577E+00 0.12645638E+03</pdfrwt>
<totfact> 0.96597202E+05</totfact>
</mgrwt>
</event>
<event>
 6    2  0.1674964E-002  0.1333206E+03  0.7546771E-02  0.1222610E+00
          2   -1    0    0  503    0 -0.00000000000E+00  0.00000000000E+00  0.49680585541E+03  0.49680585541E+03  0.00000000000E+00 0.  1.
         21   -1    0    0  502  503  0.00000000000E+00 -0.00000000000E+00 -0.43601719141E+02  0.43601719141E+02  0.00000000000E+00 0.  1.
         25    2    1    2    0    0  0.46001514566E+02  0.57267869709E+01  0.62994474782E+02  0.14745399542E+03  0.12500176591E+03 0.  0.
          5    1    3    3  501    0  0.13724181487E+02  0.51555289146E+02  0.73097818327E+02  0.90496420043E+02  0.10000000000E+00 0.  1.
         -5    1    3    3    0  501  0.32277333079E+02 -0.45828502175E+02 -0.10103343545E+02  0.56957575380E+02  0.10000000000E+00 0.  1.
          2    1    1    2  502    0 -0.46001514566E+02 -0.57267869709E+01  0.39020966149E+03  0.39295357913E+03  0.00000000000E+00 0.  1.
<mgrwt>
<rscale>  1 0.13332058E+03</rscale>
<asrwt>0</asrwt>
<pdfrwt beam="1">  1       21 0.67079572E-02 0.13332058E+03</pdfrwt>
<pdfrwt beam="2">  1        2 0.76431666E-01 0.13332058E+03</pdfrwt>
<totfact> 0.12673251E+05</totfact>
</mgrwt>
</event>
<event>
 6    2  0.1674964E-002  0.1346343E+03  0.7546771E-02  0.1220737E+00
          1   -1    0    0  503    0 -0.00000000000E+00  0.00000000000E+00  0.13719585601E+03  0.13719585601E+03  0.00000000000E+00 0. -1.
         21   -1    0    0  502  503  0.00000000000E+00 -0.00000000000E+00 -0.68470078124E+02  0.68470078124E+02  0.00000000000E+00 0. -1.
         25    2    1    2    0    0 -0.41203361497E+02 -0.28109030094E+02  0.20316707328E+02  0.13615857709E+03  0.12505420803E+03 0.  0.
          5    1    3    3  501    0  0.32385375871E+02  0.27269604280E+02  0.29750825963E+01  0.42441783708E+02  0.10000000000E+00 0.  1.
         -5    1    3    3    0  501 -0.73588737368E+02 -0.55378634374E+02  0.17341624732E+02  0.93716793377E+02  0.10000000000E+00 0.  1.
          1    1    1    2  502    0  0.41203361497E+02  0.28109030094E+02  0.48409070553E+02  0.69507357045E+02  0.00000000000E+00 0. -1.
<mgrwt>
<rscale>  1 0.13463428E+03</rscale>
<asrwt>0</asrwt>
<pdfrwt beam="1">  1       21 0.10533858E-01 0.13463428E+03</pdfrwt>
<pdfrwt beam="2">  1        1 0.21107055E-01 0.13463428E+03</pdfrwt>
<totfact> 0.18668821E+05</totfact>
</mgrwt>
</event>
<event>
 6    2  0.1674964E-002  0.1273313E+03  0.7546771E-02  0.1231470E+00
          3   -1    0    0  503    0 -0.00000000000E+00  0.00000000000E+00  0.64061197619E+02  0.64061197619E+02  0.00000000000E+00 0.  1.
         21   -1    0    0  502  503  0.00000000000E+00 -0.00000000000E+00 -0.13488498669E+03  0.13488498669E+03  0.00000000000E+00 0.  1.
         25    2    1    2    0    0  0.45712441528E+01  0.23822318026E+02 -0.34930295005E+01  0.12737922061E+03  0.12499946191E+03 0.  0.
          5    1    3    3  501    0  0.27308104791E+02 -0.14001196586E+02 -0.52884686664E+02  0.61143815523E+02  0.10000000000E+00 0. -1.
         -5    1    3    3    0  501 -0.22736860638E+02  0.37823514612E+02  0.49391657164E+02  0.66235405084E+02  0.10000000000E+00 0. -1.
          3    1    1    2  502    0 -0.45712441528E+01 -0.23822318026E+02 -0.67330759572E+02  0.71566963704E+02  0.00000000000E+00 0.  1.
<mgrwt>
<rscale>  1 0.12733132E+03</rscale>
<asrwt>0</asrwt>
<pdfrwt beam="1">  1       21 0.20751536E-01 0.12733132E+03</pdfrwt>
<pdfrwt beam="2">  1        3 0.98555689E-02 0.12733132E+03</pdfrwt>
<totfact> 0.77157401E+04</totfact>
</mgrwt>
</event>
<event>
 6    2  0.1674964E-002  0.1273527E+03  0.7546771E-02  0.1231438E+00
          2   -1    0    0  503    0 -0.00000000000E+00  0.00000000000E+00  0.96657550723E+03  0.96657550723E+03  0.00000000000E+00 0.  1.
         21   -1    0    0  502  503  0.00000000000E+00 -0.00000000000E+00 -0.24509858884E+02  0.24509858884E+02  0.00000000000E+00 0. -1.
         25    2    1    2    0    0  0.23662465489E+02 -0.62749203195E+01  0.14238197778E+03  0.19102708082E+03  0.12497772247E+03 0.  0.
          5    1    3    3  501    0 -0.18931281405E+02  0.51762961234E+02  0.55895943505E+02  0.78499452684E+02  0.10000000000E+00 0. -1.
         -5    1    3    3    0  501  0.42593746894E+02 -0.58037881554E+02  0.86486034279E+02  0.11252762814E+03  0.10000000000E+00 0. -1.
          2    1    1    2  502    0 -0.23662465489E+02  0.62749203195E+01  0.79968367056E+03  0.80005828529E+03  0.00000000000E+00 0.  1.
<mgrwt>
<rscale>  1 0.12735273E+03</rscale>
<asrwt>0</asrwt>
<pdfrwt beam="1">  1       21 0.37707483E-02 0.12735273E+03</pdfrwt>
<pdfrwt beam="2">  1        2 0.14870389E+00 0.12735273E+03</pdfrwt>
<totfact> 0.15047596E+05</totfact>
</mgrwt>
</event>
<event>
 6    2  0.1674964E-002  0.1368473E+03  0.7546771E-02  0.1217635E+00
         21   -1    0    0  502  503  0.00000000000E+00  0.00000000000E+00  0.17163802001E+02  0.17163802001E+02  0.00000000000E+00 0.  1.
          2   -1    0    0  503    0 -0.00000000000E+00 -0.00000000000E+00 -0.61517544734E+03  0.61517544734E+03  0.00000000000E+00 0.  1.
         25    2    1    2    0    0  0.36910776325E+02 -0.41772395507E+02 -0.51097002580E+03  0.52897783504E+03  0.12497937533E+03 0.  0.
          5    1    3    3  501    0  0.15596798815E+02 -0.75134787844E+02 -0.18035781361E+03  0.19600369233E+03  0.10000000000E+00 0. -1.
         -5    1    3    3    0  501  0.21313977511E+02  0.33362392337E+02 -0.33061221219E+03  0.33297414270E+03  0.10000000000E+00 0. -1.
          2    1    1    2  502    0 -0.36910776325E+02  0.41772395507E+02 -0.87041619539E+02  0.10336141431E+03  0.00000000000E+00 0.  1.
<mgrwt>
<rscale>  1 0.13684730E+03</rscale>
<asrwt>0</asrwt>
<pdfrwt beam="1">  1       21 0.26405849E-02 0.13684730E+03</pdfrwt>
<pdfrwt beam="2">  1        2 0.94642378E-01 0.13684730E+03</pdfrwt>
<totfact> 0.47317990E+05</totfact>
</mgrwt>
</event>
<event>
 6    2  0.1674964E-002  0.1281352E+03  0.7546771E-02  0.1230249E+00
         21   -1    0    0  502  503  0.00000000000E+00  0.00000000000E+00  0.38968027146E+02  0.38968027146E+02  0.00000000000E+00 0. -1.
          1   -1    0    0  503    0 -0.00000000000E+00 -0.00000000000E+00 -0.81797938016E+03  0.81797938016E+03  0.00000000000E+00 0.  1.
         25    2    1    2    0    0 -0.20543772239E+02  0.19261998601E+02 -0.67402705111E+02  0.14478173912E+03  0.12500222462E+03 0.  0.
          5    1    3    3  501    0 -0.34249374346E+02  0.52980041704E+02 -0.83774630637E+02  0.10487184179E+03  0.10000000000E+00 0.  1.
         -5    1    3    3    0  501  0.13705602107E+02 -0.33718043103E+02  0.16371925526E+02  0.39909897334E+02  0.10000000000E+00 0.  1.
          1    1    1    2  502    0  0.20543772239E+02 -0.19261998601E+02 -0.71160864790E+03  0.71216566818E+03  0.00000000000E+00 0.  1.
<mgrwt>
<rscale>  1 0.12813519E+03</rscale>
<asrwt>0</asrwt>
<pdfrwt beam="1">  1       21 0.59950819E-02 0.12813519E+03</pdfrwt>
<pdfrwt beam="2">  1        1 0.12584297E+00 0.12813519E+03</pdfrwt>
<totfact> 0.49256392E+04</totfact>
</mgrwt>
</event>
<event>
 6    2  0.1674964E-002  0.1282656E+03  0.7546771E-02  0.1230052E+00
         21   -1    0    0  502  503  0.00000000000E+00  0.00000000000E+00  0.22257969767E+03  0.22257969767E+03  0.00000000000E+00 0. -1.
          3   -1    0    0  503    0 -0.00000000000E+00 -0.00000000000E+00 -0.31534546125E+02  0.31534546125E+02  0.00000000000E+00 0. -1.
         25    2    1    2    0    0 -0.13090028129E+02 -0.25605118473E+02  0.18436055062E+03  0.22459044292E+03  0.12500033399E+03 0.  0.
          5    1    3    3  501    0  0.13329044361E+02 -0.72129973837E+02  0.12270185274E+03  0.14295506712E+03  0.10000000000E+00 0. -1.
         -5    1    3    3    0  501 -0.26419072490E+02  0.46524855365E+02  0.61658697882E+02  0.81635375803E+02  0.10000000000E+00 0. -1.
          3    1    1    2  502    0  0.13090028129E+02  0.25605118473E+02  0.66846009229E+01  0.29523800872E+02  0.00000000000E+00 0. -1.
<mgrwt>
<rscale>  1 0.12826556E+03</rscale>
<asrwt>0</asrwt>
<pdfrwt beam="1">  1       21 0.34243029E-01 0.12826556E+03</pdfrwt>
<pdfrwt beam="2">  1        3 0.48514688E-02 0.12826556E+03</pdfrwt>
<totfact> 0.93160805E+04</totfact>
</mgrwt>
</event>
<event>
 6    2  0.1674964E-002  0.1294201E+03  0.7546771E-02  0.1228319E+00
          2   -1    0    0  503    0 -0.00000000000E+00  0.00000000000E+00  0.87892685087E+03  0.87892685087E+03  0.00000000000E+00 0. -1.
         21   -1    0    0  502  503  0.00000000000E+00 -0.00000000000E+00 -0.10995216838E+04  0.10995216838E+04  0.00000000000E+00 0.  1.
         25    2    1    2    0    0  0.82518483956E+01  0.32522168114E+02 -0.10953905861E+04  0.11030095625E+04  0.12499509793E+03 0.  0.
          5    1    3    3  501    0  0.51937734743E+02 -0.65834444725E+01 -0.24155795013E+03  0.24716618560E+03  0.10000000000E+00 0. -1.
         -5    1    3    3    0  501 -0.43685886348E+02  0.39105612586E+02 -0.85383263594E+03  0.85584337691E+03  0.10000000000E+00 0. -1.
          2    1    1    2  502    0 -0.82518483956E+01 -0.32522168114E+02  0.87479575310E+03  0.87543897221E+03  0.00000000000E+00 0. -1.
<mgrwt>
<rscale>  1 0.12942009E+03</rscale>
<asrwt>0</asrwt>
<pdfrwt beam="1">  1       21 0.16915718E+00 0.12942009E+03</pdfrwt>
<pdfrwt beam="2">  1        2 0.13521952E+00 0.12942009E+03</pdfrwt>
<totfact> 0.92761719E+01</totfact>
</mgrwt>
</event>
<event>
 6    2  0.1674964E-002  0.1350962E+03  0.7546771E-02  0.1220084E+00
         21   -1    0    0  502  503  0.00000000000E+00  0.00000000000E+00  0.31766309279E+02  0.31766309279E+02  0.00000000000E+00 0.  1.
          1   -1    0    0  503    0 -0.00000000000E+00 -0.00000000000E+00 -0.74502519442E+03  0.74502519442E+03  0.00000000000E+00 0.  1.
         25    2    1    2    0    0 -0.15622172826E+02 -0.48793763875E+02 -0.11812426151E+03  0.17945566523E+03  0.12500444372E+03 0.  0.
          5    1    3    3  501    0  0.22747496581E+01  0.17165361705E+02  0.19327860950E+02  0.25949958331E+02  0.10000000000E+00 0.  1.
         -5    1    3    3    0  501 -0.17896922485E+02 -0.65959125580E+02 -0.13745212246E+03  0.15350570690E+03  0.10000000000E+00 0.  1.
          1    1    1    2  502    0  0.15622172826E+02  0.48793763875E+02 -0.59513462363E+03  0.59733583847E+03  0.00000000000E+00 0.  1.
<mgrwt>
<rscale>  1 0.13509624E+03</rscale>
<asrwt>0</asrwt>
<pdfrwt beam="1">  1       21 0.48871249E-02 0.13509624E+03</pdfrwt>
<pdfrwt beam="2">  1        1 0.11461925E+00 0.13509624E+03</pdfrwt>
<totfact> 0.79945967E+04</totfact>
</mgrwt>
</event>
<event>
 6    2  0.1674964E-002  0.1813956E+03  0.7546771E-02  0.1166459E+00
         21   -1    0    0  502  503  0.00000000000E+00  0.00000000000E+00  0.24887660988E+02  0.24887660988E+02  0.00000000000E+00 0.  1.
          2   -1    0    0  503    0 -0.00000000000E+00 -0.00000000000E+00 -0.11189845482E+04  0.11189845482E+04  0.00000000000E+00 0.  1.
         25    2    1    2    0    0  0.11922484876E+03  0.55371935705E+02 -0.42676842588E+03  0.46371936524E+03  0.12499497808E+03 0.  0.
          5    1    3    3  501    0  0.49013131589E+02  0.90655472399E+01 -0.30090668806E+02  0.58223101636E+02  0.10000000000E+00 0. -1.
         -5    1    3    3    0  501  0.70211717169E+02  0.46306388465E+02 -0.39667775707E+03  0.40549626360E+03  0.10000000000E+00 0. -1.
          2    1    1    2  502    0 -0.11922484876E+03 -0.55371935705E+02 -0.66732846136E+03  0.68015284398E+03  0.00000000000E+00 0.  1.
<mgrwt>
<rscale>  1 0.18139559E+03</rscale>
<asrwt>0</asrwt>
<pdfrwt beam="1">  1       21 0.38288701E-02 0.18139559E+03</pdfrwt>
<pdfrwt beam="2">  1        2 0.17215150E+00 0.18139559E+03</pdfrwt>
<totfact> 0.11974751E+05</totfact>
</mgrwt>
</event>
<event>
 6    2  0.1674964E-002  0.1303840E+03  0.7546771E-02  0.1226887E+00
         21   -1    0    0  502  503  0.00000000000E+00  0.00000000000E+00  0.20317543819E+02  0.20317543819E+02  0.00000000000E+00 0.  1.
          2   -1    0    0  503    0 -0.00000000000E+00 -0.00000000000E+00 -0.88500389757E+03  0.88500389757E+03  0.00000000000E+00 0.  1.
         25    2    1    2    0    0  0.27382400900E+02 -0.24995529345E+02 -0.19478760363E+03  0.23439752038E+03  0.12500165866E+03 0.  0.
          5    1    3    3  501    0  0.26447962889E+02  0.37398705148E+02 -0.15195877225E+03  0.15871243288E+03  0.10000000000E+00 0. -1.
         -5    1    3    3    0  501  0.93443801100E+00 -0.62394234493E+02 -0.42828831378E+02  0.75685087498E+02  0.10000000000E+00 0. -1.
          2    1    1    2  502    0 -0.27382400900E+02  0.24995529345E+02 -0.66989875012E+03  0.67092392101E+03  0.00000000000E+00 0.  1.
<mgrwt>
<rscale>  1 0.13038400E+03</rscale>
<asrwt>0</asrwt>
<pdfrwt beam="1">  1       21 0.31257765E-02 0.13038400E+03</pdfrwt>
<pdfrwt beam="2">  1        2 0.13615442E+00 0.13038400E+03</pdfrwt>
<totfact> 0.23053116E+05</totfact>
</mgrwt>
</event>
<event>
 6    2  0.1674964E-002  0.1263524E+03  0.7546771E-02  0.1232971E+00
          2   -1    0    0  503    0 -0.00000000000E+00  0.00000000000E+00  0.48078325761E+03  0.48078325761E+03  0.00000000000E+00 0. -1.
         21   -1    0    0  502  503  0.00000000000E+00 -0.00000000000E+00 -0.29826501974E+02  0.29826501974E+02  0.00000000000E+00 0. -1.
         25    2    1    2    0    0  0.97237578256E+01  0.15695007593E+02  0.10534959327E+03  0.16450978067E+03  0.12499618555E+03 0.  0.
          5    1    3    3  501    0  0.15500648602E+02  0.58414615792E+02  0.10528865102E+03  0.12140118401E+03  0.10000000000E+00 0. -1.
         -5    1    3    3    0  501 -0.57768907761E+01 -0.42719608199E+02  0.60942250518E-01  0.43108596656E+02  0.10000000000E+00 0. -1.
          2    1    1    2  502    0 -0.97237578256E+01 -0.15695007593E+02  0.34560716237E+03  0.34609997892E+03  0.00000000000E+00 0. -1.
<mgrwt>
<rscale>  1 0.12635241E+03</rscale>
<asrwt>0</asrwt>
<pdfrwt beam="1">  1       21 0.45886930E-02 0.12635241E+03</pdfrwt>
<pdfrwt beam="2">  1        2 0.73966649E-01 0.12635241E+03</pdfrwt>
<totfact> 0.24889449E+05</totfact>
</mgrwt>
</event>
<event>
 6    2  0.1674964E-002  0.1259504E+03  0.7546771E-02  0.1233591E+00
          1   -1    0    0  503    0 -0.00000000000E+00  0.00000000000E+00  0.68389100419E+03  0.68389100419E+03  0.00000000000E+00 0.  1.
         21   -1    0    0  502  503  0.00000000000E+00 -0.00000000000E+00 -0.18465282026E+02  0.18465282026E+02  0.00000000000E+00 0.  1.
         25    2    1    2    0    0 -0.11149424782E+02 -0.10647469889E+02  0.19792453186E+03  0.23460096426E+03  0.12500325527E+03 0.  0.
          5    1    3    3  501    0  0.20008206406E+02  0.10056133688E+02 -0.91381359428E+01  0.24186146383E+02  0.10000000000E+00 0.  1.
         -5    1    3    3    0  501 -0.31157631189E+02 -0.20703603577E+02  0.20706266780E+03  0.21041481787E+03  0.10000000000E+00 0.  1.
          1    1    1    2  502    0  0.11149424782E+02  0.10647469889E+02  0.46750119031E+03  0.46775532196E+03  0.00000000000E+00 0.  1.
<mgrwt>
<rscale>  1 0.12595036E+03</rscale>
<asrwt>0</asrwt>
<pdfrwt beam="1">  1       21 0.28408132E-02 0.12595036E+03</pdfrwt>
<pdfrwt beam="2">  1        1 0.10521398E+00 0.12595036E+03</pdfrwt>
<totfact> 0.22166464E+05</totfact>
</mgrwt>
</event>
<event>
 6    2  0.1674964E-002  0.1319645E+03  0.7546771E-02  0.1224569E+00
         21   -1    0    0  502  503  0.00000000000E+00  0.00000000000E+00  0.55306438000E+01  0.55306438000E+01  0.00000000000E+00 0. -1.
          2   -1    0    0  503    0 -0.00000000000E+00 -0.00000000000E+00 -0.14392963918E+04  0.14392963918E+04  0.00000000000E+00 0. -1.
         25    2    1    2    0    0  0.27274671326E+02 -0.32331966358E+02 -0.93434545835E+03  0.94361860645E+03  0.12500150055E+03 0.  0.
          5    1    3    3  501    0 -0.29200888423E+02 -0.30287961915E+02 -0.74073988348E+03  0.74193371503E+03  0.10000000000E+00 0.  1.
         -5    1    3    3    0  501  0.56475559748E+02 -0.20440044428E+01 -0.19360557488E+03  0.20168489142E+03  0.10000000000E+00 0.  1.
          2    1    1    2  502    0 -0.27274671326E+02  0.32331966358E+02 -0.49942028969E+03  0.50120842920E+03  0.00000000000E+00 0. -1.
<mgrwt>
<rscale>  1 0.13196454E+03</rscale>
<asrwt>0</asrwt>
<pdfrwt beam="1">  1       21 0.85086665E-03 0.13196454E+03</pdfrwt>
<pdfrwt beam="2">  1        2 0.22143064E+00 0.13196454E+03</pdfrwt>
<totfact> 0.90243812E+05</totfact>
</mgrwt>
</event>
<event>
 6    2  0.1674964E-002  0.1343389E+03  0.7546771E-02  0.1221156E+00
          1   -1    0    0  503    0 -0.00000000000E+00  0.00000000000E+00  0.45954485112E+03  0.45954485112E+03  0.00000000000E+00 0. -1.
         21   -1    0    0  502  503  0.00000000000E+00 -0.00000000000E+00 -0.10982476417E+03  0.10982476417E+03  0.00000000000E+00 0.  1.
         25    2    1    2    0    0 -0.17304419257E+02  0.46057746968E+02 -0.66746518609E+02  0.15000677415E+03  0.12500470216E+03 0.  0.
          5    1    3    3  501    0 -0.38514412180E+02 -0.15498533293E+02 -0.73638310371E+02  0.84535053286E+02  0.10000000000E+00 0.  1.
         -5    1    3    3    0  501  0.21209992923E+02  0.61556280261E+02  0.68917917615E+01  0.65471720865E+02  0.10000000000E+00 0.  1.
          1    1    1    2  502    0  0.17304419257E+02 -0.46057746968E+02  0.41646660556E+03  0.41936284114E+03  0.00000000000E+00 0. -1.
<mgrwt>
<rscale>  1 0.13433888E+03</rscale>
<asrwt>0</asrwt>
<pdfrwt beam="1">  1       21 0.16896118E-01 0.13433888E+03</pdfrwt>
<pdfrwt beam="2">  1        1 0.70699207E-01 0.13433888E+03</pdfrwt>
<totfact> 0.17724055E+04</totfact>
</mgrwt>
</event>
<event>
 6    2  0.1674964E-002  0.1443588E+03  0.7546771E-02  0.1207581E+00
          1   -1    0    0  503    0 -0.00000000000E+00  0.00000000000E+00  0.10043379304E+04  0.10043379304E+04  0.00000000000E+00 0. -1.
         21   -1    0    0  502  503  0.00000000000E+00 -0.00000000000E+00 -0.98627798532E+02  0.98627798532E+02  0.00000000000E+00 0.  1.
         25    2    1    2    0    0  0.72061866229E+02 -0.50893721661E+01 -0.43686691049E+02  0.15082438352E+03  0.12498261246E+03 0.  0.
          5    1    3    3  501    0  0.34785497580E+02 -0.23933508842E+02 -0.83216453761E+02  0.93315764284E+02  0.10000000000E+00 0. -1.
         -5    1    3    3    0  501  0.37276368649E+02  0.18844136676E+02  0.39529762712E+02  0.57508619239E+02  0.10000000000E+00 0. -1.
          1    1    1    2  502    0 -0.72061866229E+02  0.50893721661E+01  0.94939682292E+03  0.95214134541E+03  0.00000000000E+00 0. -1.
<mgrwt>
<rscale>  1 0.14435882E+03</rscale>
<asrwt>0</asrwt>
<pdfrwt beam="1">  1       21 0.15173508E-01 0.14435882E+03</pdfrwt>
<pdfrwt beam="2">  1        1 0.15451352E+00 0.14435882E+03</pdfrwt>
<totfact> 0.69725779E+03</totfact>
</mgrwt>
</event>
<event>
 6    2  0.1674964E-002  0.1301247E+03  0.7546771E-02  0.1227271E+00
         21   -1    0    0  502  503  0.00000000000E+00  0.00000000000E+00  0.52377495462E+01  0.52377495462E+01  0.00000000000E+00 0. -1.
          2   -1    0    0  503    0 -0.00000000000E+00 -0.00000000000E+00 -0.20813903843E+04  0.20813903843E+04  0.00000000000E+00 0.  1.
         25    2    1    2    0    0  0.15222119054E+02  0.32796221170E+02 -0.84641117372E+03  0.85635525110E+03  0.12500054424E+03 0.  0.
          5    1    3    3  501    0 -0.11090129318E+01  0.53253764062E+02 -0.80868291476E+03  0.81043522870E+03  0.10000000000E+00 0. -1.
         -5    1    3    3    0  501  0.16331131986E+02 -0.20457542892E+02 -0.37728258965E+02  0.45920022405E+02  0.10000000000E+00 0. -1.
          2    1    1    2  502    0 -0.15222119054E+02 -0.32796221170E+02 -0.12297414610E+04  0.12302728827E+04  0.00000000000E+00 0.  1.
<mgrwt>
<rscale>  1 0.13012471E+03</rscale>
<asrwt>0</asrwt>
<pdfrwt beam="1">  1       21 0.80580693E-03 0.13012471E+03</pdfrwt>
<pdfrwt beam="2">  1        2 0.32021418E+00 0.13012471E+03</pdfrwt>
<totfact> 0.46004061E+05</totfact>
</mgrwt>
</event>
<event>
 6    2  0.1674964E-002  0.1296828E+03  0.7546771E-02  0.1227927E+00
          2   -1    0    0  503    0 -0.00000000000E+00  0.00000000000E+00  0.25397741973E+04  0.25397741973E+04  0.00000000000E+00 0.  1.
         21   -1    0    0  502  503  0.00000000000E+00 -0.00000000000E+00 -0.36548951990E+02  0.36548951990E+02  0.00000000000E+00 0.  1.
         25    2    1    2    0    0  0.92489609182E+01  0.33277469336E+02  0.78997469288E+02  0.15184934179E+03  0.12499875681E+03 0.  0.
          5    1    3    3  501    0 -0.20722529273E+02  0.60422104557E+02  0.87606074639E+00  0.63882950941E+02  0.10000000000E+00 0.  1.
         -5    1    3    3    0  501  0.29971490191E+02 -0.27144635221E+02  0.78121408542E+02  0.87966390844E+02  0.10000000000E+00 0.  1.
          2    1    1    2  502    0 -0.92489609182E+01 -0.33277469336E+02  0.24242277760E+04  0.24244738075E+04  0.00000000000E+00 0.  1.
<mgrwt>
<rscale>  1 0.12968278E+03</rscale>
<asrwt>0</asrwt>
<pdfrwt beam="1">  1       21 0.56229177E-02 0.12968278E+03</pdfrwt>
<pdfrwt beam="2">  1        2 0.39073435E+00 0.12968278E+03</pdfrwt>
<totfact> 0.11365273E+04</totfact>
</mgrwt>
</event>
<event>
 6    2  0.1674964E-002  0.1311759E+03  0.7546771E-02  0.1225721E+00
          2   -1    0    0  503    0 -0.00000000000E+00  0.00000000000E+00  0.10951306794E+04  0.10951306794E+04  0.00000000000E+00 0.  1.
         21   -1    0    0  502  503  0.00000000000E+00 -0.00000000000E+00 -0.36506540891E+02  0.36506540891E+02  0.00000000000E+00 0. -1.
         25    2    1    2    0    0 -0.38447409549E+02  0.10211758174E+02  0.83057866811E+02  0.15526022662E+03  0.12499858169E+03 0.  0.
          5    1    3    3  501    0  0.24029058720E+02  0.21854295616E+02 -0.17049550740E+02  0.36683825867E+02  0.10000000000E+00 0. -1.
         -5    1    3    3    0  501 -0.62476468269E+02 -0.11642537442E+02  0.10010741755E+03  0.11857640075E+03  0.10000000000E+00 0. -1.
          2    1    1    2  502    0  0.38447409549E+02 -0.10211758174E+02  0.97556627165E+03  0.97637699363E+03  0.00000000000E+00 0.  1.
<mgrwt>
<rscale>  1 0.13117595E+03</rscale>
<asrwt>0</asrwt>
<pdfrwt beam="1">  1       21 0.56163917E-02 0.13117595E+03</pdfrwt>
<pdfrwt beam="2">  1        2 0.16848162E+00 0.13117595E+03</pdfrwt>
<totfact> 0.64946770E+04</totfact>
</mgrwt>
</event>
<event>
 6    2  0.1674964E-002  0.1361659E+03  0.7546771E-02  0.1218583E+00
          2   -1    0    0  503    0 -0.00000000000E+00  0.00000000000E+00  0.64452831600E+03  0.64452831600E+03  0.00000000000E+00 0.  1.
         21   -1    0    0  502  503  0.00000000000E+00 -0.00000000000E+00 -0.15353478747E+02  0.15353478747E+02  0.00000000000E+00 0.  1.
         25    2    1    2    0    0  0.19555750905E+02  0.50520054627E+02  0.35111085665E+03  0.37658993002E+03  0.12492573162E+03 0.  0.
          5    1    3    3  501    0  0.69420954242E+02  0.48263912459E+02  0.24833283733E+03  0.26233162644E+03  0.10000000000E+00 0. -1.
         -5    1    3    3    0  501 -0.49865203338E+02  0.22561421682E+01  0.10277801932E+03  0.11425830357E+03  0.10000000000E+00 0. -1.
          2    1    1    2  502    0 -0.19555750905E+02 -0.50520054627E+02  0.27806398061E+03  0.28329186473E+03  0.00000000000E+00 0.  1.
<mgrwt>
<rscale>  1 0.13616586E+03</rscale>
<asrwt>0</asrwt>
<pdfrwt beam="1">  1       21 0.23620742E-02 0.13616586E+03</pdfrwt>
<pdfrwt beam="2">  1        2 0.99158181E-01 0.13616586E+03</pdfrwt>
<totfact> 0.53760868E+05</totfact>
</mgrwt>
</event>
<event>
 6    2  0.1674964E-002  0.1496135E+03  0.7546771E-02  0.1200949E+00
          2   -1    0    0  503    0 -0.00000000000E+00  0.00000000000E+00  0.11805354694E+04  0.11805354694E+04  0.00000000000E+00 0. -1.
         21   -1    0    0  502  503  0.00000000000E+00 -0.00000000000E+00 -0.20034346918E+03  0.20034346918E+03  0.00000000000E+00 0. -1.
         25    2    1    2    0    0  0.62564046300E+02 -0.53338108721E+02 -0.17073890949E+03  0.22701535365E+03  0.12499992738E+03 0.  0.
          5    1    3    3  501    0  0.97089655769E+02 -0.48477316197E+02 -0.97437339825E+02  0.14584408331E+03  0.10000000000E+00 0.  1.
         -5    1    3    3    0  501 -0.34525609469E+02 -0.48607925241E+01 -0.73301569665E+02  0.81171270340E+02  0.10000000000E+00 0.  1.
          2    1    1    2  502    0 -0.62564046300E+02  0.53338108721E+02  0.11509309097E+04  0.11538635850E+04  0.00000000000E+00 0. -1.
<mgrwt>
<rscale>  1 0.14961349E+03</rscale>
<asrwt>0</asrwt>
<pdfrwt beam="1">  1       21 0.30822073E-01 0.14961349E+03</pdfrwt>
<pdfrwt beam="2">  1        2 0.18162084E+00 0.14961349E+03</pdfrwt>
<totfact> 0.27096343E+03</totfact>
</mgrwt>
</event>
<event>
 6    2  0.1674964E-002  0.1303950E+03  0.7546771E-02  0.1226871E+00
         21   -1    0    0  502  503  0.00000000000E+00  0.00000000000E+00  0.19365610328E+03  0.19365610328E+03  0.00000000000E+00 0.  1.
          1   -1    0    0  503    0 -0.00000000000E+00 -0.00000000000E+00 -0.44361195738E+03  0.44361195738E+03  0.00000000000E+00 0. -1.
         25    2    1    2    0    0  0.10471456044E+02 -0.35628451252E+02  0.17079540849E+03  0.21488119664E+03  0.12499527663E+03 0.  0.
          5    1    3    3  501    0 -0.43624759969E+02  0.30919031179E+01  0.16302864502E+02  0.46674114220E+02  0.10000000000E+00 0. -1.
         -5    1    3    3    0  501  0.54096216013E+02 -0.38720354370E+02  0.15449254399E+03  0.16820708242E+03  0.10000000000E+00 0. -1.
          1    1    1    2  502    0 -0.10471456044E+02  0.35628451252E+02 -0.42075126259E+03  0.42238686402E+03  0.00000000000E+00 0. -1.
<mgrwt>
<rscale>  1 0.13039500E+03</rscale>
<asrwt>0</asrwt>
<pdfrwt beam="1">  1       21 0.29793247E-01 0.13039500E+03</pdfrwt>
<pdfrwt beam="2">  1        1 0.68247993E-01 0.13039500E+03</pdfrwt>
<totfact> 0.64180109E+03</totfact>
</mgrwt>
</event>
<event>
 6    2  0.1674964E-002  0.1573361E+03  0.7546771E-02  0.1191738E+00
          2   -1    0    0  503    0 -0.00000000000E+00  0.00000000000E+00  0.35647808898E+04  0.35647808898E+04  0.00000000000E+00 0. -1.
         21   -1    0    0  502  503  0.00000000000E+00 -0.00000000000E+00 -0.11143346529E+02  0.11143346529E+02  0.00000000000E+00 0.  1.
         25    2    1    2    0    0 -0.48171933110E+02 -0.82517349159E+02  0.58615745124E+03  0.60690625985E+03  0.12500001020E+03 0.  0.
          5    1    3    3  501    0 -0.50576844319E+02 -0.13966885344E+02  0.77173675154E+02  0.93321365208E+02  0.10000000000E+00 0.  1.
         -5    1    3    3    0  501  0.24049112096E+01 -0.68550463815E+02  0.50898377609E+03  0.51358489465E+03  0.10000000000E+00 0.  1.
          2    1    1    2  502    0  0.48171933110E+02  0.82517349159E+02  0.29674800920E+04  0.29690179765E+04  0.00000000000E+00 0. -1.
<mgrwt>
<rscale>  1 0.15733611E+03</rscale>
<asrwt>0</asrwt>
<pdfrwt beam="1">  1       21 0.17143638E-02 0.15733611E+03</pdfrwt>
<pdfrwt beam="2">  1        2 0.54842692E+00 0.15733611E+03</pdfrwt>
<totfact> 0.19682579E+04</totfact>
</mgrwt>
</event>
<event>
 6    2  0.1674964E-002  0.1489304E+03  0.7546771E-02  0.1201794E+00
         21   -1    0    0  502  503  0.00000000000E+00  0.00000000000E+00  0.30357738198E+03  0.30357738198E+03  0.00000000000E+00 0. -1.
          2   -1    0    0  503    0 -0.00000000000E+00 -0.00000000000E+00 -0.10355459660E+03  0.10355459660E+03  0.00000000000E+00 0. -1.
         25    2    1    2    0    0 -0.31460390148E+02 -0.74600933844E+02  0.26455677818E+03  0.30359603456E+03  0.12500083136E+03 0.  0.
          5    1    3    3  501    0  0.32241220067E+02 -0.46662616561E+02  0.42428741168E+02  0.70831519346E+02  0.10000000000E+00 0.  1.
         -5    1    3    3    0  501 -0.63701610215E+02 -0.27938317284E+02  0.22212803701E+03  0.23276451521E+03  0.10000000000E+00 0.  1.
          2    1    1    2  502    0  0.31460390148E+02  0.74600933844E+02 -0.64533992796E+02  0.10353594402E+03  0.00000000000E+00 0. -1.
<mgrwt>
<rscale>  1 0.14893040E+03</rscale>
<asrwt>0</asrwt>
<pdfrwt beam="1">  1       21 0.46704212E-01 0.14893040E+03</pdfrwt>
<pdfrwt beam="2">  1        2 0.15931477E-01 0.14893040E+03</pdfrwt>
<totfact> 0.19477834E+04</totfact>
</mgrwt>
</event>
<event>
 6    2  0.1674964E-002  0.1279943E+03  0.7546771E-02  0.1230463E+00
          2   -1    0    0  503    0 -0.00000000000E+00  0.00000000000E+00  0.16333787825E+04  0.16333787825E+04  0.00000000000E+00 0. -1.
         21   -1    0    0  502  503  0.00000000000E+00 -0.00000000000E+00 -0.51023317978E+01  0.51023317978E+01  0.00000000000E+00 0. -1.
         25    2    1    2    0    0 -0.45797758025E+01  0.27130853192E+02  0.83731970150E+03  0.84704593903E+03  0.12500193105E+03 0.  0.
          5    1    3    3  501    0 -0.27984997014E+01  0.31970920877E+02  0.84041669253E+03  0.84102924947E+03  0.10000000000E+00 0.  1.
         -5    1    3    3    0  501 -0.17812761011E+01 -0.48400676844E+01 -0.30969910346E+01  0.60166895554E+01  0.10000000000E+00 0.  1.
          2    1    1    2  502    0  0.45797758025E+01 -0.27130853192E+02  0.79095674922E+03  0.79143517528E+03  0.00000000000E+00 0. -1.
<mgrwt>
<rscale>  1 0.12799430E+03</rscale>
<asrwt>0</asrwt>
<pdfrwt beam="1">  1       21 0.78497542E-03 0.12799430E+03</pdfrwt>
<pdfrwt beam="2">  1        2 0.25128863E+00 0.12799430E+03</pdfrwt>
<totfact> 0.81118101E+05</totfact>
</mgrwt>
</event>
<event>
 6    2  0.1674964E-002  0.1386028E+03  0.7546771E-02  0.1215221E+00
         21   -1    0    0  502  503  0.00000000000E+00  0.00000000000E+00  0.32876050417E+03  0.32876050417E+03  0.00000000000E+00 0.  1.
          1   -1    0    0  503    0 -0.00000000000E+00 -0.00000000000E+00 -0.31105064244E+03  0.31105064244E+03  0.00000000000E+00 0.  1.
         25    2    1    2    0    0  0.27199213655E+02 -0.53336194863E+02  0.31099205359E+03  0.34048024113E+03  0.12500476110E+03 0.  0.
          5    1    3    3  501    0  0.11736408490E+01  0.39511977356E+02  0.12307334917E+03  0.12926574590E+03  0.10000000000E+00 0. -1.
         -5    1    3    3    0  501  0.26025572806E+02 -0.92848172220E+02  0.18791870443E+03  0.21121449524E+03  0.10000000000E+00 0. -1.
          1    1    1    2  502    0 -0.27199213655E+02  0.53336194863E+02 -0.29328219186E+03  0.29933090547E+03  0.00000000000E+00 0.  1.
<mgrwt>
<rscale>  1 0.13860280E+03</rscale>
<asrwt>0</asrwt>
<pdfrwt beam="1">  1       21 0.50578539E-01 0.13860280E+03</pdfrwt>
<pdfrwt beam="2">  1        1 0.47853945E-01 0.13860280E+03</pdfrwt>
<totfact> 0.34740816E+03</totfact>
</mgrwt>
</event>
<event>
 6    2  0.1674964E-002  0.1278881E+03  0.7546771E-02  0.1230623E+00
          2   -1    0    0  503    0 -0.00000000000E+00  0.00000000000E+00  0.58179340489E+03  0.58179340489E+03  0.00000000000E+00 0. -1.
         21   -1    0    0  502  503  0.00000000000E+00 -0.00000000000E+00 -0.12584091242E+03  0.12584091242E+03  0.00000000000E+00 0. -1.
         25    2    1    2    0    0 -0.26629689417E+02  0.30918562522E+01 -0.92936902366E+02  0.15809062687E+03  0.12504670548E+03 0.  0.
          5    1    3    3  501    0 -0.22506195085E+02  0.16193685969E+02  0.26210261602E+02  0.38154319490E+02  0.10000000000E+00 0. -1.
         -5    1    3    3    0  501 -0.41234943320E+01 -0.13101829717E+02 -0.11914716397E+03  0.11993630738E+03  0.10000000000E+00 0. -1.
          2    1    1    2  502    0  0.26629689417E+02 -0.30918562522E+01  0.54888939484E+03  0.54954369044E+03  0.00000000000E+00 0. -1.
<mgrwt>
<rscale>  1 0.12788815E+03</rscale>
<asrwt>0</asrwt>
<pdfrwt beam="1">  1       21 0.19360141E-01 0.12788815E+03</pdfrwt>
<pdfrwt beam="2">  1        2 0.89506676E-01 0.12788815E+03</pdfrwt>
<totfact> 0.16308194E+04</totfact>
</mgrwt>
</event>
<event>
 6    2  0.1674964E-002  0.1313764E+03  0.7546771E-02  0.1225428E+00
          1   -1    0    0  503    0 -0.00000000000E+00  0.00000000000E+00  0.10308744258E+04  0.10308744258E+04  0.00000000000E+00 0.  1.
         21   -1    0    0  502  503  0.00000000000E+00 -0.00000000000E+00 -0.83976194472E+01  0.83976194472E+01  0.00000000000E+00 0. -1.
         25    2    1    2    0    0  0.20947097838E+02  0.34580207561E+02  0.56777122141E+03  0.58277260314E+03  0.12500070180E+03 0.  0.
          5    1    3    3  501    0 -0.36802151874E+02  0.57947991199E+02  0.27398687305E+03  0.28245563310E+03  0.10000000000E+00 0. -1.
         -5    1    3    3    0  501  0.57749249712E+02 -0.23367783637E+02  0.29378434836E+03  0.30031697004E+03  0.10000000000E+00 0. -1.
          1    1    1    2  502    0 -0.20947097838E+02 -0.34580207561E+02  0.45470558492E+03  0.45649944208E+03  0.00000000000E+00 0.  1.
<mgrwt>
<rscale>  1 0.13137636E+03</rscale>
<asrwt>0</asrwt>
<pdfrwt beam="1">  1       21 0.12919423E-02 0.13137636E+03</pdfrwt>
<pdfrwt beam="2">  1        1 0.15859597E+00 0.13137636E+03</pdfrwt>
<totfact> 0.41929769E+05</totfact>
</mgrwt>
</event>
<event>
 6    2  0.1674964E-002  0.1259119E+03  0.7546771E-02  0.1233651E+00
         21   -1    0    0  502  503  0.00000000000E+00  0.00000000000E+00  0.10271516020E+02  0.10271516020E+02  0.00000000000E+00 0.  1.
          1   -1    0    0  503    0 -0.00000000000E+00 -0.00000000000E+00 -0.11933387125E+04  0.11933387125E+04  0.00000000000E+00 0. -1.
         25    2    1    2    0    0  0.91061802310E+01  0.12101399356E+02 -0.37836322359E+03  0.39876375224E+03  0.12499773900E+03 0.  0.
          5    1    3    3  501    0  0.35206194275E+02 -0.37394921272E+02 -0.28750913399E+03  0.29206055602E+03  0.10000000000E+00 0. -1.
         -5    1    3    3    0  501 -0.26100014044E+02  0.49496320628E+02 -0.90854089599E+02  0.10670319623E+03  0.10000000000E+00 0. -1.
          1    1    1    2  502    0 -0.91061802310E+01 -0.12101399356E+02 -0.80470397294E+03  0.80484647632E+03  0.00000000000E+00 0. -1.
<mgrwt>
<rscale>  1 0.12591188E+03</rscale>
<asrwt>0</asrwt>
<pdfrwt beam="1">  1       21 0.15802329E-02 0.12591188E+03</pdfrwt>
<pdfrwt beam="2">  1        1 0.18359061E+00 0.12591188E+03</pdfrwt>
<totfact> 0.23360771E+05</totfact>
</mgrwt>
</event>
<event>
 6    2  0.1674964E-002  0.1260265E+03  0.7546771E-02  0.1233474E+00
         21   -1    0    0  502  503  0.00000000000E+00  0.00000000000E+00  0.15060800983E+03  0.15060800983E+03  0.00000000000E+00 0.  1.
          2   -1    0    0  503    0 -0.00000000000E+00 -0.00000000000E+00 -0.52764356110E+02  0.52764356110E+02  0.00000000000E+00 0. -1.
         25    2    1    2    0    0  0.15690203901E+02 -0.33825097591E+01  0.12132105067E+03  0.17493274501E+03  0.12500017628E+03 0.  0.
          5    1    3    3  501    0  0.46600306448E+02 -0.29344545662E+02  0.12275371993E+03  0.13454061349E+03  0.10000000000E+00 0.  1.
         -5    1    3    3    0  501 -0.30910102547E+02  0.25962035903E+02 -0.14326692602E+01  0.40392131522E+02  0.10000000000E+00 0.  1.
          2    1    1    2  502    0 -0.15690203901E+02  0.33825097591E+01 -0.23477396953E+02  0.28439620926E+02  0.00000000000E+00 0. -1.
<mgrwt>
<rscale>  1 0.12602646E+03</rscale>
<asrwt>0</asrwt>
<pdfrwt beam="1">  1       21 0.23170463E-01 0.12602646E+03</pdfrwt>
<pdfrwt beam="2">  1        2 0.81175933E-02 0.12602646E+03</pdfrwt>
<totfact> 0.17275332E+05</totfact>
</mgrwt>
</event>
<event>
 6    2  0.1674964E-002  0.1304331E+03  0.7546771E-02  0.1226814E+00
          2   -1    0    0  503    0 -0.00000000000E+00  0.00000000000E+00  0.16755022749E+04  0.16755022749E+04  0.00000000000E+00 0.  1.
         21   -1    0    0  502  503  0.00000000000E+00 -0.00000000000E+00 -0.17217721431E+03  0.17217721431E+03  0.00000000000E+00 0.  1.
         25    2    1    2    0    0  0.29681082389E+02 -0.22570089395E+02 -0.14723394458E+03  0.19669935453E+03  0.12498970377E+03 0.  0.
          5    1    3    3  501    0 -0.22914534739E+02  0.21311582092E+01  0.12876331773E+02  0.26370962393E+02  0.10000000000E+00 0.  1.
         -5    1    3    3    0  501  0.52595617128E+02 -0.24701247605E+02 -0.16011027635E+03  0.17032839214E+03  0.10000000000E+00 0.  1.
          2    1    1    2  502    0 -0.29681082389E+02  0.22570089395E+02  0.16505590052E+04  0.16509801347E+04  0.00000000000E+00 0.  1.
<mgrwt>
<rscale>  1 0.13043313E+03</rscale>
<asrwt>0</asrwt>
<pdfrwt beam="1">  1       21 0.26488803E-01 0.13043313E+03</pdfrwt>
<pdfrwt beam="2">  1        2 0.25776957E+00 0.13043313E+03</pdfrwt>
<totfact> 0.20090267E+03</totfact>
</mgrwt>
</event>
<event>
 6    2  0.1674964E-002  0.1272901E+03  0.7546771E-02  0.1231533E+00
          1   -1    0    0  503    0 -0.00000000000E+00  0.00000000000E+00  0.45065495093E+03  0.45065495093E+03  0.00000000000E+00 0. -1.
         21   -1    0    0  502  503  0.00000000000E+00 -0.00000000000E+00 -0.90184655614E+02  0.90184655614E+02  0.00000000000E+00 0. -1.
         25    2    1    2    0    0  0.23334500874E+02  0.57354659407E+01 -0.44735200636E+02  0.13492226465E+03  0.12500153928E+03 0.  0.
          5    1    3    3  501    0  0.42365085603E+02 -0.47629345590E+02 -0.16873721684E+01  0.63766858668E+02  0.10000000000E+00 0.  1.
         -5    1    3    3    0  501 -0.19030584729E+02  0.53364811531E+02 -0.43047828468E+02  0.71155405983E+02  0.10000000000E+00 0.  1.
          1    1    1    2  502    0 -0.23334500874E+02 -0.57354659407E+01  0.40520549596E+03  0.40591734190E+03  0.00000000000E+00 0. -1.
<mgrwt>
<rscale>  1 0.12729014E+03</rscale>
<asrwt>0</asrwt>
<pdfrwt beam="1">  1       21 0.13874563E-01 0.12729014E+03</pdfrwt>
<pdfrwt beam="2">  1        1 0.69331529E-01 0.12729014E+03</pdfrwt>
<totfact> 0.25956048E+04</totfact>
</mgrwt>
</event>
<event>
 6    2  0.1674964E-002  0.1265542E+03  0.7546771E-02  0.1232660E+00
          2   -1    0    0  503    0 -0.00000000000E+00  0.00000000000E+00  0.44251459880E+03  0.44251459880E+03  0.00000000000E+00 0.  1.
         21   -1    0    0  502  503  0.00000000000E+00 -0.00000000000E+00 -0.23895088219E+02  0.23895088219E+02  0.00000000000E+00 0.  1.
         25    2    1    2    0    0 -0.18899875209E+02  0.60130802885E+01  0.14660197049E+03  0.19367005929E+03  0.12499036641E+03 0.  0.
          5    1    3    3  501    0  0.49460626431E+02 -0.73407508665E+01  0.93693080770E+02  0.10620095844E+03  0.10000000000E+00 0. -1.
         -5    1    3    3    0  501 -0.68360501641E+02  0.13353831155E+02  0.52908889717E+02  0.87469100842E+02  0.10000000000E+00 0. -1.
          2    1    1    2  502    0  0.18899875209E+02 -0.60130802885E+01  0.27201754009E+03  0.27273962773E+03  0.00000000000E+00 0.  1.
<mgrwt>
<rscale>  1 0.12655415E+03</rscale>
<asrwt>0</asrwt>
<pdfrwt beam="1">  1       21 0.36761677E-02 0.12655415E+03</pdfrwt>
<pdfrwt beam="2">  1        2 0.68079163E-01 0.12655415E+03</pdfrwt>
<totfact> 0.39367332E+05</totfact>
</mgrwt>
</event>
<event>
 6    2  0.1674964E-002  0.1262673E+03  0.7546771E-02  0.1233102E+00
         21   -1    0    0  502  503  0.00000000000E+00  0.00000000000E+00  0.22271132598E+02  0.22271132598E+02  0.00000000000E+00 0.  1.
          2   -1    0    0  503    0 -0.00000000000E+00 -0.00000000000E+00 -0.25875709463E+03  0.25875709463E+03  0.00000000000E+00 0. -1.
         25    2    1    2    0    0  0.17036943472E+02 -0.52455922548E+01 -0.16740987592E+03  0.20968904197E+03  0.12500261631E+03 0.  0.
          5    1    3    3  501    0  0.13705341028E+02 -0.64647051861E+02 -0.77130579690E+02  0.10156876493E+03  0.10000000000E+00 0. -1.
         -5    1    3    3    0  501  0.33316024440E+01  0.59401459606E+02 -0.90279296234E+02  0.10812027704E+03  0.10000000000E+00 0. -1.
          2    1    1    2  502    0 -0.17036943472E+02  0.52455922548E+01 -0.69076086104E+02  0.71339185252E+02  0.00000000000E+00 0. -1.
<mgrwt>
<rscale>  1 0.12626729E+03</rscale>
<asrwt>0</asrwt>
<pdfrwt beam="1">  1       21 0.34263282E-02 0.12626729E+03</pdfrwt>
<pdfrwt beam="2">  1        2 0.39808782E-01 0.12626729E+03</pdfrwt>
<totfact> 0.78142823E+05</totfact>
</mgrwt>
</event>
<event>
 6    2  0.1674964E-002  0.1282835E+03  0.7546771E-02  0.1230025E+00
          1   -1    0    0  503    0 -0.00000000000E+00  0.00000000000E+00  0.21777241596E+04  0.21777241596E+04  0.00000000000E+00 0.  1.
         21   -1    0    0  502  503  0.00000000000E+00 -0.00000000000E+00 -0.71054152687E+01  0.71054152687E+01  0.00000000000E+00 0.  1.
         25    2    1    2    0    0 -0.13477667871E+02  0.25496653661E+02  0.58291512307E+03  0.59686404758E+03  0.12499969486E+03 0.  0.
          5    1    3    3  501    0 -0.63550024807E+02  0.52050400730E+01  0.42963535643E+03  0.43434116497E+03  0.10000000000E+00 0.  1.
         -5    1    3    3    0  501  0.50072356935E+02  0.20291613588E+02  0.15327976664E+03  0.16252288262E+03  0.10000000000E+00 0.  1.
          1    1    1    2  502    0  0.13477667871E+02 -0.25496653661E+02  0.15877036212E+04  0.15879655273E+04  0.00000000000E+00 0.  1.
<mgrwt>
<rscale>  1 0.12828348E+03</rscale>
<asrwt>0</asrwt>
<pdfrwt beam="1">  1       21 0.10931425E-02 0.12828348E+03</pdfrwt>
<pdfrwt beam="2">  1        1 0.33503395E+00 0.12828348E+03</pdfrwt>
<totfact> 0.97344810E+04</totfact>
</mgrwt>
</event>
<event>
 6    2  0.1674964E-002  0.1261037E+03  0.7546771E-02  0.1233354E+00
         21   -1    0    0  502  503  0.00000000000E+00  0.00000000000E+00  0.10095171056E+04  0.10095171056E+04  0.00000000000E+00 0. -1.
          1   -1    0    0  503    0 -0.00000000000E+00 -0.00000000000E+00 -0.46043517669E+02  0.46043517669E+02  0.00000000000E+00 0. -1.
         25    2    1    2    0    0 -0.12727985103E+02  0.10750171884E+02  0.10039243076E+04  0.10118132974E+04  0.12499826209E+03 0.  0.
          5    1    3    3  501    0 -0.33165379963E+02  0.58236037938E+01  0.97734469141E+03  0.97792459454E+03  0.10000000000E+00 0. -1.
         -5    1    3    3    0  501  0.20437394859E+02  0.49265680906E+01  0.26579616193E+02  0.33888702819E+02  0.10000000000E+00 0. -1.
          1    1    1    2  502    0  0.12727985103E+02 -0.10750171884E+02 -0.40450719681E+02  0.43747325896E+02  0.00000000000E+00 0. -1.
<mgrwt>
<rscale>  1 0.12610366E+03</rscale>
<asrwt>0</asrwt>
<pdfrwt beam="1">  1       21 0.15531031E+00 0.12610366E+03</pdfrwt>
<pdfrwt beam="2">  1        1 0.70836188E-02 0.12610366E+03</pdfrwt>
<totfact> 0.30523414E+03</totfact>
</mgrwt>
</event>
<event>
 6    2  0.1674964E-002  0.1259145E+03  0.7546771E-02  0.1233647E+00
         21   -1    0    0  502  503  0.00000000000E+00  0.00000000000E+00  0.89480614382E+02  0.89480614382E+02  0.00000000000E+00 0. -1.
          2   -1    0    0  503    0 -0.00000000000E+00 -0.00000000000E+00 -0.53562410856E+03  0.53562410856E+03  0.00000000000E+00 0. -1.
         25    2    1    2    0    0  0.13649161359E+02 -0.66076968716E+01  0.45009810658E+02  0.13371737052E+03  0.12499796343E+03 0.  0.
          5    1    3    3  501    0 -0.29392706423E+02 -0.76131018807E+01  0.75223370130E+02  0.81120009399E+02  0.10000000000E+00 0. -1.
         -5    1    3    3    0  501  0.43041867782E+02  0.10054050091E+01 -0.30213559472E+02  0.52597361126E+02  0.10000000000E+00 0. -1.
          2    1    1    2  502    0 -0.13649161359E+02  0.66076968716E+01 -0.49115330484E+03  0.49138735242E+03  0.00000000000E+00 0. -1.
<mgrwt>
<rscale>  1 0.12591446E+03</rscale>
<asrwt>0</asrwt>
<pdfrwt beam="1">  1       21 0.13766248E-01 0.12591446E+03</pdfrwt>
<pdfrwt beam="2">  1        2 0.82403709E-01 0.12591446E+03</pdfrwt>
<totfact> 0.33218268E+04</totfact>
</mgrwt>
</event>
<event>
 6    2  0.1674964E-002  0.1313352E+03  0.7546771E-02  0.1225488E+00
         21   -1    0    0  502  503  0.00000000000E+00  0.00000000000E+00  0.17908969453E+02  0.17908969453E+02  0.00000000000E+00 0.  1.
          2   -1    0    0  503    0 -0.00000000000E+00 -0.00000000000E+00 -0.86966355695E+03  0.86966355695E+03  0.00000000000E+00 0.  1.
         25    2    1    2    0    0 -0.34056080568E+02  0.21563485037E+02 -0.23267993842E+03  0.26718698367E+03  0.12499651989E+03 0.  0.
          5    1    3    3  501    0  0.21939423829E+02  0.30674471993E+02 -0.12370214643E+02  0.39689970525E+02  0.10000000000E+00 0. -1.
         -5    1    3    3    0  501 -0.55995504397E+02 -0.91109869559E+01 -0.22030972378E+03  0.22749701314E+03  0.10000000000E+00 0. -1.
          2    1    1    2  502    0  0.34056080568E+02 -0.21563485037E+02 -0.61907464907E+03  0.62038554273E+03  0.00000000000E+00 0.  1.
<mgrwt>
<rscale>  1 0.13133518E+03</rscale>
<asrwt>0</asrwt>
<pdfrwt beam="1">  1       21 0.27552262E-02 0.13133518E+03</pdfrwt>
<pdfrwt beam="2">  1        2 0.13379438E+00 0.13133518E+03</pdfrwt>
<totfact> 0.29004433E+05</totfact>
</mgrwt>
</event>
<event>
 6    2  0.1674964E-002  0.1996076E+03  0.7546771E-02  0.1150071E+00
         21   -1    0    0  502  503  0.00000000000E+00  0.00000000000E+00  0.48445725115E+02  0.48445725115E+02  0.00000000000E+00 0. -1.
          2   -1    0    0  503    0 -0.00000000000E+00 -0.00000000000E+00 -0.15166445654E+04  0.15166445654E+04  0.00000000000E+00 0. -1.
         25    2    1    2    0    0 -0.14938207443E+03  0.43615549313E+02 -0.18393355530E+03  0.27143089078E+03  0.12500342156E+03 0.  0.
          5    1    3    3  501    0 -0.70535314711E+02 -0.12584002342E+02 -0.99738735656E+01  0.72340002006E+02  0.10000000000E+00 0.  1.
         -5    1    3    3    0  501 -0.78846759717E+02  0.56199551655E+02 -0.17395968173E+03  0.19909088877E+03  0.10000000000E+00 0.  1.
          2    1    1    2  502    0  0.14938207443E+03 -0.43615549313E+02 -0.12842652850E+04  0.12936593998E+04  0.00000000000E+00 0. -1.
<mgrwt>
<rscale>  1 0.19960755E+03</rscale>
<asrwt>0</asrwt>
<pdfrwt beam="1">  1       21 0.74531867E-02 0.19960755E+03</pdfrwt>
<pdfrwt beam="2">  1        2 0.23332999E+00 0.19960755E+03</pdfrwt>
<totfact> 0.23294627E+04</totfact>
</mgrwt>
</event>
<event>
 6    2  0.1674964E-002  0.1261640E+03  0.7546771E-02  0.1233261E+00
         21   -1    0    0  502  503  0.00000000000E+00  0.00000000000E+00  0.27804053182E+02  0.27804053182E+02  0.00000000000E+00 0. -1.
          3   -1    0    0  503    0 -0.00000000000E+00 -0.00000000000E+00 -0.58070656188E+03  0.58070656188E+03  0.00000000000E+00 0. -1.
         25    2    1    2    0    0 -0.14614106632E+02 -0.89150768788E+01 -0.11635331521E+03  0.17162590597E+03  0.12499722769E+03 0.  0.
          5    1    3    3  501    0  0.31426288639E+02 -0.51336938275E+02 -0.37404441447E+02  0.70867447316E+02  0.10000000000E+00 0.  1.
         -5    1    3    3    0  501 -0.46040395271E+02  0.42421861396E+02 -0.78948873767E+02  0.10075845865E+03  0.10000000000E+00 0.  1.
          3    1    1    2  502    0  0.14614106632E+02  0.89150768788E+01 -0.43654919349E+03  0.43688470910E+03  0.00000000000E+00 0. -1.
<mgrwt>
<rscale>  1 0.12616401E+03</rscale>
<asrwt>0</asrwt>
<pdfrwt beam="1">  1       21 0.42775469E-02 0.12616401E+03</pdfrwt>
<pdfrwt beam="2">  1        3 0.89339466E-01 0.12616401E+03</pdfrwt>
<totfact> 0.19636141E+04</totfact>
</mgrwt>
</event>
<event>
 6    2  0.1674964E-002  0.1267078E+03  0.7546771E-02  0.1232424E+00
          4   -1    0    0  503    0 -0.00000000000E+00  0.00000000000E+00  0.33232906569E+03  0.33232906569E+03  0.00000000000E+00 0. -1.
         21   -1    0    0  502  503  0.00000000000E+00 -0.00000000000E+00 -0.16538422295E+02  0.16538422295E+02  0.00000000000E+00 0. -1.
         25    2    1    2    0    0  0.16128459387E+02 -0.13039225576E+02  0.25726107853E+03  0.28677192800E+03  0.12499891023E+03 0.  0.
          5    1    3    3  501    0  0.65806282341E+02 -0.13455288250E+02  0.19992763696E+03  0.21090894148E+03  0.10000000000E+00 0.  1.
         -5    1    3    3    0  501 -0.49677822954E+02  0.41606267406E+00  0.57333441566E+02  0.75862986518E+02  0.10000000000E+00 0.  1.
          4    1    1    2  502    0 -0.16128459387E+02  0.13039225576E+02  0.58529564867E+02  0.62095559981E+02  0.00000000000E+00 0. -1.
<mgrwt>
<rscale>  1 0.12670784E+03</rscale>
<asrwt>0</asrwt>
<pdfrwt beam="1">  1       21 0.25443729E-02 0.12670784E+03</pdfrwt>
<pdfrwt beam="2">  1        4 0.51127544E-01 0.12670784E+03</pdfrwt>
<totfact> 0.12208227E+05</totfact>
</mgrwt>
</event>
<event>
 6    2  0.1674964E-002  0.1791637E+03  0.7546771E-02  0.1168615E+00
          4   -1    0    0  503    0 -0.00000000000E+00  0.00000000000E+00  0.24869984318E+04  0.24869984318E+04  0.00000000000E+00 0.  1.
         21   -1    0    0  502  503  0.00000000000E+00 -0.00000000000E+00 -0.14345188754E+02  0.14345188754E+02  0.00000000000E+00 0.  1.
         25    2    1    2    0    0 -0.12142674996E+03 -0.41674671892E+02  0.65195610748E+03  0.67612601891E+03  0.12497357115E+03 0.  0.
          5    1    3    3  501    0  0.61592597776E+01 -0.32879009651E+02  0.29616551451E+03  0.29804863318E+03  0.10000000000E+00 0.  1.
         -5    1    3    3    0  501 -0.12758600974E+03 -0.87956622412E+01  0.35579059297E+03  0.37807738573E+03  0.10000000000E+00 0.  1.
          4    1    1    2  502    0  0.12142674996E+03  0.41674671892E+02  0.18206971356E+04  0.18252176017E+04  0.00000000000E+00 0.  1.
<mgrwt>
<rscale>  1 0.17916369E+03</rscale>
<asrwt>0</asrwt>
<pdfrwt beam="1">  1       21 0.22069541E-02 0.17916369E+03</pdfrwt>
<pdfrwt beam="2">  1        4 0.38261480E+00 0.17916369E+03</pdfrwt>
<totfact> 0.51200609E+02</totfact>
</mgrwt>
</event>
<event>
 6    2  0.1674964E-002  0.1930961E+03  0.7546771E-02  0.1155698E+00
         21   -1    0    0  502  503  0.00000000000E+00  0.00000000000E+00  0.37484296582E+02  0.37484296582E+02  0.00000000000E+00 0. -1.
          2   -1    0    0  503    0 -0.00000000000E+00 -0.00000000000E+00 -0.10453441667E+04  0.10453441667E+04  0.00000000000E+00 0. -1.
         25    2    1    2    0    0 -0.12372643374E+03 -0.79701516236E+02 -0.27929143519E+03  0.33954350684E+03  0.12500210067E+03 0.  0.
          5    1    3    3  501    0 -0.71727263560E+01 -0.48312006691E+02 -0.18600852550E+02  0.52263751391E+02  0.10000000000E+00 0.  1.
         -5    1    3    3    0  501 -0.11655370738E+03 -0.31389509546E+02 -0.26069058264E+03  0.28727975545E+03  0.10000000000E+00 0.  1.
          2    1    1    2  502    0  0.12372643374E+03  0.79701516236E+02 -0.72856843490E+03  0.74328495642E+03  0.00000000000E+00 0. -1.
<mgrwt>
<rscale>  1 0.19309606E+03</rscale>
<asrwt>0</asrwt>
<pdfrwt beam="1">  1       21 0.57668153E-02 0.19309606E+03</pdfrwt>
<pdfrwt beam="2">  1        2 0.16082217E+00 0.19309606E+03</pdfrwt>
<totfact> 0.66174835E+04</totfact>
</mgrwt>
</event>
<event>
 6    2  0.1674964E-002  0.1288363E+03  0.7546771E-02  0.1229193E+00
         21   -1    0    0  502  503  0.00000000000E+00  0.00000000000E+00  0.42226920893E+02  0.42226920893E+02  0.00000000000E+00 0.  1.
          1   -1    0    0  503    0 -0.00000000000E+00 -0.00000000000E+00 -0.11561767682E+04  0.11561767682E+04  0.00000000000E+00 0.  1.
         25    2    1    2    0    0 -0.14273366655E+02 -0.27765413286E+02 -0.56814160653E+02  0.14080711801E+03  0.12499659380E+03 0.  0.
          5    1    3    3  501    0 -0.48880693209E+02 -0.56564896500E+02 -0.59729310781E+02  0.95689655925E+02  0.10000000000E+00 0.  1.
         -5    1    3    3    0  501  0.34607326554E+02  0.28799483214E+02  0.29151501279E+01  0.45117462084E+02  0.10000000000E+00 0.  1.
          1    1    1    2  502    0  0.14273366655E+02  0.27765413286E+02 -0.10571356867E+04  0.10575965711E+04  0.00000000000E+00 0.  1.
<mgrwt>
<rscale>  1 0.12883631E+03</rscale>
<asrwt>0</asrwt>
<pdfrwt beam="1">  1       21 0.64964494E-02 0.12883631E+03</pdfrwt>
<pdfrwt beam="2">  1        1 0.17787335E+00 0.12883631E+03</pdfrwt>
<totfact> 0.24166985E+04</totfact>
</mgrwt>
</event>
<event>
 6    2  0.1674964E-002  0.1764030E+03  0.7546771E-02  0.1171330E+00
          2   -1    0    0  503    0 -0.00000000000E+00  0.00000000000E+00  0.42240153676E+03  0.42240153676E+03  0.00000000000E+00 0.  1.
         21   -1    0    0  502  503  0.00000000000E+00 -0.00000000000E+00 -0.62893792690E+02  0.62893792690E+02  0.00000000000E+00 0.  1.
         25    2    1    2    0    0 -0.74421888982E+02 -0.99809345082E+02  0.11402836819E+03  0.21004880920E+03  0.12497003869E+03 0.  0.
          5    1    3    3  501    0 -0.89892260498E+02 -0.70297912657E+02  0.27580303075E+02  0.11740144011E+03  0.10000000000E+00 0. -1.
         -5    1    3    3    0  501  0.15470371516E+02 -0.29511432425E+02  0.86448065113E+02  0.92647369096E+02  0.10000000000E+00 0. -1.
          2    1    1    2  502    0  0.74421888982E+02  0.99809345082E+02  0.24547937588E+03  0.27524652025E+03  0.00000000000E+00 0.  1.
<mgrwt>
<rscale>  1 0.17640304E+03</rscale>
<asrwt>0</asrwt>
<pdfrwt beam="1">  1       21 0.96759684E-02 0.17640304E+03</pdfrwt>
<pdfrwt beam="2">  1        2 0.64984850E-01 0.17640304E+03</pdfrwt>
<totfact> 0.80628299E+04</totfact>
</mgrwt>
</event>
<event>
 6    2  0.1674964E-002  0.1424481E+03  0.7546771E-02  0.1210072E+00
          2   -1    0    0  503    0 -0.00000000000E+00  0.00000000000E+00  0.58630216898E+02  0.58630216898E+02  0.00000000000E+00 0. -1.
         21   -1    0    0  502  503  0.00000000000E+00 -0.00000000000E+00 -0.73219135838E+03  0.73219135838E+03  0.00000000000E+00 0. -1.
         25    2    1    2    0    0  0.68105228241E+02 -0.54887007389E+01 -0.70237070097E+03  0.71667011766E+03  0.12499203182E+03 0.  0.
          5    1    3    3  501    0  0.89659295991E+02 -0.11481371264E+02 -0.29155475380E+03  0.30524546796E+03  0.10000000000E+00 0.  1.
         -5    1    3    3    0  501 -0.21554067750E+02  0.59926705246E+01 -0.41081594716E+03  0.41142464970E+03  0.10000000000E+00 0.  1.
          2    1    1    2  502    0 -0.68105228241E+02  0.54887007389E+01  0.28809559485E+02  0.74151457621E+02  0.00000000000E+00 0. -1.
<mgrwt>
<rscale>  1 0.14244808E+03</rscale>
<asrwt>0</asrwt>
<pdfrwt beam="1">  1       21 0.11264483E+00 0.14244808E+03</pdfrwt>
<pdfrwt beam="2">  1        2 0.90200332E-02 0.14244808E+03</pdfrwt>
<totfact> 0.55198413E+03</totfact>
</mgrwt>
</event>
<event>
 6    2  0.1674964E-002  0.1487181E+03  0.7546771E-02  0.1202057E+00
          2   -1    0    0  503    0 -0.00000000000E+00  0.00000000000E+00  0.30222841846E+02  0.30222841846E+02  0.00000000000E+00 0.  1.
         21   -1    0    0  502  503  0.00000000000E+00 -0.00000000000E+00 -0.76973083289E+03  0.76973083289E+03  0.00000000000E+00 0. -1.
         25    2    1    2    0    0 -0.70492092177E+02  0.39041766193E+02 -0.68896398896E+03  0.70483222230E+03  0.12499475567E+03 0.  0.
          5    1    3    3  501    0  0.18306561356E+02 -0.28659532867E+02 -0.10775828459E+03  0.11299715443E+03  0.10000000000E+00 0.  1.
         -5    1    3    3    0  501 -0.88798653533E+02  0.67701299060E+02 -0.58120570437E+03  0.59183506787E+03  0.10000000000E+00 0.  1.
          2    1    1    2  502    0  0.70492092177E+02 -0.39041766193E+02 -0.50544002089E+02  0.95121452439E+02  0.00000000000E+00 0.  1.
<mgrwt>
<rscale>  1 0.14871813E+03</rscale>
<asrwt>0</asrwt>
<pdfrwt beam="1">  1       21 0.11842011E+00 0.14871813E+03</pdfrwt>
<pdfrwt beam="2">  1        2 0.46496687E-02 0.14871813E+03</pdfrwt>
<totfact> 0.11412773E+04</totfact>
</mgrwt>
</event>
<event>
 6    2  0.1674964E-002  0.1355966E+03  0.7546771E-02  0.1219380E+00
         21   -1    0    0  502  503  0.00000000000E+00  0.00000000000E+00  0.15809272948E+03  0.15809272948E+03  0.00000000000E+00 0.  1.
          4   -1    0    0  503    0 -0.00000000000E+00 -0.00000000000E+00 -0.21830962312E+03  0.21830962312E+03  0.00000000000E+00 0. -1.
         25    2    1    2    0    0 -0.13004734376E+02  0.50909332543E+02  0.12466734685E+03  0.18419656278E+03  0.12500217244E+03 0.  0.
          5    1    3    3  501    0 -0.33181900257E+01 -0.47637770620E+01  0.12748462527E+03  0.12761678431E+03  0.10000000000E+00 0. -1.
         -5    1    3    3    0  501 -0.96865443500E+01  0.55673109606E+02 -0.28172784180E+01  0.56579778475E+02  0.10000000000E+00 0. -1.
          4    1    1    2  502    0  0.13004734376E+02 -0.50909332543E+02 -0.18488424049E+03  0.19220578982E+03  0.00000000000E+00 0. -1.
<mgrwt>
<rscale>  1 0.13559656E+03</rscale>
<asrwt>0</asrwt>
<pdfrwt beam="1">  1       21 0.24321958E-01 0.13559656E+03</pdfrwt>
<pdfrwt beam="2">  1        4 0.33586096E-01 0.13559656E+03</pdfrwt>
<totfact> 0.56309714E+03</totfact>
</mgrwt>
</event>
<event>
 6    2  0.1674964E-002  0.1293697E+03  0.7546771E-02  0.1228394E+00
          3   -1    0    0  503    0 -0.00000000000E+00  0.00000000000E+00  0.10555887079E+04  0.10555887079E+04  0.00000000000E+00 0.  1.
         21   -1    0    0  502  503  0.00000000000E+00 -0.00000000000E+00 -0.84587263867E+01  0.84587263867E+01  0.00000000000E+00 0.  1.
         25    2    1    2    0    0 -0.29163371162E+02 -0.16233076720E+02  0.51961486062E+03  0.53547745995E+03  0.12498996657E+03 0.  0.
          5    1    3    3  501    0  0.17741566132E+00 -0.68925001393E+02  0.26493199552E+03  0.27375109049E+03  0.10000000000E+00 0.  1.
         -5    1    3    3    0  501 -0.29340786823E+02  0.52691924673E+02  0.25468286510E+03  0.26172636946E+03  0.10000000000E+00 0.  1.
          3    1    1    2  502    0  0.29163371162E+02  0.16233076720E+02  0.52751512090E+03  0.52856997434E+03  0.00000000000E+00 0.  1.
<mgrwt>
<rscale>  1 0.12936965E+03</rscale>
<asrwt>0</asrwt>
<pdfrwt beam="1">  1       21 0.13013434E-02 0.12936965E+03</pdfrwt>
<pdfrwt beam="2">  1        3 0.16239816E+00 0.12936965E+03</pdfrwt>
<totfact> 0.33210086E+04</totfact>
</mgrwt>
</event>
<event>
 6    2  0.1674964E-002  0.1361128E+03  0.7546771E-02  0.1218657E+00
         21   -1    0    0  502  503  0.00000000000E+00  0.00000000000E+00  0.47698127754E+02  0.47698127754E+02  0.00000000000E+00 0. -1.
          2   -1    0    0  503    0 -0.00000000000E+00 -0.00000000000E+00 -0.42548375566E+03  0.42548375566E+03  0.00000000000E+00 0. -1.
         25    2    1    2    0    0  0.48306843026E+02 -0.23863256783E+02 -0.56439875878E+02  0.14735048767E+03  0.12499480197E+03 0.  0.
          5    1    3    3  501    0 -0.35658275156E+02 -0.35313919943E+02 -0.30499982181E+02  0.58726863035E+02  0.10000000000E+00 0.  1.
         -5    1    3    3    0  501  0.83965118182E+02  0.11450663161E+02 -0.25939893697E+02  0.88623624633E+02  0.10000000000E+00 0.  1.
          2    1    1    2  502    0 -0.48306843026E+02  0.23863256783E+02 -0.32134575202E+03  0.32583139574E+03  0.00000000000E+00 0. -1.
<mgrwt>
<rscale>  1 0.13611285E+03</rscale>
<asrwt>0</asrwt>
<pdfrwt beam="1">  1       21 0.73381736E-02 0.13611285E+03</pdfrwt>
<pdfrwt beam="2">  1        2 0.65459039E-01 0.13611285E+03</pdfrwt>
<totfact> 0.12863997E+05</totfact>
</mgrwt>
</event>
<event>
 6    2  0.1674964E-002  0.1277800E+03  0.7546771E-02  0.1230787E+00
          3   -1    0    0  503    0 -0.00000000000E+00  0.00000000000E+00  0.39129930857E+02  0.39129930857E+02  0.00000000000E+00 0. -1.
         21   -1    0    0  502  503  0.00000000000E+00 -0.00000000000E+00 -0.51838309856E+03  0.51838309856E+03  0.00000000000E+00 0.  1.
         25    2    1    2    0    0  0.26478665671E+02 -0.11604669951E+01 -0.50478788815E+03  0.52070965501E+03  0.12500106550E+03 0.  0.
          5    1    3    3  501    0  0.47380718197E+02 -0.49456140534E+02 -0.19974898639E+03  0.21116465106E+03  0.10000000000E+00 0.  1.
         -5    1    3    3    0  501 -0.20902052526E+02  0.48295673539E+02 -0.30503890177E+03  0.30954500396E+03  0.10000000000E+00 0.  1.
          3    1    1    2  502    0 -0.26478665671E+02  0.11604669951E+01  0.25534720449E+02  0.36803374407E+02  0.00000000000E+00 0. -1.
<mgrwt>
<rscale>  1 0.12778002E+03</rscale>
<asrwt>0</asrwt>
<pdfrwt beam="1">  1       21 0.79751243E-01 0.12778002E+03</pdfrwt>
<pdfrwt beam="2">  1        3 0.60199896E-02 0.12778002E+03</pdfrwt>
<totfact> 0.11366143E+04</totfact>
</mgrwt>
</event>
<event>
 6    2  0.1674964E-002  0.2244804E+03  0.7546771E-02  0.1130586E+00
          1   -1    0    0  503    0 -0.00000000000E+00  0.00000000000E+00  0.57830324706E+02  0.57830324706E+02  0.00000000000E+00 0. -1.
         21   -1    0    0  502  503  0.00000000000E+00 -0.00000000000E+00 -0.98723032272E+03  0.98723032272E+03  0.00000000000E+00 0. -1.
         25    2    1    2    0    0  0.13936169976E+03  0.12386918059E+03 -0.76236995875E+03  0.79473228053E+03  0.12500474568E+03 0.  0.
          5    1    3    3  501    0  0.13325271150E+02 -0.22218784087E+02 -0.45582357721E+02  0.52430893116E+02  0.10000000000E+00 0.  1.
         -5    1    3    3    0  501  0.12603642861E+03  0.14608796468E+03 -0.71678760103E+03  0.74230138741E+03  0.10000000000E+00 0.  1.
          1    1    1    2  502    0 -0.13936169976E+03 -0.12386918059E+03 -0.16703003926E+03  0.25032836690E+03  0.00000000000E+00 0. -1.
<mgrwt>
<rscale>  1 0.22448039E+03</rscale>
<asrwt>0</asrwt>
<pdfrwt beam="1">  1       21 0.15188158E+00 0.22448039E+03</pdfrwt>
<pdfrwt beam="2">  1        1 0.88969737E-02 0.22448039E+03</pdfrwt>
<totfact> 0.22774689E+03</totfact>
</mgrwt>
</event>
<event>
 6    2  0.1674964E-002  0.1299331E+03  0.7546771E-02  0.1227555E+00
          3   -1    0    0  503    0 -0.00000000000E+00  0.00000000000E+00  0.15404757476E+03  0.15404757476E+03  0.00000000000E+00 0.  1.
         21   -1    0    0  502  503  0.00000000000E+00 -0.00000000000E+00 -0.13741144017E+03  0.13741144017E+03  0.00000000000E+00 0.  1.
         25    2    1    2    0    0  0.97152103106E+01 -0.34105236304E+02 -0.10355136653E+03  0.16614904773E+03  0.12500027238E+03 0.  0.
          5    1    3    3  501    0 -0.42295453704E+02 -0.48295590821E+02 -0.90017191702E+02  0.11056434461E+03  0.10000000000E+00 0. -1.
         -5    1    3    3    0  501  0.52010664015E+02  0.14190354517E+02 -0.13534174825E+02  0.55584703118E+02  0.10000000000E+00 0. -1.
          3    1    1    2  502    0 -0.97152103106E+01  0.34105236304E+02  0.12018750112E+03  0.12530996721E+03  0.00000000000E+00 0.  1.
<mgrwt>
<rscale>  1 0.12993314E+03</rscale>
<asrwt>0</asrwt>
<pdfrwt beam="1">  1       21 0.21140222E-01 0.12993314E+03</pdfrwt>
<pdfrwt beam="2">  1        3 0.23699627E-01 0.12993314E+03</pdfrwt>
<totfact> 0.16594079E+04</totfact>
</mgrwt>
</event>
<event>
 6    2  0.1674964E-002  0.1306553E+03  0.7546771E-02  0.1226487E+00
          2   -1    0    0  503    0 -0.00000000000E+00  0.00000000000E+00  0.25005536160E+03  0.25005536160E+03  0.00000000000E+00 0. -1.
         21   -1    0    0  502  503  0.00000000000E+00 -0.00000000000E+00 -0.44224500021E+02  0.44224500021E+02  0.00000000000E+00 0. -1.
         25    2    1    2    0    0  0.37832813501E+02 -0.39070832781E+01  0.21816437860E+03  0.25429608092E+03  0.12499685439E+03 0.  0.
          5    1    3    3  501    0 -0.19555130361E+02 -0.40506383829E+00 -0.78554892789E+01  0.21078090805E+02  0.10000000000E+00 0. -1.
         -5    1    3    3    0  501  0.57387943863E+02 -0.35020194399E+01  0.22601986788E+03  0.23321799012E+03  0.10000000000E+00 0. -1.
          2    1    1    2  502    0 -0.37832813501E+02  0.39070832781E+01 -0.12333517015E+02  0.39983780701E+02  0.00000000000E+00 0. -1.
<mgrwt>
<rscale>  1 0.13065527E+03</rscale>
<asrwt>0</asrwt>
<pdfrwt beam="1">  1       21 0.68037694E-02 0.13065527E+03</pdfrwt>
<pdfrwt beam="2">  1        2 0.38470055E-01 0.13065527E+03</pdfrwt>
<totfact> 0.25711039E+05</totfact>
</mgrwt>
</event>
<event>
 6    2  0.1674964E-002  0.1283527E+03  0.7546771E-02  0.1229921E+00
          4   -1    0    0  503    0 -0.00000000000E+00  0.00000000000E+00  0.47472264176E+03  0.47472264176E+03  0.00000000000E+00 0.  1.
         21   -1    0    0  502  503  0.00000000000E+00 -0.00000000000E+00 -0.30107759132E+02  0.30107759132E+02  0.00000000000E+00 0. -1.
         25    2    1    2    0    0  0.17947664686E+02 -0.22963244575E+02  0.11026377692E+03  0.16921143368E+03  0.12499991807E+03 0.  0.
          5    1    3    3  501    0  0.41226284703E+02  0.39472669907E+02  0.28689969414E+02  0.63881316243E+02  0.10000000000E+00 0.  1.
         -5    1    3    3    0  501 -0.23278620017E+02 -0.62435914481E+02  0.81573807509E+02  0.10533011743E+03  0.10000000000E+00 0.  1.
          4    1    1    2  502    0 -0.17947664686E+02  0.22963244575E+02  0.33435110571E+03  0.33561896722E+03  0.00000000000E+00 0.  1.
<mgrwt>
<rscale>  1 0.12835267E+03</rscale>
<asrwt>0</asrwt>
<pdfrwt beam="1">  1       21 0.46319633E-02 0.12835267E+03</pdfrwt>
<pdfrwt beam="2">  1        4 0.73034247E-01 0.12835267E+03</pdfrwt>
<totfact> 0.21491606E+04</totfact>
</mgrwt>
</event>
<event>
 6    2  0.1674964E-002  0.1262306E+03  0.7546771E-02  0.1233158E+00
         21   -1    0    0  502  503  0.00000000000E+00  0.00000000000E+00  0.42926904154E+02  0.42926904154E+02  0.00000000000E+00 0. -1.
          2   -1    0    0  503    0 -0.00000000000E+00 -0.00000000000E+00 -0.55595409620E+03  0.55595409620E+03  0.00000000000E+00 0. -1.
         25    2    1    2    0    0 -0.50199555972E+01 -0.16860448037E+02 -0.50401336379E+02  0.13592078933E+03  0.12499876640E+03 0.  0.
          5    1    3    3  501    0  0.58146862646E+02  0.64297809042E+01 -0.18015640039E+02  0.61212523262E+02  0.10000000000E+00 0.  1.
         -5    1    3    3    0  501 -0.63166818244E+02 -0.23290228941E+02 -0.32385696340E+02  0.74708266066E+02  0.10000000000E+00 0.  1.
          2    1    1    2  502    0  0.50199555972E+01  0.16860448037E+02 -0.46262585567E+03  0.46296021103E+03  0.00000000000E+00 0. -1.
<mgrwt>
<rscale>  1 0.12623061E+03</rscale>
<asrwt>0</asrwt>
<pdfrwt beam="1">  1       21 0.66041393E-02 0.12623061E+03</pdfrwt>
<pdfrwt beam="2">  1        2 0.85531397E-01 0.12623061E+03</pdfrwt>
<totfact> 0.11473984E+05</totfact>
</mgrwt>
</event>
<event>
 6    2  0.1674964E-002  0.1267460E+03  0.7546771E-02  0.1232366E+00
          2   -1    0    0  503    0 -0.00000000000E+00  0.00000000000E+00  0.33042175045E+03  0.33042175045E+03  0.00000000000E+00 0. -1.
         21   -1    0    0  502  503  0.00000000000E+00 -0.00000000000E+00 -0.26562521964E+02  0.26562521964E+02  0.00000000000E+00 0.  1.
         25    2    1    2    0    0  0.13469487657E+02 -0.16051960941E+02  0.12890262211E+03  0.18077727294E+03  0.12500177550E+03 0.  0.
          5    1    3    3  501    0  0.99981807209E+01  0.39411331599E+02  0.27766944466E+00  0.40660838364E+02  0.10000000000E+00 0. -1.
         -5    1    3    3    0  501  0.34713069360E+01 -0.55463292540E+02  0.12862495266E+03  0.14011643458E+03  0.10000000000E+00 0. -1.
          2    1    1    2  502    0 -0.13469487657E+02  0.16051960941E+02  0.17495660638E+03  0.17620699947E+03  0.00000000000E+00 0. -1.
<mgrwt>
<rscale>  1 0.12674595E+03</rscale>
<asrwt>0</asrwt>
<pdfrwt beam="1">  1       21 0.40865421E-02 0.12674595E+03</pdfrwt>
<pdfrwt beam="2">  1        2 0.50834112E-01 0.12674595E+03</pdfrwt>
<totfact> 0.45086911E+05</totfact>
</mgrwt>
</event>
<event>
 6    2  0.1674964E-002  0.1494522E+03  0.7546771E-02  0.1201148E+00
          2   -1    0    0  503    0 -0.00000000000E+00  0.00000000000E+00  0.99107550320E+03  0.99107550320E+03  0.00000000000E+00 0. -1.
         21   -1    0    0  502  503  0.00000000000E+00 -0.00000000000E+00 -0.18272201564E+02  0.18272201564E+02  0.00000000000E+00 0.  1.
         25    2    1    2    0    0  0.49943759530E+01  0.81784544171E+02  0.34178708644E+03  0.37303400910E+03  0.12498921565E+03 0.  0.
          5    1    3    3  501    0  0.20506129723E+02  0.33677258452E+02  0.31175584043E+03  0.31423935644E+03  0.10000000000E+00 0. -1.
         -5    1    3    3    0  501 -0.15511753770E+02  0.48107285718E+02  0.30031246014E+02  0.58794652660E+02  0.10000000000E+00 0. -1.
          2    1    1    2  502    0 -0.49943759530E+01 -0.81784544171E+02  0.63101621519E+03  0.63631369566E+03  0.00000000000E+00 0. -1.
<mgrwt>
<rscale>  1 0.14945220E+03</rscale>
<asrwt>0</asrwt>
<pdfrwt beam="1">  1       21 0.28111087E-02 0.14945220E+03</pdfrwt>
<pdfrwt beam="2">  1        2 0.15247311E+00 0.14945220E+03</pdfrwt>
<totfact> 0.23696059E+05</totfact>
</mgrwt>
</event>
<event>
 6    2  0.1674964E-002  0.1323873E+03  0.7546771E-02  0.1223956E+00
         21   -1    0    0  502  503  0.00000000000E+00  0.00000000000E+00  0.22574158347E+02  0.22574158347E+02  0.00000000000E+00 0.  1.
          2   -1    0    0  503    0 -0.00000000000E+00 -0.00000000000E+00 -0.46127494824E+03  0.46127494824E+03  0.00000000000E+00 0.  1.
         25    2    1    2    0    0 -0.24667103180E+02 -0.36019291559E+02 -0.41183110283E+03  0.43258668929E+03  0.12498212334E+03 0.  0.
          5    1    3    3  501    0 -0.56529062048E+02 -0.61776044361E+01 -0.36156886452E+03  0.36601332140E+03  0.10000000000E+00 0. -1.
         -5    1    3    3    0  501  0.31861958868E+02 -0.29841687123E+02 -0.50262238310E+02  0.66573367897E+02  0.10000000000E+00 0. -1.
          2    1    1    2  502    0  0.24667103180E+02  0.36019291559E+02 -0.26869687069E+02  0.51262417295E+02  0.00000000000E+00 0.  1.
<mgrwt>
<rscale>  1 0.13238726E+03</rscale>
<asrwt>0</asrwt>
<pdfrwt beam="1">  1       21 0.34729475E-02 0.13238726E+03</pdfrwt>
<pdfrwt beam="2">  1        2 0.70965376E-01 0.13238726E+03</pdfrwt>
<totfact> 0.41467045E+05</totfact>
</mgrwt>
</event>
<event>
 6    2  0.1674964E-002  0.1563935E+03  0.7546771E-02  0.1192830E+00
          3   -1    0    0  503    0 -0.00000000000E+00  0.00000000000E+00  0.35007520666E+03  0.35007520666E+03  0.00000000000E+00 0. -1.
         21   -1    0    0  502  503  0.00000000000E+00 -0.00000000000E+00 -0.75656406461E+02  0.75656406461E+02  0.00000000000E+00 0. -1.
         25    2    1    2    0    0 -0.86678658722E+02  0.36334610451E+02  0.23959054773E+02  0.15821810342E+03  0.12500215258E+03 0.  0.
          5    1    3    3  501    0 -0.10952630085E+02 -0.36013158528E+02  0.36873975572E+02  0.52693526808E+02  0.10000000000E+00 0.  1.
         -5    1    3    3    0  501 -0.75726028637E+02  0.72347768979E+02 -0.12914920799E+02  0.10552457661E+03  0.10000000000E+00 0.  1.
          3    1    1    2  502    0  0.86678658722E+02 -0.36334610451E+02  0.25045974543E+03  0.26751350970E+03  0.00000000000E+00 0. -1.
<mgrwt>
<rscale>  1 0.15639352E+03</rscale>
<asrwt>0</asrwt>
<pdfrwt beam="1">  1       21 0.11639447E-01 0.15639352E+03</pdfrwt>
<pdfrwt beam="2">  1        3 0.53857723E-01 0.15639352E+03</pdfrwt>
<totfact> 0.10420774E+04</totfact>
</mgrwt>
</event>
<event>
 6    2  0.1674964E-002  0.1284282E+03  0.7546771E-02  0.1229807E+00
          1   -1    0    0  503    0 -0.00000000000E+00  0.00000000000E+00  0.15208008378E+04  0.15208008378E+04  0.00000000000E+00 0. -1.
         21   -1    0    0  502  503  0.00000000000E+00 -0.00000000000E+00 -0.29343275370E+02  0.29343275370E+02  0.00000000000E+00 0. -1.
         25    2    1    2    0    0  0.24742775731E+02 -0.15979492437E+02  0.11209547457E+03  0.17046758638E+03  0.12500501374E+03 0.  0.
          5    1    3    3  501    0  0.14993148604E+02 -0.64158103052E+01  0.13918116750E+03  0.14013338116E+03  0.10000000000E+00 0.  1.
         -5    1    3    3    0  501  0.97496271275E+01 -0.95636821319E+01 -0.27085692936E+02  0.30334205228E+02  0.10000000000E+00 0.  1.
          1    1    1    2  502    0 -0.24742775731E+02  0.15979492437E+02  0.13793620878E+04  0.13796765268E+04  0.00000000000E+00 0. -1.
<mgrwt>
<rscale>  1 0.12842820E+03</rscale>
<asrwt>0</asrwt>
<pdfrwt beam="1">  1       21 0.45143512E-02 0.12842820E+03</pdfrwt>
<pdfrwt beam="2">  1        1 0.23396930E+00 0.12842820E+03</pdfrwt>
<totfact> 0.25569687E+04</totfact>
</mgrwt>
</event>
<event>
 6    2  0.1674964E-002  0.1723818E+03  0.7546771E-02  0.1175387E+00
          1   -1    0    0  503    0 -0.00000000000E+00  0.00000000000E+00  0.18403421199E+04  0.18403421199E+04  0.00000000000E+00 0. -1.
         21   -1    0    0  502  503  0.00000000000E+00 -0.00000000000E+00 -0.44027303834E+02  0.44027303834E+02  0.00000000000E+00 0.  1.
         25    2    1    2    0    0 -0.57398534339E+02 -0.10390491579E+03  0.13535235790E+03  0.21917060356E+03  0.12499867762E+03 0.  0.
          5    1    3    3  501    0 -0.12402422408E+02 -0.12059439805E+03  0.76995729973E+02  0.14361469757E+03  0.10000000000E+00 0.  1.
         -5    1    3    3    0  501 -0.44996111932E+02  0.16689482265E+02  0.58356627923E+02  0.75555905989E+02  0.10000000000E+00 0.  1.
          1    1    1    2  502    0  0.57398534339E+02  0.10390491579E+03  0.16609624582E+04  0.16651988202E+04  0.00000000000E+00 0. -1.
<mgrwt>
<rscale>  1 0.17238182E+03</rscale>
<asrwt>0</asrwt>
<pdfrwt beam="1">  1       21 0.67734328E-02 0.17238182E+03</pdfrwt>
<pdfrwt beam="2">  1        1 0.28312950E+00 0.17238182E+03</pdfrwt>
<totfact> 0.78975516E+03</totfact>
</mgrwt>
</event>
<event>
 6    2  0.1674964E-002  0.1274104E+03  0.7546771E-02  0.1231350E+00
         21   -1    0    0  502  503  0.00000000000E+00  0.00000000000E+00  0.54565679578E+02  0.54565679578E+02  0.00000000000E+00 0. -1.
          1   -1    0    0  503    0 -0.00000000000E+00 -0.00000000000E+00 -0.12106596937E+03  0.12106596937E+03  0.00000000000E+00 0. -1.
         25    2    1    2    0    0 -0.95924265127E+01 -0.22713568993E+02 -0.28865300755E+02  0.13063928001E+03  0.12500198011E+03 0.  0.
          5    1    3    3  501    0  0.55013526640E+02  0.62227327617E+01 -0.36213654810E+01  0.55482743302E+02  0.10000000000E+00 0.  1.
         -5    1    3    3    0  501 -0.64605953153E+02 -0.28936301754E+02 -0.25243935274E+02  0.75156536709E+02  0.10000000000E+00 0.  1.
          1    1    1    2  502    0  0.95924265127E+01  0.22713568993E+02 -0.37634989034E+02  0.44992368935E+02  0.00000000000E+00 0. -1.
<mgrwt>
<rscale>  1 0.12741042E+03</rscale>
<asrwt>0</asrwt>
<pdfrwt beam="1">  1       21 0.83947200E-02 0.12741042E+03</pdfrwt>
<pdfrwt beam="2">  1        1 0.18625534E-01 0.12741042E+03</pdfrwt>
<totfact> 0.32391984E+05</totfact>
</mgrwt>
</event>
<event>
 6    2  0.1674964E-002  0.1577202E+03  0.7546771E-02  0.1191295E+00
          1   -1    0    0  503    0 -0.00000000000E+00  0.00000000000E+00  0.21493616401E+04  0.21493616401E+04  0.00000000000E+00 0. -1.
         21   -1    0    0  502  503  0.00000000000E+00 -0.00000000000E+00 -0.75493236388E+01  0.75493236388E+01  0.00000000000E+00 0. -1.
         25    2    1    2    0    0  0.87397469205E+02  0.40192431520E+02  0.14139681074E+04  0.14227373182E+04  0.12498767384E+03 0.  0.
          5    1    3    3  501    0  0.51404439214E+02  0.71832335431E+02  0.51712074080E+03  0.52461049489E+03  0.10000000000E+00 0.  1.
         -5    1    3    3    0  501  0.35993029991E+02 -0.31639903911E+02  0.89684736659E+03  0.89812682327E+03  0.10000000000E+00 0.  1.
          1    1    1    2  502    0 -0.87397469205E+02 -0.40192431520E+02  0.72784420912E+03  0.73417364562E+03  0.00000000000E+00 0. -1.
<mgrwt>
<rscale>  1 0.15772022E+03</rscale>
<asrwt>0</asrwt>
<pdfrwt beam="1">  1       21 0.11614361E-02 0.15772022E+03</pdfrwt>
<pdfrwt beam="2">  1        1 0.33067053E+00 0.15772022E+03</pdfrwt>
<totfact> 0.91929109E+04</totfact>
</mgrwt>
</event>
<event>
 6    2  0.1674964E-002  0.1286915E+03  0.7546771E-02  0.1229410E+00
         21   -1    0    0  502  503  0.00000000000E+00  0.00000000000E+00  0.26553372850E+02  0.26553372850E+02  0.00000000000E+00 0. -1.
          2   -1    0    0  503    0 -0.00000000000E+00 -0.00000000000E+00 -0.45704228716E+03  0.45704228716E+03  0.00000000000E+00 0.  1.
         25    2    1    2    0    0 -0.14509931760E+02 -0.26955784403E+02 -0.13494900160E+03  0.18647448534E+03  0.12499739284E+03 0.  0.
          5    1    3    3  501    0  0.18740064645E+02  0.12681619900E+02  0.15467351389E+02  0.27409167539E+02  0.10000000000E+00 0.  1.
         -5    1    3    3    0  501 -0.33249996405E+02 -0.39637404304E+02 -0.15041635299E+03  0.15906531780E+03  0.10000000000E+00 0.  1.
          2    1    1    2  502    0  0.14509931760E+02  0.26955784403E+02 -0.29553991271E+03  0.29712117467E+03  0.00000000000E+00 0.  1.
<mgrwt>
<rscale>  1 0.12869149E+03</rscale>
<asrwt>0</asrwt>
<pdfrwt beam="1">  1       21 0.40851349E-02 0.12869149E+03</pdfrwt>
<pdfrwt beam="2">  1        2 0.70314187E-01 0.12869149E+03</pdfrwt>
<totfact> 0.31949856E+05</totfact>
</mgrwt>
</event>
<event>
 6    2  0.1674964E-002  0.1315841E+03  0.7546771E-02  0.1225124E+00
          2   -1    0    0  503    0 -0.00000000000E+00  0.00000000000E+00  0.28552993582E+03  0.28552993582E+03  0.00000000000E+00 0. -1.
         21   -1    0    0  502  503  0.00000000000E+00 -0.00000000000E+00 -0.67436477149E+03  0.67436477149E+03  0.00000000000E+00 0.  1.
         25    2    1    2    0    0 -0.13178935648E+02 -0.38943451478E+02 -0.66641749994E+03  0.67928392302E+03  0.12499634830E+03 0.  0.
          5    1    3    3  501    0  0.31543531932E+02 -0.24314251465E+02 -0.66429667492E+02  0.77453779470E+02  0.10000000000E+00 0. -1.
         -5    1    3    3    0  501 -0.44722467580E+02 -0.14629200013E+02 -0.59998783245E+03  0.60183014355E+03  0.10000000000E+00 0. -1.
          2    1    1    2  502    0  0.13178935648E+02  0.38943451478E+02  0.27758266427E+03  0.28061078429E+03  0.00000000000E+00 0. -1.
<mgrwt>
<rscale>  1 0.13158406E+03</rscale>
<asrwt>0</asrwt>
<pdfrwt beam="1">  1       21 0.10374842E+00 0.13158406E+03</pdfrwt>
<pdfrwt beam="2">  1        2 0.43927683E-01 0.13158406E+03</pdfrwt>
<totfact> 0.11152765E+03</totfact>
</mgrwt>
</event>
<event>
 6    2  0.1674964E-002  0.1403325E+03  0.7546771E-02  0.1212882E+00
         21   -1    0    0  502  503  0.00000000000E+00  0.00000000000E+00  0.10362303974E+02  0.10362303974E+02  0.00000000000E+00 0.  1.
          2   -1    0    0  503    0 -0.00000000000E+00 -0.00000000000E+00 -0.29791995533E+04  0.29791995533E+04  0.00000000000E+00 0. -1.
         25    2    1    2    0    0  0.38448071412E+02  0.50907715838E+02 -0.48471329479E+03  0.50461886572E+03  0.12499348694E+03 0.  0.
          5    1    3    3  501    0  0.99436626850E+01 -0.39427154290E+02 -0.91012594064E+02  0.99682893223E+02  0.10000000000E+00 0.  1.
         -5    1    3    3    0  501  0.28504408727E+02  0.90334870128E+02 -0.39370070072E+03  0.40493597250E+03  0.10000000000E+00 0.  1.
          2    1    1    2  502    0 -0.38448071412E+02 -0.50907715838E+02 -0.24841239545E+04  0.24849429915E+04  0.00000000000E+00 0. -1.
<mgrwt>
<rscale>  1 0.14033254E+03</rscale>
<asrwt>0</asrwt>
<pdfrwt beam="1">  1       21 0.15941979E-02 0.14033254E+03</pdfrwt>
<pdfrwt beam="2">  1        2 0.45833918E+00 0.14033254E+03</pdfrwt>
<totfact> 0.51176328E+04</totfact>
</mgrwt>
</event>
<event>
 6    2  0.1674964E-002  0.1270266E+03  0.7546771E-02  0.1231936E+00
         21   -1    0    0  502  503  0.00000000000E+00  0.00000000000E+00  0.29023399307E+02  0.29023399307E+02  0.00000000000E+00 0.  1.
          2   -1    0    0  503    0 -0.00000000000E+00 -0.00000000000E+00 -0.10942356141E+04  0.10942356141E+04  0.00000000000E+00 0.  1.
         25    2    1    2    0    0 -0.12751920381E+02  0.18663052712E+02 -0.11074341362E+03  0.16852260297E+03  0.12499937216E+03 0.  0.
          5    1    3    3  501    0  0.45641721053E+02 -0.37772976195E+01 -0.92731124172E+02  0.10342391439E+03  0.10000000000E+00 0. -1.
         -5    1    3    3    0  501 -0.58393641434E+02  0.22440350332E+02 -0.18012289451E+02  0.65098688575E+02  0.10000000000E+00 0. -1.
          2    1    1    2  502    0  0.12751920381E+02 -0.18663052712E+02 -0.95446880122E+03  0.95473641049E+03  0.00000000000E+00 0.  1.
<mgrwt>
<rscale>  1 0.12702663E+03</rscale>
<asrwt>0</asrwt>
<pdfrwt beam="1">  1       21 0.44651391E-02 0.12702663E+03</pdfrwt>
<pdfrwt beam="2">  1        2 0.16834391E+00 0.12702663E+03</pdfrwt>
<totfact> 0.95579965E+04</totfact>
</mgrwt>
</event>
<event>
 6    2  0.1674964E-002  0.1816731E+03  0.7546771E-02  0.1166194E+00
          1   -1    0    0  503    0 -0.00000000000E+00  0.00000000000E+00  0.13441867671E+03  0.13441867671E+03  0.00000000000E+00 0. -1.
         21   -1    0    0  502  503  0.00000000000E+00 -0.00000000000E+00 -0.19791045147E+03  0.19791045147E+03  0.00000000000E+00 0.  1.
         25    2    1    2    0    0  0.13017883975E+03 -0.20813906726E+02 -0.81785704567E+02  0.19923361023E+03  0.12500152376E+03 0.  0.
          5    1    3    3  501    0  0.15092297214E+03 -0.35246567267E+02 -0.61165127056E+02  0.16661706633E+03  0.10000000000E+00 0. -1.
         -5    1    3    3    0  501 -0.20744132395E+02  0.14432660542E+02 -0.20620577511E+02  0.32616543900E+02  0.10000000000E+00 0. -1.
          1    1    1    2  502    0 -0.13017883975E+03  0.20813906726E+02  0.18293929804E+02  0.13309551795E+03  0.00000000000E+00 0. -1.
<mgrwt>
<rscale>  1 0.18167314E+03</rscale>
<asrwt>0</asrwt>
<pdfrwt beam="1">  1       21 0.30447762E-01 0.18167314E+03</pdfrwt>
<pdfrwt beam="2">  1        1 0.20679796E-01 0.18167314E+03</pdfrwt>
<totfact> 0.27261938E+04</totfact>
</mgrwt>
</event>
<event>
 6    2  0.1674964E-002  0.1327061E+03  0.7546771E-02  0.1223495E+00
          2   -1    0    0  503    0 -0.00000000000E+00  0.00000000000E+00  0.11124774134E+04  0.11124774134E+04  0.00000000000E+00 0.  1.
         21   -1    0    0  502  503  0.00000000000E+00 -0.00000000000E+00 -0.15612890166E+02  0.15612890166E+02  0.00000000000E+00 0. -1.
         25    2    1    2    0    0  0.80668636746E+01  0.43837367597E+02  0.27838175329E+03  0.30839472972E+03  0.12499647862E+03 0.  0.
          5    1    3    3  501    0  0.47854981968E+01  0.87644731623E+02  0.16699372709E+03  0.18865687070E+03  0.10000000000E+00 0. -1.
         -5    1    3    3    0  501  0.32813654778E+01 -0.43807364026E+02  0.11138802620E+03  0.11973785903E+03  0.10000000000E+00 0. -1.
          2    1    1    2  502    0 -0.80668636746E+01 -0.43837367597E+02  0.81848276990E+03  0.81969557380E+03  0.00000000000E+00 0.  1.
<mgrwt>
<rscale>  1 0.13270610E+03</rscale>
<asrwt>0</asrwt>
<pdfrwt beam="1">  1       21 0.24019840E-02 0.13270610E+03</pdfrwt>
<pdfrwt beam="2">  1        2 0.17115031E+00 0.13270610E+03</pdfrwt>
<totfact> 0.25928553E+05</totfact>
</mgrwt>
</event>
<event>
 6    2  0.1674964E-002  0.1738087E+03  0.7546771E-02  0.1173933E+00
          2   -1    0    0  503    0 -0.00000000000E+00  0.00000000000E+00  0.12034407696E+04  0.12034407696E+04  0.00000000000E+00 0. -1.
         21   -1    0    0  502  503  0.00000000000E+00 -0.00000000000E+00 -0.21081572691E+02  0.21081572691E+02  0.00000000000E+00 0. -1.
         25    2    1    2    0    0  0.79840722060E+02 -0.90592928742E+02  0.45233769189E+03  0.48458111664E+03  0.12501140531E+03 0.  0.
          5    1    3    3  501    0  0.88007786361E+02 -0.11621840222E+03  0.40000098721E+03  0.42573805003E+03  0.10000000000E+00 0. -1.
         -5    1    3    3    0  501 -0.81670643017E+01  0.25625473482E+02  0.52336704687E+02  0.58843066609E+02  0.10000000000E+00 0. -1.
          2    1    1    2  502    0 -0.79840722060E+02  0.90592928742E+02  0.73002150500E+03  0.73994122564E+03  0.00000000000E+00 0. -1.
<mgrwt>
<rscale>  1 0.17380872E+03</rscale>
<asrwt>0</asrwt>
<pdfrwt beam="1">  1       21 0.32433198E-02 0.17380872E+03</pdfrwt>
<pdfrwt beam="2">  1        2 0.18514468E+00 0.17380872E+03</pdfrwt>
<totfact> 0.14135799E+05</totfact>
</mgrwt>
</event>
<event>
 6    2  0.1674964E-002  0.1821526E+03  0.7546771E-02  0.1165736E+00
         21   -1    0    0  502  503  0.00000000000E+00  0.00000000000E+00  0.66880411862E+02  0.66880411862E+02  0.00000000000E+00 0.  1.
          1   -1    0    0  503    0 -0.00000000000E+00 -0.00000000000E+00 -0.15967718810E+04  0.15967718810E+04  0.00000000000E+00 0. -1.
         25    2    1    2    0    0 -0.77805456169E+02  0.10725065540E+03 -0.65945724681E+02  0.19372252080E+03  0.12499273725E+03 0.  0.
          5    1    3    3  501    0 -0.78368643961E+02  0.12480237855E+03 -0.25404853034E+02  0.14954161497E+03  0.10000000000E+00 0.  1.
         -5    1    3    3    0  501  0.56318779189E+00 -0.17551723151E+02 -0.40540871647E+02  0.44180905830E+02  0.10000000000E+00 0.  1.
          1    1    1    2  502    0  0.77805456169E+02 -0.10725065540E+03 -0.14639457445E+04  0.14699297721E+04  0.00000000000E+00 0. -1.
<mgrwt>
<rscale>  1 0.18215262E+03</rscale>
<asrwt>0</asrwt>
<pdfrwt beam="1">  1       21 0.10289294E-01 0.18215262E+03</pdfrwt>
<pdfrwt beam="2">  1        1 0.24565721E+00 0.18215262E+03</pdfrwt>
<totfact> 0.54465289E+03</totfact>
</mgrwt>
</event>
<event>
 6    2  0.1674964E-002  0.1276019E+03  0.7546771E-02  0.1231058E+00
          2   -1    0    0  503    0 -0.00000000000E+00  0.00000000000E+00  0.21981419848E+03  0.21981419848E+03  0.00000000000E+00 0. -1.
         21   -1    0    0  502  503  0.00000000000E+00 -0.00000000000E+00 -0.46845114485E+02  0.46845114485E+02  0.00000000000E+00 0. -1.
         25    2    1    2    0    0 -0.21492875352E+02 -0.13986545997E+02  0.43709298238E+02  0.13488048548E+03  0.12499870180E+03 0.  0.
          5    1    3    3  501    0 -0.21645620031E+02 -0.22065912033E+02 -0.40129012751E+02  0.50653578400E+02  0.10000000000E+00 0.  1.
         -5    1    3    3    0  501  0.15274467920E+00  0.80793660369E+01  0.83838310989E+02  0.84226907078E+02  0.10000000000E+00 0.  1.
          2    1    1    2  502    0  0.21492875352E+02  0.13986545997E+02  0.12925978576E+03  0.13177882749E+03  0.00000000000E+00 0. -1.
<mgrwt>
<rscale>  1 0.12760189E+03</rscale>
<asrwt>0</asrwt>
<pdfrwt beam="1">  1       21 0.72069408E-02 0.12760189E+03</pdfrwt>
<pdfrwt beam="2">  1        2 0.33817569E-01 0.12760189E+03</pdfrwt>
<totfact> 0.26699872E+05</totfact>
</mgrwt>
</event>
<event>
 6    2  0.1674964E-002  0.1267146E+03  0.7546771E-02  0.1232414E+00
         21   -1    0    0  502  503  0.00000000000E+00  0.00000000000E+00  0.12514202595E+02  0.12514202595E+02  0.00000000000E+00 0. -1.
          1   -1    0    0  503    0 -0.00000000000E+00 -0.00000000000E+00 -0.98602676059E+03  0.98602676059E+03  0.00000000000E+00 0.  1.
         25    2    1    2    0    0  0.10645639259E+02 -0.17663100460E+02 -0.31259039597E+03  0.33729712086E+03  0.12502510683E+03 0.  0.
          5    1    3    3  501    0 -0.14743836458E+02 -0.67415967513E+02 -0.20082691162E+03  0.21235289454E+03  0.10000000000E+00 0. -1.
         -5    1    3    3    0  501  0.25389475717E+02  0.49752867052E+02 -0.11176348435E+03  0.12494422632E+03  0.10000000000E+00 0. -1.
          1    1    1    2  502    0 -0.10645639259E+02  0.17663100460E+02 -0.66092216202E+03  0.66124384232E+03  0.00000000000E+00 0.  1.
<mgrwt>
<rscale>  1 0.12671461E+03</rscale>
<asrwt>0</asrwt>
<pdfrwt beam="1">  1       21 0.19252618E-02 0.12671461E+03</pdfrwt>
<pdfrwt beam="2">  1        1 0.15169644E+00 0.12671461E+03</pdfrwt>
<totfact> 0.23843254E+05</totfact>
</mgrwt>
</event>
<event>
 6    2  0.1674964E-002  0.1270206E+03  0.7546771E-02  0.1231945E+00
         21   -1    0    0  502  503  0.00000000000E+00  0.00000000000E+00  0.26134643087E+02  0.26134643087E+02  0.00000000000E+00 0. -1.
          2   -1    0    0  503    0 -0.00000000000E+00 -0.00000000000E+00 -0.46987013036E+03  0.46987013036E+03  0.00000000000E+00 0. -1.
         25    2    1    2    0    0  0.18015024851E+02  0.13595024059E+02 -0.13104957930E+03  0.18250542281E+03  0.12499948529E+03 0.  0.
          5    1    3    3  501    0  0.55406465133E+02  0.21590448161E+02 -0.13144127485E+03  0.14426656773E+03  0.10000000000E+00 0. -1.
         -5    1    3    3    0  501 -0.37391440282E+02 -0.79954241022E+01  0.39169555239E+00  0.38238855087E+02  0.10000000000E+00 0. -1.
          2    1    1    2  502    0 -0.18015024851E+02 -0.13595024059E+02 -0.31268590798E+03  0.31349935064E+03  0.00000000000E+00 0. -1.
<mgrwt>
<rscale>  1 0.12702062E+03</rscale>
<asrwt>0</asrwt>
<pdfrwt beam="1">  1       21 0.40207143E-02 0.12702062E+03</pdfrwt>
<pdfrwt beam="2">  1        2 0.72287712E-01 0.12702062E+03</pdfrwt>
<totfact> 0.31812106E+05</totfact>
</mgrwt>
</event>
<event>
 6    2  0.1674964E-002  0.1259446E+03  0.7546771E-02  0.1233600E+00
         21   -1    0    0  502  503  0.00000000000E+00  0.00000000000E+00  0.38540749395E+01  0.38540749395E+01  0.00000000000E+00 0. -1.
          2   -1    0    0  503    0 -0.00000000000E+00 -0.00000000000E+00 -0.15176585822E+04  0.15176585822E+04  0.00000000000E+00 0. -1.
         25    2    1    2    0    0 -0.98163714313E+01 -0.11870744754E+02 -0.10614193426E+04  0.10688653188E+04  0.12499909237E+03 0.  0.
          5    1    3    3  501    0  0.22688599212E+02 -0.45821624398E+02 -0.87906619661E+03  0.88055197564E+03  0.10000000000E+00 0. -1.
         -5    1    3    3    0  501 -0.32504970644E+02  0.33950879644E+02 -0.18235314604E+03  0.18831334317E+03  0.10000000000E+00 0. -1.
          2    1    1    2  502    0  0.98163714313E+01  0.11870744754E+02 -0.45238516457E+03  0.45264733828E+03  0.00000000000E+00 0. -1.
<mgrwt>
<rscale>  1 0.12594463E+03</rscale>
<asrwt>0</asrwt>
<pdfrwt beam="1">  1       21 0.59293515E-03 0.12594463E+03</pdfrwt>
<pdfrwt beam="2">  1        2 0.23348572E+00 0.12594463E+03</pdfrwt>
<totfact> 0.14393023E+06</totfact>
</mgrwt>
</event>
<event>
 6    2  0.1674964E-002  0.1275337E+03  0.7546771E-02  0.1231162E+00
         21   -1    0    0  502  503  0.00000000000E+00  0.00000000000E+00  0.64873630876E+01  0.64873630876E+01  0.00000000000E+00 0. -1.
          2   -1    0    0  503    0 -0.00000000000E+00 -0.00000000000E+00 -0.97535199894E+03  0.97535199894E+03  0.00000000000E+00 0. -1.
         25    2    1    2    0    0  0.25050756462E+02 -0.41205598552E+01 -0.67961170088E+03  0.69147445402E+03  0.12498134731E+03 0.  0.
          5    1    3    3  501    0 -0.35001959057E+02  0.23663450816E+02 -0.10679874733E+03  0.11485242041E+03  0.10000000000E+00 0.  1.
         -5    1    3    3    0  501  0.60052715520E+02 -0.27784010671E+02 -0.57281295355E+03  0.57662203362E+03  0.10000000000E+00 0.  1.
          2    1    1    2  502    0 -0.25050756462E+02  0.41205598552E+01 -0.28925293497E+03  0.29036490801E+03  0.00000000000E+00 0. -1.
<mgrwt>
<rscale>  1 0.12753375E+03</rscale>
<asrwt>0</asrwt>
<pdfrwt beam="1">  1       21 0.99805613E-03 0.12753375E+03</pdfrwt>
<pdfrwt beam="2">  1        2 0.15005411E+00 0.12753375E+03</pdfrwt>
<totfact> 0.12682098E+06</totfact>
</mgrwt>
</event>
<event>
 6    2  0.1674964E-002  0.1339328E+03  0.7546771E-02  0.1221734E+00
          1   -1    0    0  503    0 -0.00000000000E+00  0.00000000000E+00  0.81926594445E+03  0.81926594445E+03  0.00000000000E+00 0. -1.
         21   -1    0    0  502  503  0.00000000000E+00 -0.00000000000E+00 -0.56723966117E+02  0.56723966117E+02  0.00000000000E+00 0.  1.
         25    2    1    2    0    0 -0.42664209598E+02  0.22385965586E+02  0.24229266654E+02  0.13610679381E+03  0.12496653841E+03 0.  0.
          5    1    3    3  501    0 -0.63828335968E+02  0.50578858692E+02  0.47106459943E+02  0.94081379600E+02  0.10000000000E+00 0.  1.
         -5    1    3    3    0  501  0.21164126370E+02 -0.28192893106E+02 -0.22877193290E+02  0.42025414210E+02  0.10000000000E+00 0.  1.
          1    1    1    2  502    0  0.42664209598E+02 -0.22385965586E+02  0.73831271168E+03  0.73988311675E+03  0.00000000000E+00 0. -1.
<mgrwt>
<rscale>  1 0.13393283E+03</rscale>
<asrwt>0</asrwt>
<pdfrwt beam="1">  1       21 0.87267646E-02 0.13393283E+03</pdfrwt>
<pdfrwt beam="2">  1        1 0.12604091E+00 0.13393283E+03</pdfrwt>
<totfact> 0.25804050E+04</totfact>
</mgrwt>
</event>
<event>
 6    2  0.1674964E-002  0.1517133E+03  0.7546771E-02  0.1198383E+00
         21   -1    0    0  502  503  0.00000000000E+00  0.00000000000E+00  0.58687853463E+03  0.58687853463E+03  0.00000000000E+00 0. -1.
          2   -1    0    0  503    0 -0.00000000000E+00 -0.00000000000E+00 -0.12367722153E+03  0.12367722153E+03  0.00000000000E+00 0.  1.
         25    2    1    2    0    0 -0.73119990238E+02 -0.45223162039E+02  0.56052630304E+03  0.58069498063E+03  0.12500102710E+03 0.  0.
          5    1    3    3  501    0 -0.43481326539E+02  0.36383755289E+02  0.31987570548E+03  0.32486132482E+03  0.10000000000E+00 0. -1.
         -5    1    3    3    0  501 -0.29638663699E+02 -0.81606917329E+02  0.24065059756E+03  0.25583365581E+03  0.10000000000E+00 0. -1.
          2    1    1    2  502    0  0.73119990238E+02  0.45223162039E+02 -0.97324989936E+02  0.12986077554E+03  0.00000000000E+00 0.  1.
<mgrwt>
<rscale>  1 0.15171330E+03</rscale>
<asrwt>0</asrwt>
<pdfrwt beam="1">  1       21 0.90289004E-01 0.15171330E+03</pdfrwt>
<pdfrwt beam="2">  1        2 0.19027265E-01 0.15171330E+03</pdfrwt>
<totfact> 0.38051414E+03</totfact>
</mgrwt>
</event>
<event>
 6    2  0.1674964E-002  0.1355974E+03  0.7546771E-02  0.1219379E+00
         21   -1    0    0  502  503  0.00000000000E+00  0.00000000000E+00  0.18791981671E+02  0.18791981671E+02  0.00000000000E+00 0.  1.
          2   -1    0    0  503    0 -0.00000000000E+00 -0.00000000000E+00 -0.92419602802E+03  0.92419602802E+03  0.00000000000E+00 0.  1.
         25    2    1    2    0    0  0.35071262760E+02 -0.39146246153E+02 -0.24115562943E+03  0.27666347807E+03  0.12499688169E+03 0.  0.
          5    1    3    3  501    0  0.18375268938E+02  0.75336921175E+01  0.88840017927E+01  0.21756436135E+02  0.10000000000E+00 0. -1.
         -5    1    3    3    0  501  0.16695993822E+02 -0.46679938270E+02 -0.25003963122E+03  0.25490704193E+03  0.10000000000E+00 0. -1.
          2    1    1    2  502    0 -0.35071262760E+02  0.39146246153E+02 -0.66424841693E+03  0.66632453163E+03  0.00000000000E+00 0.  1.
<mgrwt>
<rscale>  1 0.13559735E+03</rscale>
<asrwt>0</asrwt>
<pdfrwt beam="1">  1       21 0.28910741E-02 0.13559735E+03</pdfrwt>
<pdfrwt beam="2">  1        2 0.14218400E+00 0.13559735E+03</pdfrwt>
<totfact> 0.24792651E+05</totfact>
</mgrwt>
</event>
<event>
 6    2  0.1674964E-002  0.1716416E+03  0.7546771E-02  0.1176147E+00
          2   -1    0    0  503    0 -0.00000000000E+00  0.00000000000E+00  0.10591765541E+04  0.10591765541E+04  0.00000000000E+00 0.  1.
         21   -1    0    0  502  503  0.00000000000E+00 -0.00000000000E+00 -0.23703426782E+02  0.23703426782E+02  0.00000000000E+00 0. -1.
         25    2    1    2    0    0  0.11491894986E+03  0.25097878480E+02  0.38041411640E+03  0.41734367359E+03  0.12499829353E+03 0.  0.
          5    1    3    3  501    0  0.13284983901E+03  0.12698548781E+01  0.24519313014E+03  0.27887340017E+03  0.10000000000E+00 0.  1.
         -5    1    3    3    0  501 -0.17930889148E+02  0.23828023602E+02  0.13522098626E+03  0.13847027342E+03  0.10000000000E+00 0.  1.
          2    1    1    2  502    0 -0.11491894986E+03 -0.25097878480E+02  0.65505901093E+03  0.66553630731E+03  0.00000000000E+00 0.  1.
<mgrwt>
<rscale>  1 0.17164161E+03</rscale>
<asrwt>0</asrwt>
<pdfrwt beam="1">  1       21 0.36466819E-02 0.17164161E+03</pdfrwt>
<pdfrwt beam="2">  1        2 0.16295020E+00 0.17164161E+03</pdfrwt>
<totfact> 0.14070917E+05</totfact>
</mgrwt>
</event>
<event>
 6    2  0.1674964E-002  0.1391015E+03  0.7546771E-02  0.1214543E+00
         21   -1    0    0  502  503  0.00000000000E+00  0.00000000000E+00  0.10234404035E+03  0.10234404035E+03  0.00000000000E+00 0. -1.
          2   -1    0    0  503    0 -0.00000000000E+00 -0.00000000000E+00 -0.30085352381E+04  0.30085352381E+04  0.00000000000E+00 0.  1.
         25    2    1    2    0    0 -0.50640678928E+01 -0.60818929072E+02  0.54618781645E+02  0.14944038477E+03  0.12499852149E+03 0.  0.
          5    1    3    3  501    0  0.58161871837E+02 -0.31980225335E+02  0.42727531336E+02  0.78937887494E+02  0.10000000000E+00 0. -1.
         -5    1    3    3    0  501 -0.63225939729E+02 -0.28838703737E+02  0.11891250309E+02  0.70502497273E+02  0.10000000000E+00 0. -1.
          2    1    1    2  502    0  0.50640678928E+01  0.60818929072E+02 -0.29608099794E+04  0.29614388936E+04  0.00000000000E+00 0.  1.
<mgrwt>
<rscale>  1 0.13910146E+03</rscale>
<asrwt>0</asrwt>
<pdfrwt beam="1">  1       21 0.15745235E-01 0.13910146E+03</pdfrwt>
<pdfrwt beam="2">  1        2 0.46285165E+00 0.13910146E+03</pdfrwt>
<totfact> 0.10242793E+03</totfact>
</mgrwt>
</event>
<event>
 6    2  0.1674964E-002  0.1830405E+03  0.7546771E-02  0.1164892E+00
          2   -1    0    0  503    0 -0.00000000000E+00  0.00000000000E+00  0.11077697239E+03  0.11077697239E+03  0.00000000000E+00 0. -1.
         21   -1    0    0  502  503  0.00000000000E+00 -0.00000000000E+00 -0.82289281632E+03  0.82289281632E+03  0.00000000000E+00 0. -1.
         25    2    1    2    0    0 -0.12346853230E+03 -0.51318168236E+02 -0.76744070530E+03  0.78896708263E+03  0.12500315381E+03 0.  0.
          5    1    3    3  501    0 -0.13559293318E+02 -0.59769084393E+01 -0.27286833298E+01  0.15067633606E+02  0.10000000000E+00 0. -1.
         -5    1    3    3    0  501 -0.10990923899E+03 -0.45341259797E+02 -0.76471202197E+03  0.77389944902E+03  0.10000000000E+00 0. -1.
          2    1    1    2  502    0  0.12346853230E+03  0.51318168236E+02  0.55324861373E+02  0.14470270608E+03  0.00000000000E+00 0. -1.
<mgrwt>
<rscale>  1 0.18304049E+03</rscale>
<asrwt>0</asrwt>
<pdfrwt beam="1">  1       21 0.12659890E+00 0.18304049E+03</pdfrwt>
<pdfrwt beam="2">  1        2 0.17042611E-01 0.18304049E+03</pdfrwt>
<totfact> 0.18958078E+03</totfact>
</mgrwt>
</event>
<event>
 6    2  0.1674964E-002  0.1278509E+03  0.7546771E-02  0.1230680E+00
          2   -1    0    0  503    0 -0.00000000000E+00  0.00000000000E+00  0.82523531744E+03  0.82523531744E+03  0.00000000000E+00 0.  1.
         21   -1    0    0  502  503  0.00000000000E+00 -0.00000000000E+00 -0.94183459079E+01  0.94183459079E+01  0.00000000000E+00 0. -1.
         25    2    1    2    0    0  0.13397735846E+02  0.23268531513E+02  0.44878768179E+03  0.46664357733E+03  0.12499968420E+03 0.  0.
          5    1    3    3  501    0  0.54961119544E+01 -0.49630359138E+02  0.24573046233E+03  0.25075256711E+03  0.10000000000E+00 0. -1.
         -5    1    3    3    0  501  0.79016238919E+01  0.72898890651E+02  0.20305721946E+03  0.21589101022E+03  0.10000000000E+00 0. -1.
          2    1    1    2  502    0 -0.13397735846E+02 -0.23268531513E+02  0.36702928974E+03  0.36801008602E+03  0.00000000000E+00 0.  1.
<mgrwt>
<rscale>  1 0.12785087E+03</rscale>
<asrwt>0</asrwt>
<pdfrwt beam="1">  1       21 0.14489769E-02 0.12785087E+03</pdfrwt>
<pdfrwt beam="2">  1        2 0.12695922E+00 0.12785087E+03</pdfrwt>
<totfact> 0.87340150E+05</totfact>
</mgrwt>
</event>
<event>
 6    2  0.1674964E-002  0.1615284E+03  0.7546771E-02  0.1186982E+00
         21   -1    0    0  502  503  0.00000000000E+00  0.00000000000E+00  0.11586842318E+03  0.11586842318E+03  0.00000000000E+00 0. -1.
          1   -1    0    0  503    0 -0.00000000000E+00 -0.00000000000E+00 -0.37227006297E+03  0.37227006297E+03  0.00000000000E+00 0.  1.
         25    2    1    2    0    0  0.87647439784E+02  0.52727223876E+02  0.46781337821E+02  0.16816637526E+03  0.12501680831E+03 0.  0.
          5    1    3    3  501    0  0.11867040562E+03  0.43167195287E+02  0.24079234120E+02  0.12855306855E+03  0.10000000000E+00 0. -1.
         -5    1    3    3    0  501 -0.31022965834E+02  0.95600285889E+01  0.22702103701E+02  0.39613306707E+02  0.10000000000E+00 0. -1.
          1    1    1    2  502    0 -0.87647439784E+02 -0.52727223876E+02 -0.30318297761E+03  0.31997211089E+03  0.00000000000E+00 0.  1.
<mgrwt>
<rscale>  1 0.16152844E+03</rscale>
<asrwt>0</asrwt>
<pdfrwt beam="1">  1       21 0.17825911E-01 0.16152844E+03</pdfrwt>
<pdfrwt beam="2">  1        1 0.57272317E-01 0.16152844E+03</pdfrwt>
<totfact> 0.20941007E+04</totfact>
</mgrwt>
</event>
<event>
 6    2  0.1674964E-002  0.1303985E+03  0.7546771E-02  0.1226866E+00
         21   -1    0    0  502  503  0.00000000000E+00  0.00000000000E+00  0.53805936179E+01  0.53805936179E+01  0.00000000000E+00 0.  1.
          2   -1    0    0  503    0 -0.00000000000E+00 -0.00000000000E+00 -0.13058820188E+04  0.13058820188E+04  0.00000000000E+00 0.  1.
         25    2    1    2    0    0 -0.36227051726E+02  0.84417223037E+01 -0.99814946883E+03  0.10066310851E+04  0.12498046778E+03 0.  0.
          5    1    3    3  501    0 -0.37573097348E+02  0.24855293387E+02 -0.11769198007E+03  0.12601958350E+03  0.10000000000E+00 0. -1.
         -5    1    3    3    0  501  0.13460456217E+01 -0.16413571084E+02 -0.88045748876E+03  0.88061150155E+03  0.10000000000E+00 0. -1.
          2    1    1    2  502    0  0.36227051726E+02 -0.84417223037E+01 -0.30235195640E+03  0.30463152741E+03  0.00000000000E+00 0.  1.
<mgrwt>
<rscale>  1 0.13039854E+03</rscale>
<asrwt>0</asrwt>
<pdfrwt beam="1">  1       21 0.82778423E-03 0.13039854E+03</pdfrwt>
<pdfrwt beam="2">  1        2 0.20090478E+00 0.13039854E+03</pdfrwt>
<totfact> 0.11082663E+06</totfact>
</mgrwt>
</event>
<event>
 6    2  0.1674964E-002  0.1261913E+03  0.7546771E-02  0.1233219E+00
         21   -1    0    0  502  503  0.00000000000E+00  0.00000000000E+00  0.40457936295E+03  0.40457936295E+03  0.00000000000E+00 0. -1.
          2   -1    0    0  503    0 -0.00000000000E+00 -0.00000000000E+00 -0.13379092528E+03  0.13379092528E+03  0.00000000000E+00 0. -1.
         25    2    1    2    0    0  0.50139657832E+01  0.16538802725E+02  0.39412221038E+03  0.41383157401E+03  0.12500233231E+03 0.  0.
          5    1    3    3  501    0 -0.48486536537E+02 -0.57947050826E+01  0.75068914754E+02  0.89553753661E+02  0.10000000000E+00 0.  1.
         -5    1    3    3    0  501  0.53500502320E+02  0.22333507807E+02  0.31905329563E+03  0.32427782035E+03  0.10000000000E+00 0.  1.
          2    1    1    2  502    0 -0.50139657832E+01 -0.16538802725E+02 -0.12333377272E+03  0.12453871422E+03  0.00000000000E+00 0. -1.
<mgrwt>
<rscale>  1 0.12619134E+03</rscale>
<asrwt>0</asrwt>
<pdfrwt beam="1">  1       21 0.62242978E-01 0.12619134E+03</pdfrwt>
<pdfrwt beam="2">  1        2 0.20583219E-01 0.12619134E+03</pdfrwt>
<totfact> 0.79947193E+03</totfact>
</mgrwt>
</event>
<event>
 6    2  0.1674964E-002  0.1769143E+03  0.7546771E-02  0.1170823E+00
         21   -1    0    0  502  503  0.00000000000E+00  0.00000000000E+00  0.86100456393E+02  0.86100456393E+02  0.00000000000E+00 0.  1.
          3   -1    0    0  503    0 -0.00000000000E+00 -0.00000000000E+00 -0.26958987565E+03  0.26958987565E+03  0.00000000000E+00 0.  1.
         25    2    1    2    0    0 -0.12508060477E+03  0.52693663953E+01 -0.13004289681E+03  0.21956739249E+03  0.12500304365E+03 0.  0.
          5    1    3    3  501    0 -0.13266620561E+03  0.36461952329E+02 -0.77273273652E+02  0.15780039575E+03  0.10000000000E+00 0.  1.
         -5    1    3    3    0  501  0.75856008440E+01 -0.31192585934E+02 -0.52769623154E+02  0.61766996731E+02  0.10000000000E+00 0.  1.
          3    1    1    2  502    0  0.12508060477E+03 -0.52693663953E+01 -0.53446522450E+02  0.13612293956E+03  0.00000000000E+00 0.  1.
<mgrwt>
<rscale>  1 0.17691434E+03</rscale>
<asrwt>0</asrwt>
<pdfrwt beam="1">  1       21 0.13246224E-01 0.17691434E+03</pdfrwt>
<pdfrwt beam="2">  1        3 0.41475366E-01 0.17691434E+03</pdfrwt>
<totfact> 0.13978128E+04</totfact>
</mgrwt>
</event>
<event>
 6    2  0.1674964E-002  0.1427225E+03  0.7546771E-02  0.1209712E+00
         21   -1    0    0  502  503  0.00000000000E+00  0.00000000000E+00  0.78802993547E+02  0.78802993547E+02  0.00000000000E+00 0.  1.
          4   -1    0    0  503    0 -0.00000000000E+00 -0.00000000000E+00 -0.26883226268E+03  0.26883226268E+03  0.00000000000E+00 0. -1.
         25    2    1    2    0    0  0.53742901405E+02  0.43071266612E+02  0.29305560485E+01  0.14275253955E+03  0.12500506362E+03 0.  0.
          5    1    3    3  501    0 -0.37882236303E+01  0.75118667756E+02 -0.92491365245E+01  0.75780745643E+02  0.10000000000E+00 0. -1.
         -5    1    3    3    0  501  0.57531125036E+02 -0.32047401144E+02  0.12179692573E+02  0.66971793907E+02  0.10000000000E+00 0. -1.
          4    1    1    2  502    0 -0.53742901405E+02 -0.43071266612E+02 -0.19295982518E+03  0.20488271667E+03  0.00000000000E+00 0. -1.
<mgrwt>
<rscale>  1 0.14272246E+03</rscale>
<asrwt>0</asrwt>
<pdfrwt beam="1">  1       21 0.12123537E-01 0.14272246E+03</pdfrwt>
<pdfrwt beam="2">  1        4 0.41358810E-01 0.14272246E+03</pdfrwt>
<totfact> 0.13461472E+04</totfact>
</mgrwt>
</event>
<event>
 6    2  0.1674964E-002  0.1292846E+03  0.7546771E-02  0.1228521E+00
         21   -1    0    0  502  503  0.00000000000E+00  0.00000000000E+00  0.49009650687E+02  0.49009650687E+02  0.00000000000E+00 0.  1.
          2   -1    0    0  503    0 -0.00000000000E+00 -0.00000000000E+00 -0.91557791605E+03  0.91557791605E+03  0.00000000000E+00 0. -1.
         25    2    1    2    0    0 -0.32569525983E+02 -0.52927820483E+01 -0.37154276415E+02  0.13451747775E+03  0.12500289597E+03 0.  0.
          5    1    3    3  501    0  0.39913395196E+02 -0.29228431124E+02 -0.29984683233E+02  0.57848695150E+02  0.10000000000E+00 0. -1.
         -5    1    3    3    0  501 -0.72482921179E+02  0.23935649075E+02 -0.71695931819E+01  0.76668782602E+02  0.10000000000E+00 0. -1.
          2    1    1    2  502    0  0.32569525983E+02  0.52927820483E+01 -0.82941398895E+03  0.83007008898E+03  0.00000000000E+00 0. -1.
<mgrwt>
<rscale>  1 0.12928461E+03</rscale>
<asrwt>0</asrwt>
<pdfrwt beam="1">  1       21 0.75399470E-02 0.12928461E+03</pdfrwt>
<pdfrwt beam="2">  1        2 0.14085813E+00 0.12928461E+03</pdfrwt>
<totfact> 0.50301915E+04</totfact>
</mgrwt>
</event>
<event>
 6    2  0.1674964E-002  0.1260224E+03  0.7546771E-02  0.1233480E+00
          2   -1    0    0  503    0 -0.00000000000E+00  0.00000000000E+00  0.95936759560E+03  0.95936759560E+03  0.00000000000E+00 0. -1.
         21   -1    0    0  502  503  0.00000000000E+00 -0.00000000000E+00 -0.74011003191E+01  0.74011003191E+01  0.00000000000E+00 0.  1.
         25    2    1    2    0    0 -0.16011393150E+02 -0.85684262970E+00  0.54078810350E+03  0.55527778623E+03  0.12499819240E+03 0.  0.
          5    1    3    3  501    0 -0.62539530559E+02  0.69883488667E+01  0.43388165196E+03  0.43842140437E+03  0.10000000000E+00 0.  1.
         -5    1    3    3    0  501  0.46528137408E+02 -0.78451914964E+01  0.10690645154E+03  0.11685638186E+03  0.10000000000E+00 0.  1.
          2    1    1    2  502    0  0.16011393150E+02  0.85684262970E+00  0.41117839179E+03  0.41149090969E+03  0.00000000000E+00 0. -1.
<mgrwt>
<rscale>  1 0.12602241E+03</rscale>
<asrwt>0</asrwt>
<pdfrwt beam="1">  1       21 0.11386316E-02 0.12602241E+03</pdfrwt>
<pdfrwt beam="2">  1        2 0.14759492E+00 0.12602241E+03</pdfrwt>
<totfact> 0.10523748E+06</totfact>
</mgrwt>
</event>
<event>
 6    2  0.1674964E-002  0.1289041E+03  0.7546771E-02  0.1229091E+00
         21   -1    0    0  502  503  0.00000000000E+00  0.00000000000E+00  0.29911239404E+02  0.29911239404E+02  0.00000000000E+00 0. -1.
          1   -1    0    0  503    0 -0.00000000000E+00 -0.00000000000E+00 -0.44836108164E+03  0.44836108164E+03  0.00000000000E+00 0. -1.
         25    2    1    2    0    0 -0.14513078092E+02  0.27966029477E+02 -0.11365648006E+03  0.17185475976E+03  0.12499413886E+03 0.  0.
          5    1    3    3  501    0  0.21785076303E+02 -0.21546717861E+02 -0.10557595293E+03  0.10993244488E+03  0.10000000000E+00 0.  1.
         -5    1    3    3    0  501 -0.36298154395E+02  0.49512747338E+02 -0.80805271374E+01  0.61922314881E+02  0.10000000000E+00 0.  1.
          1    1    1    2  502    0  0.14513078092E+02 -0.27966029477E+02 -0.30479336217E+03  0.30641756129E+03  0.00000000000E+00 0. -1.
<mgrwt>
<rscale>  1 0.12890408E+03</rscale>
<asrwt>0</asrwt>
<pdfrwt beam="1">  1       21 0.46017292E-02 0.12890408E+03</pdfrwt>
<pdfrwt beam="2">  1        1 0.68978627E-01 0.12890408E+03</pdfrwt>
<totfact> 0.17564649E+05</totfact>
</mgrwt>
</event>
<event>
 6    2  0.1674964E-002  0.1556460E+03  0.7546771E-02  0.1193702E+00
          2   -1    0    0  503    0 -0.00000000000E+00  0.00000000000E+00  0.52257384144E+03  0.52257384144E+03  0.00000000000E+00 0.  1.
         21   -1    0    0  502  503  0.00000000000E+00 -0.00000000000E+00 -0.59834474428E+02  0.59834474428E+02  0.00000000000E+00 0. -1.
         25    2    1    2    0    0 -0.63350485327E+02 -0.67728165298E+02  0.56288107070E+02  0.16551142805E+03  0.12500117380E+03 0.  0.
          5    1    3    3  501    0 -0.38904404205E+01 -0.88708510650E+02  0.14762364133E+02  0.90012625688E+02  0.10000000000E+00 0.  1.
         -5    1    3    3    0  501 -0.59460044906E+02  0.20980345351E+02  0.41525742937E+02  0.75498802360E+02  0.10000000000E+00 0.  1.
          2    1    1    2  502    0  0.63350485327E+02  0.67728165298E+02  0.40645125995E+03  0.41689688782E+03  0.00000000000E+00 0.  1.
<mgrwt>
<rscale>  1 0.15564601E+03</rscale>
<asrwt>0</asrwt>
<pdfrwt beam="1">  1       21 0.92053041E-02 0.15564601E+03</pdfrwt>
<pdfrwt beam="2">  1        2 0.80395972E-01 0.15564601E+03</pdfrwt>
<totfact> 0.69606093E+04</totfact>
</mgrwt>
</event>
<event>
 6    2  0.1674964E-002  0.1655274E+03  0.7546771E-02  0.1182594E+00
         21   -1    0    0  502  503  0.00000000000E+00  0.00000000000E+00  0.39086728097E+02  0.39086728097E+02  0.00000000000E+00 0. -1.
          3   -1    0    0  503    0 -0.00000000000E+00 -0.00000000000E+00 -0.19579296105E+04  0.19579296105E+04  0.00000000000E+00 0. -1.
         25    2    1    2    0    0  0.84630937787E+02  0.67938450290E+02 -0.14558683660E+03  0.22044237936E+03  0.12498514699E+03 0.  0.
          5    1    3    3  501    0  0.10078182396E+03  0.71731166912E+02 -0.68119267730E+02  0.14121820344E+03  0.10000000000E+00 0.  1.
         -5    1    3    3    0  501 -0.16150886171E+02 -0.37927166219E+01 -0.77467568871E+02  0.79224175921E+02  0.10000000000E+00 0.  1.
          3    1    1    2  502    0 -0.84630937787E+02 -0.67938450290E+02 -0.17732560458E+04  0.17765739592E+04  0.00000000000E+00 0. -1.
<mgrwt>
<rscale>  1 0.16552739E+03</rscale>
<asrwt>0</asrwt>
<pdfrwt beam="1">  1       21 0.60133407E-02 0.16552739E+03</pdfrwt>
<pdfrwt beam="2">  1        3 0.30122004E+00 0.16552739E+03</pdfrwt>
<totfact> 0.43681553E+02</totfact>
</mgrwt>
</event>
<event>
 6    2  0.1674964E-002  0.1307720E+03  0.7546771E-02  0.1226315E+00
         21   -1    0    0  502  503  0.00000000000E+00  0.00000000000E+00  0.58834039284E+02  0.58834039284E+02  0.00000000000E+00 0. -1.
          4   -1    0    0  503    0 -0.00000000000E+00 -0.00000000000E+00 -0.14792672767E+03  0.14792672767E+03  0.00000000000E+00 0.  1.
         25    2    1    2    0    0 -0.17943529785E+02 -0.33984081705E+02 -0.26680990607E+02  0.13346610078E+03  0.12499774688E+03 0.  0.
          5    1    3    3  501    0 -0.32871773847E+02  0.68257604321E+00 -0.69198305989E+02  0.76612237780E+02  0.10000000000E+00 0.  1.
         -5    1    3    3    0  501  0.14928244062E+02 -0.34666657749E+02  0.42517315382E+02  0.56853862996E+02  0.10000000000E+00 0.  1.
          4    1    1    2  502    0  0.17943529785E+02  0.33984081705E+02 -0.62411697779E+02  0.73294666178E+02  0.00000000000E+00 0.  1.
<mgrwt>
<rscale>  1 0.13077203E+03</rscale>
<asrwt>0</asrwt>
<pdfrwt beam="1">  1       21 0.90513907E-02 0.13077203E+03</pdfrwt>
<pdfrwt beam="2">  1        4 0.22757958E-01 0.13077203E+03</pdfrwt>
<totfact> 0.69234135E+04</totfact>
</mgrwt>
</event>
<event>
 6    2  0.1674964E-002  0.1264644E+03  0.7546771E-02  0.1232798E+00
         21   -1    0    0  502  503  0.00000000000E+00  0.00000000000E+00  0.20040939587E+02  0.20040939587E+02  0.00000000000E+00 0. -1.
          2   -1    0    0  503    0 -0.00000000000E+00 -0.00000000000E+00 -0.74065188946E+03  0.74065188946E+03  0.00000000000E+00 0. -1.
         25    2    1    2    0    0  0.18803539856E+02 -0.39823170153E+01 -0.18135660427E+03  0.22109605255E+03  0.12499525823E+03 0.  0.
          5    1    3    3  501    0  0.51307582663E+02  0.40220625852E+02 -0.13232340429E+03  0.14751155922E+03  0.10000000000E+00 0.  1.
         -5    1    3    3    0  501 -0.32504042807E+02 -0.44202942867E+02 -0.49033199987E+02  0.73584493325E+02  0.10000000000E+00 0.  1.
          2    1    1    2  502    0 -0.18803539856E+02  0.39823170153E+01 -0.53925434560E+03  0.53959677650E+03  0.00000000000E+00 0. -1.
<mgrwt>
<rscale>  1 0.12646441E+03</rscale>
<asrwt>0</asrwt>
<pdfrwt beam="1">  1       21 0.30832220E-02 0.12646441E+03</pdfrwt>
<pdfrwt beam="2">  1        2 0.11394643E+00 0.12646441E+03</pdfrwt>
<totfact> 0.29406788E+05</totfact>
</mgrwt>
</event>
<event>
 6    2  0.1674964E-002  0.1290513E+03  0.7546771E-02  0.1228870E+00
         21   -1    0    0  502  503  0.00000000000E+00  0.00000000000E+00  0.85484859666E+01  0.85484859666E+01  0.00000000000E+00 0. -1.
          2   -1    0    0  503    0 -0.00000000000E+00 -0.00000000000E+00 -0.22614848590E+04  0.22614848590E+04  0.00000000000E+00 0. -1.
         25    2    1    2    0    0  0.27555766158E+02 -0.16434643953E+02 -0.48709632609E+03  0.50390184105E+03  0.12499926697E+03 0.  0.
          5    1    3    3  501    0 -0.45442576262E+02 -0.14981072478E+02 -0.11244050215E+03  0.12219794103E+03  0.10000000000E+00 0.  1.
         -5    1    3    3    0  501  0.72998342419E+02 -0.14535714751E+01 -0.37465582395E+03  0.38170390001E+03  0.10000000000E+00 0.  1.
          2    1    1    2  502    0 -0.27555766158E+02  0.16434643953E+02 -0.17658400470E+04  0.17661315039E+04  0.00000000000E+00 0. -1.
<mgrwt>
<rscale>  1 0.12905129E+03</rscale>
<asrwt>0</asrwt>
<pdfrwt beam="1">  1       21 0.13151514E-02 0.12905129E+03</pdfrwt>
<pdfrwt beam="2">  1        2 0.34792083E+00 0.12905129E+03</pdfrwt>
<totfact> 0.17151037E+05</totfact>
</mgrwt>
</event>
<event>
 6    2  0.1674964E-002  0.1342575E+03  0.7546771E-02  0.1221272E+00
          1   -1    0    0  503    0 -0.00000000000E+00  0.00000000000E+00  0.47491198324E+03  0.47491198324E+03  0.00000000000E+00 0.  1.
         21   -1    0    0  502  503  0.00000000000E+00 -0.00000000000E+00 -0.12311540946E+03  0.12311540946E+03  0.00000000000E+00 0. -1.
         25    2    1    2    0    0 -0.41903536100E+02  0.25387124632E+02 -0.84730972708E+02  0.15875901086E+03  0.12499869343E+03 0.  0.
          5    1    3    3  501    0 -0.19472934572E+02  0.64217547297E+02 -0.91434926115E+02  0.11341712514E+03  0.10000000000E+00 0. -1.
         -5    1    3    3    0  501 -0.22430601528E+02 -0.38830422665E+02  0.67039534072E+01  0.45341885719E+02  0.10000000000E+00 0. -1.
          1    1    1    2  502    0  0.41903536100E+02 -0.25387124632E+02  0.43652754649E+03  0.43926838184E+03  0.00000000000E+00 0.  1.
<mgrwt>
<rscale>  1 0.13425754E+03</rscale>
<asrwt>0</asrwt>
<pdfrwt beam="1">  1       21 0.18940833E-01 0.13425754E+03</pdfrwt>
<pdfrwt beam="2">  1        1 0.73063381E-01 0.13425754E+03</pdfrwt>
<totfact> 0.13781944E+04</totfact>
</mgrwt>
</event>
<event>
 6    2  0.1674964E-002  0.1273677E+03  0.7546771E-02  0.1231415E+00
         21   -1    0    0  502  503  0.00000000000E+00  0.00000000000E+00  0.40920375436E+03  0.40920375436E+03  0.00000000000E+00 0. -1.
          2   -1    0    0  503    0 -0.00000000000E+00 -0.00000000000E+00 -0.66908223302E+03  0.66908223302E+03  0.00000000000E+00 0. -1.
         25    2    1    2    0    0  0.16802219444E+02  0.17715341788E+02  0.39906114402E+03  0.41889416588E+03  0.12500551039E+03 0.  0.
          5    1    3    3  501    0  0.31300886912E+02 -0.67705857826E+01  0.17930879941E+02  0.36703035417E+02  0.10000000000E+00 0. -1.
         -5    1    3    3    0  501 -0.14498667468E+02  0.24485927570E+02  0.38113026408E+03  0.38219113046E+03  0.10000000000E+00 0. -1.
          2    1    1    2  502    0 -0.16802219444E+02 -0.17715341788E+02 -0.65893962269E+03  0.65939182150E+03  0.00000000000E+00 0. -1.
<mgrwt>
<rscale>  1 0.12736768E+03</rscale>
<asrwt>0</asrwt>
<pdfrwt beam="1">  1       21 0.62954424E-01 0.12736768E+03</pdfrwt>
<pdfrwt beam="2">  1        2 0.10293573E+00 0.12736768E+03</pdfrwt>
<totfact> 0.13573347E+03</totfact>
</mgrwt>
</event>
<event>
 6    2  0.1674964E-002  0.1456842E+03  0.7546771E-02  0.1205879E+00
          2   -1    0    0  503    0 -0.00000000000E+00  0.00000000000E+00  0.16621115359E+04  0.16621115359E+04  0.00000000000E+00 0. -1.
         21   -1    0    0  502  503  0.00000000000E+00 -0.00000000000E+00 -0.10343060272E+03  0.10343060272E+03  0.00000000000E+00 0. -1.
         25    2    1    2    0    0  0.17263850481E+02  0.72806249036E+02 -0.50826867200E+02  0.15429599047E+03  0.12500036726E+03 0.  0.
          5    1    3    3  501    0  0.66646803272E+02  0.60495930630E+02 -0.13130047322E+02  0.90961322285E+02  0.10000000000E+00 0.  1.
         -5    1    3    3    0  501 -0.49382952791E+02  0.12310318406E+02 -0.37696819878E+02  0.63334668188E+02  0.10000000000E+00 0.  1.
          2    1    1    2  502    0 -0.17263850481E+02 -0.72806249036E+02  0.16095078004E+04  0.16112461482E+04  0.00000000000E+00 0. -1.
<mgrwt>
<rscale>  1 0.14568419E+03</rscale>
<asrwt>0</asrwt>
<pdfrwt beam="1">  1       21 0.15912402E-01 0.14568419E+03</pdfrwt>
<pdfrwt beam="2">  1        2 0.25570945E+00 0.14568419E+03</pdfrwt>
<totfact> 0.52057314E+03</totfact>
</mgrwt>
</event>
<event>
 6    2  0.1674964E-002  0.1341838E+03  0.7546771E-02  0.1221377E+00
          2   -1    0    0  503    0 -0.00000000000E+00  0.00000000000E+00  0.87387764653E+03  0.87387764653E+03  0.00000000000E+00 0. -1.
         21   -1    0    0  502  503  0.00000000000E+00 -0.00000000000E+00 -0.34797781275E+03  0.34797781275E+03  0.00000000000E+00 0.  1.
         25    2    1    2    0    0 -0.16559783682E+02 -0.45884673140E+02 -0.33432539725E+03  0.36024819505E+03  0.12500264448E+03 0.  0.
          5    1    3    3  501    0 -0.44159796191E+01 -0.70064529284E+02 -0.88621643100E+02  0.11305903222E+03  0.10000000000E+00 0.  1.
         -5    1    3    3    0  501 -0.12143804063E+02  0.24179856144E+02 -0.24570375415E+03  0.24718916284E+03  0.10000000000E+00 0.  1.
          2    1    1    2  502    0  0.16559783682E+02  0.45884673140E+02  0.86022523103E+03  0.86160726422E+03  0.00000000000E+00 0. -1.
<mgrwt>
<rscale>  1 0.13418379E+03</rscale>
<asrwt>0</asrwt>
<pdfrwt beam="1">  1       21 0.53535049E-01 0.13418379E+03</pdfrwt>
<pdfrwt beam="2">  1        2 0.13444271E+00 0.13418379E+03</pdfrwt>
<totfact> 0.13720315E+03</totfact>
</mgrwt>
</event>
<event>
 6    2  0.1674964E-002  0.1260089E+03  0.7546771E-02  0.1233501E+00
         21   -1    0    0  502  503  0.00000000000E+00  0.00000000000E+00  0.52415753178E+03  0.52415753178E+03  0.00000000000E+00 0.  1.
          4   -1    0    0  503    0 -0.00000000000E+00 -0.00000000000E+00 -0.33621112536E+02  0.33621112536E+02  0.00000000000E+00 0. -1.
         25    2    1    2    0    0 -0.14419453369E+02 -0.67248546301E+01  0.51411609595E+03  0.52933316210E+03  0.12500036832E+03 0.  0.
          5    1    3    3  501    0 -0.13921081897E+02  0.56204533156E+02  0.17221550990E+03  0.18168912438E+03  0.10000000000E+00 0.  1.
         -5    1    3    3    0  501 -0.49837147159E+00 -0.62929387786E+02  0.34190058605E+03  0.34764403772E+03  0.10000000000E+00 0.  1.
          4    1    1    2  502    0  0.14419453369E+02  0.67248546301E+01 -0.23579676702E+02  0.28445482218E+02  0.00000000000E+00 0. -1.
<mgrwt>
<rscale>  1 0.12600887E+03</rscale>
<asrwt>0</asrwt>
<pdfrwt beam="1">  1       21 0.80639614E-01 0.12600887E+03</pdfrwt>
<pdfrwt beam="2">  1        4 0.51724792E-02 0.12600887E+03</pdfrwt>
<totfact> 0.12528180E+04</totfact>
</mgrwt>
</event>
<event>
 6    2  0.1674964E-002  0.1260635E+03  0.7546771E-02  0.1233417E+00
          2   -1    0    0  503    0 -0.00000000000E+00  0.00000000000E+00  0.64706248371E+03  0.64706248371E+03  0.00000000000E+00 0. -1.
         21   -1    0    0  502  503  0.00000000000E+00 -0.00000000000E+00 -0.12453804796E+02  0.12453804796E+02  0.00000000000E+00 0.  1.
         25    2    1    2    0    0  0.11784106209E+02 -0.11255711877E+02  0.31212973740E+03  0.33662586757E+03  0.12500578204E+03 0.  0.
          5    1    3    3  501    0 -0.34045345360E+02  0.34261350302E+02  0.63729226011E+02  0.79964679160E+02  0.10000000000E+00 0.  1.
         -5    1    3    3    0  501  0.45829451570E+02 -0.45517062178E+02  0.24840051138E+03  0.25666118841E+03  0.10000000000E+00 0.  1.
          2    1    1    2  502    0 -0.11784106209E+02  0.11255711877E+02  0.32247894152E+03  0.32289042094E+03  0.00000000000E+00 0. -1.
<mgrwt>
<rscale>  1 0.12606348E+03</rscale>
<asrwt>0</asrwt>
<pdfrwt beam="1">  1       21 0.19159705E-02 0.12606348E+03</pdfrwt>
<pdfrwt beam="2">  1        2 0.99548048E-01 0.12606348E+03</pdfrwt>
<totfact> 0.74711228E+05</totfact>
</mgrwt>
</event>
<event>
 6    2  0.1674964E-002  0.1426349E+03  0.7546771E-02  0.1209827E+00
         21   -1    0    0  502  503  0.00000000000E+00  0.00000000000E+00  0.12481296758E+02  0.12481296758E+02  0.00000000000E+00 0.  1.
          2   -1    0    0  503    0 -0.00000000000E+00 -0.00000000000E+00 -0.96486607240E+03  0.96486607240E+03  0.00000000000E+00 0.  1.
         25    2    1    2    0    0  0.50282028664E+02  0.46834706795E+02 -0.75469906076E+03  0.76805949556E+03  0.12499177669E+03 0.  0.
          5    1    3    3  501    0  0.81486634484E+02  0.53903023500E+02 -0.67726133619E+03  0.68427226675E+03  0.10000000000E+00 0. -1.
         -5    1    3    3    0  501 -0.31204605820E+02 -0.70683167049E+01 -0.77437724568E+02  0.83787228810E+02  0.10000000000E+00 0. -1.
          2    1    1    2  502    0 -0.50282028664E+02 -0.46834706795E+02 -0.19768571488E+03  0.20928787359E+03  0.00000000000E+00 0.  1.
<mgrwt>
<rscale>  1 0.14263491E+03</rscale>
<asrwt>0</asrwt>
<pdfrwt beam="1">  1       21 0.19201992E-02 0.14263491E+03</pdfrwt>
<pdfrwt beam="2">  1        2 0.14844096E+00 0.14263491E+03</pdfrwt>
<totfact> 0.45628691E+05</totfact>
</mgrwt>
</event>
<event>
 6    2  0.1674964E-002  0.1798554E+03  0.7546771E-02  0.1167943E+00
          2   -1    0    0  503    0 -0.00000000000E+00  0.00000000000E+00  0.25466102064E+03  0.25466102064E+03  0.00000000000E+00 0. -1.
         21   -1    0    0  502  503  0.00000000000E+00 -0.00000000000E+00 -0.16081551110E+03  0.16081551110E+03  0.00000000000E+00 0. -1.
         25    2    1    2    0    0  0.94849829596E+02  0.87884125124E+02 -0.81623012891E+02  0.19751022245E+03  0.12501144794E+03 0.  0.
          5    1    3    3  501    0  0.36374903859E+02 -0.48263487847E+01  0.25153958445E+02  0.44487738746E+02  0.10000000000E+00 0.  1.
         -5    1    3    3    0  501  0.58474925737E+02  0.92710473909E+02 -0.10677697134E+03  0.15302248371E+03  0.10000000000E+00 0.  1.
          2    1    1    2  502    0 -0.94849829596E+02 -0.87884125124E+02  0.17546852243E+03  0.21796630929E+03  0.00000000000E+00 0. -1.
<mgrwt>
<rscale>  1 0.17985542E+03</rscale>
<asrwt>0</asrwt>
<pdfrwt beam="1">  1       21 0.24740848E-01 0.17985542E+03</pdfrwt>
<pdfrwt beam="2">  1        2 0.39178618E-01 0.17985542E+03</pdfrwt>
<totfact> 0.25005197E+04</totfact>
</mgrwt>
</event>
<event>
 6    2  0.1674964E-002  0.1339887E+03  0.7546771E-02  0.1221654E+00
         21   -1    0    0  502  503  0.00000000000E+00  0.00000000000E+00  0.35065060122E+03  0.35065060122E+03  0.00000000000E+00 0. -1.
          2   -1    0    0  503    0 -0.00000000000E+00 -0.00000000000E+00 -0.24161596202E+02  0.24161596202E+02  0.00000000000E+00 0. -1.
         25    2    1    2    0    0 -0.33376401935E+02  0.34851265081E+02  0.21508202490E+03  0.25340334230E+03  0.12499752625E+03 0.  0.
          5    1    3    3  501    0 -0.32522771396E+02  0.33500756587E+02  0.23187755733E+03  0.23653169543E+03  0.10000000000E+00 0.  1.
         -5    1    3    3    0  501 -0.85363053857E+00  0.13505084944E+01 -0.16795532430E+02  0.16871646863E+02  0.10000000000E+00 0.  1.
          2    1    1    2  502    0  0.33376401935E+02 -0.34851265081E+02  0.11140698012E+03  0.12140885513E+03  0.00000000000E+00 0. -1.
<mgrwt>
<rscale>  1 0.13398872E+03</rscale>
<asrwt>0</asrwt>
<pdfrwt beam="1">  1       21 0.53946243E-01 0.13398872E+03</pdfrwt>
<pdfrwt beam="2">  1        2 0.37171689E-02 0.13398872E+03</pdfrwt>
<totfact> 0.89845501E+04</totfact>
</mgrwt>
</event>
<event>
 6    2  0.1674964E-002  0.1273620E+03  0.7546771E-02  0.1231423E+00
          2   -1    0    0  503    0 -0.00000000000E+00  0.00000000000E+00  0.92588204490E+02  0.92588204490E+02  0.00000000000E+00 0. -1.
         21   -1    0    0  502  503  0.00000000000E+00 -0.00000000000E+00 -0.10751197518E+03  0.10751197518E+03  0.00000000000E+00 0. -1.
         25    2    1    2    0    0  0.87148771021E+01 -0.22972820760E+02 -0.65981117769E+02  0.14343844420E+03  0.12496951547E+03 0.  0.
          5    1    3    3  501    0 -0.17774547446E+02 -0.22452307365E+02  0.31411877967E+02  0.42505960997E+02  0.10000000000E+00 0. -1.
         -5    1    3    3    0  501  0.26489424548E+02 -0.52051339515E+00 -0.97392995736E+02  0.10093248320E+03  0.10000000000E+00 0. -1.
          2    1    1    2  502    0 -0.87148771021E+01  0.22972820760E+02  0.51057347075E+02  0.56661735474E+02  0.00000000000E+00 0. -1.
<mgrwt>
<rscale>  1 0.12736200E+03</rscale>
<asrwt>0</asrwt>
<pdfrwt beam="1">  1       21 0.16540304E-01 0.12736200E+03</pdfrwt>
<pdfrwt beam="2">  1        2 0.14244339E-01 0.12736200E+03</pdfrwt>
<totfact> 0.16262301E+05</totfact>
</mgrwt>
</event>
<event>
 6    2  0.1674964E-002  0.1514211E+03  0.7546771E-02  0.1198738E+00
         21   -1    0    0  502  503  0.00000000000E+00  0.00000000000E+00  0.87843459415E+02  0.87843459415E+02  0.00000000000E+00 0. -1.
          2   -1    0    0  503    0 -0.00000000000E+00 -0.00000000000E+00 -0.87240569140E+03  0.87240569140E+03  0.00000000000E+00 0. -1.
         25    2    1    2    0    0 -0.41733419854E+01 -0.85354875147E+02  0.18594756490E+02  0.15255860387E+03  0.12500196459E+03 0.  0.
          5    1    3    3  501    0  0.11864259436E+02 -0.84845378184E+02  0.62347540663E+02  0.10595623945E+03  0.10000000000E+00 0.  1.
         -5    1    3    3    0  501 -0.16037601421E+02 -0.50949696224E+00 -0.43752784173E+02  0.46602364419E+02  0.10000000000E+00 0.  1.
          2    1    1    2  502    0  0.41733419854E+01  0.85354875147E+02 -0.80315698847E+03  0.80769054694E+03  0.00000000000E+00 0. -1.
<mgrwt>
<rscale>  1 0.15142114E+03</rscale>
<asrwt>0</asrwt>
<pdfrwt beam="1">  1       21 0.13514378E-01 0.15142114E+03</pdfrwt>
<pdfrwt beam="2">  1        2 0.13421626E+00 0.15142114E+03</pdfrwt>
<totfact> 0.19191517E+04</totfact>
</mgrwt>
</event>
<event>
 6    2  0.1674964E-002  0.1307939E+03  0.7546771E-02  0.1226283E+00
         21   -1    0    0  502  503  0.00000000000E+00  0.00000000000E+00  0.18852635732E+03  0.18852635732E+03  0.00000000000E+00 0. -1.
          3   -1    0    0  503    0 -0.00000000000E+00 -0.00000000000E+00 -0.74159012721E+02  0.74159012721E+02  0.00000000000E+00 0. -1.
         25    2    1    2    0    0 -0.19401279255E+02 -0.33292341657E+02  0.15757930731E+03  0.20478836346E+03  0.12498898378E+03 0.  0.
          5    1    3    3  501    0  0.40416501047E+02  0.22958011426E+02  0.75683964632E+02  0.88817995632E+02  0.10000000000E+00 0.  1.
         -5    1    3    3    0  501 -0.59817780302E+02 -0.56250353083E+02  0.81895342682E+02  0.11597036783E+03  0.10000000000E+00 0.  1.
          3    1    1    2  502    0  0.19401279255E+02  0.33292341657E+02 -0.43211962711E+02  0.57897006581E+02  0.00000000000E+00 0. -1.
<mgrwt>
<rscale>  1 0.13079387E+03</rscale>
<asrwt>0</asrwt>
<pdfrwt beam="1">  1       21 0.29004055E-01 0.13079387E+03</pdfrwt>
<pdfrwt beam="2">  1        3 0.11409079E-01 0.13079387E+03</pdfrwt>
<totfact> 0.32262248E+04</totfact>
</mgrwt>
</event>
<event>
 6    2  0.1674964E-002  0.1290451E+03  0.7546771E-02  0.1228880E+00
         21   -1    0    0  502  503  0.00000000000E+00  0.00000000000E+00  0.33845834046E+03  0.33845834046E+03  0.00000000000E+00 0.  1.
          2   -1    0    0  503    0 -0.00000000000E+00 -0.00000000000E+00 -0.38384551724E+02  0.38384551724E+02  0.00000000000E+00 0.  1.
         25    2    1    2    0    0 -0.98662869286E+01  0.30490665626E+02  0.31579748716E+03  0.34114612762E+03  0.12500241271E+03 0.  0.
          5    1    3    3  501    0  0.13045123821E+02  0.45662057210E+02  0.34965280314E+02  0.58972701749E+02  0.10000000000E+00 0.  1.
         -5    1    3    3    0  501 -0.22911410749E+02 -0.15171391584E+02  0.28083220684E+03  0.28217342587E+03  0.10000000000E+00 0.  1.
          2    1    1    2  502    0  0.98662869286E+01 -0.30490665626E+02 -0.15723698426E+02  0.35696764563E+02  0.00000000000E+00 0.  1.
<mgrwt>
<rscale>  1 0.12904506E+03</rscale>
<asrwt>0</asrwt>
<pdfrwt beam="1">  1       21 0.52070512E-01 0.12904506E+03</pdfrwt>
<pdfrwt beam="2">  1        2 0.59053159E-02 0.12904506E+03</pdfrwt>
<totfact> 0.52694113E+04</totfact>
</mgrwt>
</event>
<event>
 6    2  0.1674964E-002  0.2218418E+03  0.7546771E-02  0.1132517E+00
         21   -1    0    0  502  503  0.00000000000E+00  0.00000000000E+00  0.13968708605E+03  0.13968708605E+03  0.00000000000E+00 0. -1.
          3   -1    0    0  503    0 -0.00000000000E+00 -0.00000000000E+00 -0.42646499867E+03  0.42646499867E+03  0.00000000000E+00 0. -1.
         25    2    1    2    0    0 -0.16890774454E+03 -0.71123263147E+02 -0.31022887436E+03  0.38138657838E+03  0.12500169183E+03 0.  0.
          5    1    3    3  501    0 -0.15371876279E+03 -0.14184418951E+02 -0.17197654418E+03  0.23109867486E+03  0.10000000000E+00 0. -1.
         -5    1    3    3    0  501 -0.15188981749E+02 -0.56938844195E+02 -0.13825233018E+03  0.15028790352E+03  0.10000000000E+00 0. -1.
          3    1    1    2  502    0  0.16890774454E+03  0.71123263147E+02  0.23450961740E+02  0.18476550634E+03  0.00000000000E+00 0. -1.
<mgrwt>
<rscale>  1 0.22184176E+03</rscale>
<asrwt>0</asrwt>
<pdfrwt beam="1">  1       21 0.21490321E-01 0.22184176E+03</pdfrwt>
<pdfrwt beam="2">  1        3 0.65609998E-01 0.22184176E+03</pdfrwt>
<totfact> 0.22762392E+03</totfact>
</mgrwt>
</event>
<event>
 6    2  0.1674964E-002  0.1259305E+03  0.7546771E-02  0.1233622E+00
          2   -1    0    0  503    0 -0.00000000000E+00  0.00000000000E+00  0.11686583469E+04  0.11686583469E+04  0.00000000000E+00 0.  1.
         21   -1    0    0  502  503  0.00000000000E+00 -0.00000000000E+00 -0.35648748210E+02  0.35648748210E+02  0.00000000000E+00 0.  1.
         25    2    1    2    0    0  0.89602556472E+01 -0.12556672715E+02  0.75796855996E+02  0.14698181899E+03  0.12498214082E+03 0.  0.
          5    1    3    3  501    0 -0.52247792420E+02 -0.10391002042E+01  0.47096432554E+01  0.52470013165E+02  0.10000000000E+00 0.  1.
         -5    1    3    3    0  501  0.61208048067E+02 -0.11517572510E+02  0.71087212741E+02  0.94511805823E+02  0.10000000000E+00 0.  1.
          2    1    1    2  502    0 -0.89602556472E+01  0.12556672715E+02  0.10572127427E+04  0.10573252761E+04  0.00000000000E+00 0.  1.
<mgrwt>
<rscale>  1 0.12593050E+03</rscale>
<asrwt>0</asrwt>
<pdfrwt beam="1">  1       21 0.54844237E-02 0.12593050E+03</pdfrwt>
<pdfrwt beam="2">  1        2 0.17979356E+00 0.12593050E+03</pdfrwt>
<totfact> 0.61453281E+04</totfact>
</mgrwt>
</event>
<event>
 6    2  0.1674964E-002  0.1556709E+03  0.7546771E-02  0.1193673E+00
          2   -1    0    0  503    0 -0.00000000000E+00  0.00000000000E+00  0.44901790440E+02  0.44901790440E+02  0.00000000000E+00 0.  1.
         21   -1    0    0  502  503  0.00000000000E+00 -0.00000000000E+00 -0.57584640483E+03  0.57584640483E+03  0.00000000000E+00 0.  1.
         25    2    1    2    0    0  0.24271149391E+01  0.92760814237E+02 -0.11231692122E+03  0.19195966344E+03  0.12499184793E+03 0.  0.
          5    1    3    3  501    0  0.59153696951E+02  0.22935049513E+02 -0.62795852544E+02  0.89266485625E+02  0.10000000000E+00 0. -1.
         -5    1    3    3    0  501 -0.56726582012E+02  0.69825764725E+02 -0.49521068680E+02  0.10269317781E+03  0.10000000000E+00 0. -1.
          2    1    1    2  502    0 -0.24271149391E+01 -0.92760814237E+02 -0.41862769317E+03  0.42878853183E+03  0.00000000000E+00 0.  1.
<mgrwt>
<rscale>  1 0.15567088E+03</rscale>
<asrwt>0</asrwt>
<pdfrwt beam="1">  1       21 0.88591758E-01 0.15567088E+03</pdfrwt>
<pdfrwt beam="2">  1        2 0.69079675E-02 0.15567088E+03</pdfrwt>
<totfact> 0.13550719E+04</totfact>
</mgrwt>
</event>
<event>
 6    2  0.1674964E-002  0.1347824E+03  0.7546771E-02  0.1220527E+00
          2   -1    0    0  503    0 -0.00000000000E+00  0.00000000000E+00  0.28186538663E+03  0.28186538663E+03  0.00000000000E+00 0. -1.
         21   -1    0    0  502  503  0.00000000000E+00 -0.00000000000E+00 -0.81333577922E+02  0.81333577922E+02  0.00000000000E+00 0.  1.
         25    2    1    2    0    0  0.22394101841E+02  0.45168302896E+02 -0.20640348761E+02  0.13635365465E+03  0.12499849502E+03 0.  0.
          5    1    3    3  501    0  0.54908559238E+02 -0.63131313962E+01 -0.44498035353E+02  0.70956963407E+02  0.10000000000E+00 0.  1.
         -5    1    3    3    0  501 -0.32514457396E+02  0.51481434292E+02  0.23857686592E+02  0.65396691247E+02  0.10000000000E+00 0.  1.
          2    1    1    2  502    0 -0.22394101841E+02 -0.45168302896E+02  0.22117215747E+03  0.22684530990E+03  0.00000000000E+00 0. -1.
<mgrwt>
<rscale>  1 0.13478240E+03</rscale>
<asrwt>0</asrwt>
<pdfrwt beam="1">  1       21 0.12512858E-01 0.13478240E+03</pdfrwt>
<pdfrwt beam="2">  1        2 0.43363905E-01 0.13478240E+03</pdfrwt>
<totfact> 0.78439737E+04</totfact>
</mgrwt>
</event>
<event>
 6    2  0.1674964E-002  0.1334320E+03  0.7546771E-02  0.1222450E+00
          2   -1    0    0  503    0 -0.00000000000E+00  0.00000000000E+00  0.46229722301E+03  0.46229722301E+03  0.00000000000E+00 0. -1.
         21   -1    0    0  502  503  0.00000000000E+00 -0.00000000000E+00 -0.25226087347E+02  0.25226087347E+02  0.00000000000E+00 0. -1.
         25    2    1    2    0    0 -0.45543736833E+02  0.10238567564E+02  0.16853873803E+03  0.21496375942E+03  0.12500020566E+03 0.  0.
          5    1    3    3  501    0 -0.37718763526E+02  0.65574107660E+02  0.78710121151E+02  0.10916941829E+03  0.10000000000E+00 0. -1.
         -5    1    3    3    0  501 -0.78249733077E+01 -0.55335540096E+02  0.89828616879E+02  0.10579434113E+03  0.10000000000E+00 0. -1.
          2    1    1    2  502    0  0.45543736833E+02 -0.10238567564E+02  0.26853239763E+03  0.27255955094E+03  0.00000000000E+00 0. -1.
<mgrwt>
<rscale>  1 0.13343205E+03</rscale>
<asrwt>0</asrwt>
<pdfrwt beam="1">  1       21 0.38809369E-02 0.13343205E+03</pdfrwt>
<pdfrwt beam="2">  1        2 0.71122643E-01 0.13343205E+03</pdfrwt>
<totfact> 0.34433646E+05</totfact>
</mgrwt>
</event>
<event>
 6    2  0.1674964E-002  0.1359779E+03  0.7546771E-02  0.1218846E+00
          1   -1    0    0  503    0 -0.00000000000E+00  0.00000000000E+00  0.14118227142E+04  0.14118227142E+04  0.00000000000E+00 0. -1.
         21   -1    0    0  502  503  0.00000000000E+00 -0.00000000000E+00 -0.13687219507E+03  0.13687219507E+03  0.00000000000E+00 0.  1.
         25    2    1    2    0    0 -0.52615303686E+02 -0.98218693451E+01 -0.10245134088E+03  0.17025349839E+03  0.12500054867E+03 0.  0.
          5    1    3    3  501    0  0.28771420632E+02 -0.34097909028E+02 -0.61466628693E+02  0.75951421896E+02  0.10000000000E+00 0.  1.
         -5    1    3    3    0  501 -0.81386724318E+02  0.24276039683E+02 -0.40984712184E+02  0.94302076492E+02  0.10000000000E+00 0.  1.
          1    1    1    2  502    0  0.52615303686E+02  0.98218693451E+01  0.13774018600E+04  0.13784414109E+04  0.00000000000E+00 0. -1.
<mgrwt>
<rscale>  1 0.13597785E+03</rscale>
<asrwt>0</asrwt>
<pdfrwt beam="1">  1       21 0.21057262E-01 0.13597785E+03</pdfrwt>
<pdfrwt beam="2">  1        1 0.21720348E+00 0.13597785E+03</pdfrwt>
<totfact> 0.20157721E+03</totfact>
</mgrwt>
</event>
<event>
 6    2  0.1674964E-002  0.1262536E+03  0.7546771E-02  0.1233123E+00
         21   -1    0    0  502  503  0.00000000000E+00  0.00000000000E+00  0.60290954967E+02  0.60290954967E+02  0.00000000000E+00 0. -1.
          1   -1    0    0  503    0 -0.00000000000E+00 -0.00000000000E+00 -0.88651217239E+03  0.88651217239E+03  0.00000000000E+00 0. -1.
         25    2    1    2    0    0  0.15870746582E+02  0.80253185193E+01 -0.60073556160E+01  0.12639648097E+03  0.12499478287E+03 0.  0.
          5    1    3    3  501    0 -0.20289361918E+02 -0.17760137963E+02 -0.54398157450E+02  0.60714497787E+02  0.10000000000E+00 0.  1.
         -5    1    3    3    0  501  0.36160108500E+02  0.25785456482E+02  0.48390801834E+02  0.65681983183E+02  0.10000000000E+00 0.  1.
          1    1    1    2  502    0 -0.15870746582E+02 -0.80253185193E+01 -0.82021386181E+03  0.82040664639E+03  0.00000000000E+00 0. -1.
<mgrwt>
<rscale>  1 0.12625364E+03</rscale>
<asrwt>0</asrwt>
<pdfrwt beam="1">  1       21 0.92755319E-02 0.12625364E+03</pdfrwt>
<pdfrwt beam="2">  1        1 0.13638648E+00 0.12625364E+03</pdfrwt>
<totfact> 0.20564243E+04</totfact>
</mgrwt>
</event>
<event>
 6    2  0.1674964E-002  0.1293173E+03  0.7546771E-02  0.1228472E+00
         21   -1    0    0  502  503  0.00000000000E+00  0.00000000000E+00  0.17112093813E+02  0.17112093813E+02  0.00000000000E+00 0. -1.
          1   -1    0    0  503    0 -0.00000000000E+00 -0.00000000000E+00 -0.11407778620E+04  0.11407778620E+04  0.00000000000E+00 0. -1.
         25    2    1    2    0    0  0.32492722154E+02  0.64327948234E+01 -0.23198110773E+03  0.26559029116E+03  0.12500324225E+03 0.  0.
          5    1    3    3  501    0  0.18048341834E+02  0.45579558319E+02 -0.26128681566E+02  0.55551388640E+02  0.10000000000E+00 0.  1.
         -5    1    3    3    0  501  0.14444380321E+02 -0.39146763496E+02 -0.20585242617E+03  0.21003890252E+03  0.10000000000E+00 0.  1.
          1    1    1    2  502    0 -0.32492722154E+02 -0.64327948234E+01 -0.89168466045E+03  0.89229966464E+03  0.00000000000E+00 0. -1.
<mgrwt>
<rscale>  1 0.12931732E+03</rscale>
<asrwt>0</asrwt>
<pdfrwt beam="1">  1       21 0.26326301E-02 0.12931732E+03</pdfrwt>
<pdfrwt beam="2">  1        1 0.17550427E+00 0.12931732E+03</pdfrwt>
<totfact> 0.11143460E+05</totfact>
</mgrwt>
</event>
<event>
 6    2  0.1674964E-002  0.1265815E+03  0.7546771E-02  0.1232618E+00
          1   -1    0    0  503    0 -0.00000000000E+00  0.00000000000E+00  0.32956040639E+03  0.32956040639E+03  0.00000000000E+00 0. -1.
         21   -1    0    0  502  503  0.00000000000E+00 -0.00000000000E+00 -0.17024499852E+02  0.17024499852E+02  0.00000000000E+00 0. -1.
         25    2    1    2    0    0  0.21397353614E+01 -0.19838514869E+02  0.23975925372E+03  0.27112242328E+03  0.12499889408E+03 0.  0.
          5    1    3    3  501    0 -0.53577758822E+02  0.18627446034E+02  0.13445245633E+03  0.14592817069E+03  0.10000000000E+00 0.  1.
         -5    1    3    3    0  501  0.55717494183E+02 -0.38465960903E+02  0.10530679739E+03  0.12519425259E+03  0.10000000000E+00 0.  1.
          1    1    1    2  502    0 -0.21397353614E+01  0.19838514869E+02  0.72776652812E+02  0.75462482958E+02  0.00000000000E+00 0. -1.
<mgrwt>
<rscale>  1 0.12658147E+03</rscale>
<asrwt>0</asrwt>
<pdfrwt beam="1">  1       21 0.26191541E-02 0.12658147E+03</pdfrwt>
<pdfrwt beam="2">  1        1 0.50701596E-01 0.12658147E+03</pdfrwt>
<totfact> 0.65450939E+05</totfact>
</mgrwt>
</event>
<event>
 6    2  0.1674964E-002  0.1680608E+03  0.7546771E-02  0.1179885E+00
          2   -1    0    0  503    0 -0.00000000000E+00  0.00000000000E+00  0.16068037032E+04  0.16068037032E+04  0.00000000000E+00 0.  1.
         21   -1    0    0  502  503  0.00000000000E+00 -0.00000000000E+00 -0.12366516782E+02  0.12366516782E+02  0.00000000000E+00 0.  1.
         25    2    1    2    0    0 -0.99375442195E+02  0.52396367195E+02  0.87155680070E+03  0.88761235497E+03  0.12499431204E+03 0.  0.
          5    1    3    3  501    0 -0.10140948133E+02  0.70016891124E+02  0.50537402267E+03  0.51030198575E+03  0.10000000000E+00 0. -1.
         -5    1    3    3    0  501 -0.89234494062E+02 -0.17620523929E+02  0.36618277804E+03  0.37731036922E+03  0.10000000000E+00 0. -1.
          2    1    1    2  502    0  0.99375442195E+02 -0.52396367195E+02  0.72288038567E+03  0.73155786497E+03  0.00000000000E+00 0.  1.
<mgrwt>
<rscale>  1 0.16806081E+03</rscale>
<asrwt>0</asrwt>
<pdfrwt beam="1">  1       21 0.19025423E-02 0.16806081E+03</pdfrwt>
<pdfrwt beam="2">  1        2 0.24720040E+00 0.16806081E+03</pdfrwt>
<totfact> 0.20595283E+05</totfact>
</mgrwt>
</event>
<event>
 6    2  0.1674964E-002  0.2046097E+03  0.7546771E-02  0.1145907E+00
         21   -1    0    0  502  503  0.00000000000E+00  0.00000000000E+00  0.67117061941E+02  0.67117061941E+02  0.00000000000E+00 0.  1.
          1   -1    0    0  503    0 -0.00000000000E+00 -0.00000000000E+00 -0.56385186153E+03  0.56385186153E+03  0.00000000000E+00 0.  1.
         25    2    1    2    0    0  0.74499144280E+02 -0.14383832381E+03 -0.16896748612E+03  0.26535847822E+03  0.12500209880E+03 0.  0.
          5    1    3    3  501    0 -0.33971211599E+02 -0.41324225811E+02 -0.29506853589E+02  0.61093365147E+02  0.10000000000E+00 0.  1.
         -5    1    3    3    0  501  0.10847035588E+03 -0.10251409800E+03 -0.13946063253E+03  0.20426511308E+03  0.10000000000E+00 0.  1.
          1    1    1    2  502    0 -0.74499144280E+02  0.14383832381E+03 -0.32776731347E+03  0.36561044525E+03  0.00000000000E+00 0.  1.
<mgrwt>
<rscale>  1 0.20460965E+03</rscale>
<asrwt>0</asrwt>
<pdfrwt beam="1">  1       21 0.10325702E-01 0.20460965E+03</pdfrwt>
<pdfrwt beam="2">  1        1 0.86746437E-01 0.20460965E+03</pdfrwt>
<totfact> 0.32541382E+04</totfact>
</mgrwt>
</event>
<event>
 6    2  0.1674964E-002  0.1909216E+03  0.7546771E-02  0.1157633E+00
         21   -1    0    0  502  503  0.00000000000E+00  0.00000000000E+00  0.16271622791E+03  0.16271622791E+03  0.00000000000E+00 0. -1.
          1   -1    0    0  503    0 -0.00000000000E+00 -0.00000000000E+00 -0.17273917511E+03  0.17273917511E+03  0.00000000000E+00 0. -1.
         25    2    1    2    0    0  0.13618099446E+03  0.47767810997E+02 -0.23552546331E+01  0.19093612912E+03  0.12499612457E+03 0.  0.
          5    1    3    3  501    0  0.22371285735E+01  0.51610241795E+02 -0.20769720906E+02  0.55677761350E+02  0.10000000000E+00 0. -1.
         -5    1    3    3    0  501  0.13394386588E+03 -0.38424307977E+01  0.18414466273E+02  0.13525836777E+03  0.10000000000E+00 0. -1.
          1    1    1    2  502    0 -0.13618099446E+03 -0.47767810997E+02 -0.76676925698E+01  0.14451927390E+03  0.00000000000E+00 0. -1.
<mgrwt>
<rscale>  1 0.19092160E+03</rscale>
<asrwt>0</asrwt>
<pdfrwt beam="1">  1       21 0.25033266E-01 0.19092160E+03</pdfrwt>
<pdfrwt beam="2">  1        1 0.26575258E-01 0.19092160E+03</pdfrwt>
<totfact> 0.28905149E+04</totfact>
</mgrwt>
</event>
<event>
 6    2  0.1674964E-002  0.1595318E+03  0.7546771E-02  0.1189226E+00
         21   -1    0    0  502  503  0.00000000000E+00  0.00000000000E+00  0.58335616336E+02  0.58335616336E+02  0.00000000000E+00 0. -1.
          2   -1    0    0  503    0 -0.00000000000E+00 -0.00000000000E+00 -0.28786212237E+03  0.28786212237E+03  0.00000000000E+00 0. -1.
         25    2    1    2    0    0  0.98983182705E+02  0.52339180805E+01 -0.13080848090E+03  0.20630380445E+03  0.12500134678E+03 0.  0.
          5    1    3    3  501    0  0.42373950170E+02  0.31662595276E+02 -0.13367791094E+03  0.14376322710E+03  0.10000000000E+00 0.  1.
         -5    1    3    3    0  501  0.56609232535E+02 -0.26428677196E+02  0.28694300368E+01  0.62540577350E+02  0.10000000000E+00 0.  1.
          2    1    1    2  502    0 -0.98983182705E+02 -0.52339180805E+01 -0.98718025138E+02  0.13989393426E+03  0.00000000000E+00 0. -1.
<mgrwt>
<rscale>  1 0.15953182E+03</rscale>
<asrwt>0</asrwt>
<pdfrwt beam="1">  1       21 0.89747101E-02 0.15953182E+03</pdfrwt>
<pdfrwt beam="2">  1        2 0.44286481E-01 0.15953182E+03</pdfrwt>
<totfact> 0.13846614E+05</totfact>
</mgrwt>
</event>
<event>
 6    2  0.1674964E-002  0.1301680E+03  0.7546771E-02  0.1227207E+00
          2   -1    0    0  503    0 -0.00000000000E+00  0.00000000000E+00  0.31103392775E+03  0.31103392775E+03  0.00000000000E+00 0. -1.
         21   -1    0    0  502  503  0.00000000000E+00 -0.00000000000E+00 -0.38694777735E+02  0.38694777735E+02  0.00000000000E+00 0. -1.
         25    2    1    2    0    0 -0.11104031480E+02 -0.34576815268E+02  0.77411890893E+02  0.15144735987E+03  0.12499938516E+03 0.  0.
          5    1    3    3  501    0 -0.47483784323E+02  0.29885807616E+02  0.31470688593E+02  0.64329507312E+02  0.10000000000E+00 0.  1.
         -5    1    3    3    0  501  0.36379752843E+02 -0.64462622884E+02  0.45941202301E+02  0.87117852561E+02  0.10000000000E+00 0.  1.
          2    1    1    2  502    0  0.11104031480E+02  0.34576815268E+02  0.19492725912E+03  0.19828134561E+03  0.00000000000E+00 0. -1.
<mgrwt>
<rscale>  1 0.13016798E+03</rscale>
<asrwt>0</asrwt>
<pdfrwt beam="1">  1       21 0.59530429E-02 0.13016798E+03</pdfrwt>
<pdfrwt beam="2">  1        2 0.47851372E-01 0.13016798E+03</pdfrwt>
<totfact> 0.25606218E+05</totfact>
</mgrwt>
</event>
<event>
 6    2  0.1674964E-002  0.1260319E+03  0.7546771E-02  0.1233465E+00
          1   -1    0    0  503    0 -0.00000000000E+00  0.00000000000E+00  0.13022931514E+03  0.13022931514E+03  0.00000000000E+00 0.  1.
         21   -1    0    0  502  503  0.00000000000E+00 -0.00000000000E+00 -0.13753789036E+04  0.13753789036E+04  0.00000000000E+00 0.  1.
         25    2    1    2    0    0 -0.75105465106E+01  0.14228239447E+02 -0.13719824416E+04  0.13777589960E+04  0.12500071930E+03 0.  0.
          5    1    3    3  501    0  0.38978863272E+01  0.39460750931E+02 -0.13004366218E+04  0.13010410299E+04  0.10000000000E+00 0.  1.
         -5    1    3    3    0  501 -0.11408432838E+02 -0.25232511485E+02 -0.71545819857E+02  0.76717966049E+02  0.10000000000E+00 0.  1.
          1    1    1    2  502    0  0.75105465106E+01 -0.14228239447E+02  0.12683285318E+03  0.12784922273E+03  0.00000000000E+00 0.  1.
<mgrwt>
<rscale>  1 0.12603186E+03</rscale>
<asrwt>0</asrwt>
<pdfrwt beam="1">  1       21 0.21159676E+00 0.12603186E+03</pdfrwt>
<pdfrwt beam="2">  1        1 0.20035279E-01 0.12603186E+03</pdfrwt>
<totfact> 0.33148066E+02</totfact>
</mgrwt>
</event>
<event>
 6    2  0.1674964E-002  0.1289016E+03  0.7546771E-02  0.1229095E+00
          2   -1    0    0  503    0 -0.00000000000E+00  0.00000000000E+00  0.35970483278E+03  0.35970483278E+03  0.00000000000E+00 0.  1.
         21   -1    0    0  502  503  0.00000000000E+00 -0.00000000000E+00 -0.19711309434E+02  0.19711309434E+02  0.00000000000E+00 0.  1.
         25    2    1    2    0    0  0.13549203757E+02  0.28477223787E+02  0.21657725073E+03  0.25203439492E+03  0.12498438899E+03 0.  0.
          5    1    3    3  501    0  0.22066774164E+02  0.70946731136E+02  0.18209509380E+03  0.19666981052E+03  0.10000000000E+00 0. -1.
         -5    1    3    3    0  501 -0.85175704064E+01 -0.42469507349E+02  0.34482156929E+02  0.55364584407E+02  0.10000000000E+00 0. -1.
          2    1    1    2  502    0 -0.13549203757E+02 -0.28477223787E+02  0.12341627261E+03  0.12738174729E+03  0.00000000000E+00 0.  1.
<mgrwt>
<rscale>  1 0.12890163E+03</rscale>
<asrwt>0</asrwt>
<pdfrwt beam="1">  1       21 0.30325094E-02 0.12890163E+03</pdfrwt>
<pdfrwt beam="2">  1        2 0.55339200E-01 0.12890163E+03</pdfrwt>
<totfact> 0.67520590E+05</totfact>
</mgrwt>
</event>
<event>
 6    2  0.1674964E-002  0.1346987E+03  0.7546771E-02  0.1220646E+00
         21   -1    0    0  502  503  0.00000000000E+00  0.00000000000E+00  0.70334404772E+02  0.70334404772E+02  0.00000000000E+00 0.  1.
          1   -1    0    0  503    0 -0.00000000000E+00 -0.00000000000E+00 -0.10219922990E+04  0.10219922990E+04  0.00000000000E+00 0. -1.
         25    2    1    2    0    0 -0.26736759616E+02  0.42451090854E+02  0.45771570639E+01  0.13477648433E+03  0.12500720352E+03 0.  0.
          5    1    3    3  501    0 -0.48329625755E+02 -0.30872244147E+02 -0.57891435427E+01  0.57640024004E+02  0.10000000000E+00 0. -1.
         -5    1    3    3    0  501  0.21592866139E+02  0.73323335001E+02  0.10366300607E+02  0.77136460328E+02  0.10000000000E+00 0. -1.
          1    1    1    2  502    0  0.26736759616E+02 -0.42451090854E+02 -0.95623505125E+03  0.95755021939E+03  0.00000000000E+00 0. -1.
<mgrwt>
<rscale>  1 0.13469874E+03</rscale>
<asrwt>0</asrwt>
<pdfrwt beam="1">  1       21 0.10820678E-01 0.13469874E+03</pdfrwt>
<pdfrwt beam="2">  1        1 0.15722958E+00 0.13469874E+03</pdfrwt>
<totfact> 0.12415063E+04</totfact>
</mgrwt>
</event>
<event>
 6    2  0.1674964E-002  0.1499266E+03  0.7546771E-02  0.1200563E+00
         21   -1    0    0  502  503  0.00000000000E+00  0.00000000000E+00  0.14774312108E+02  0.14774312108E+02  0.00000000000E+00 0.  1.
          2   -1    0    0  503    0 -0.00000000000E+00 -0.00000000000E+00 -0.19830458461E+04  0.19830458461E+04  0.00000000000E+00 0.  1.
         25    2    1    2    0    0  0.82011808605E+02 -0.11205666274E+02 -0.39694729965E+03  0.42431726557E+03  0.12500591768E+03 0.  0.
          5    1    3    3  501    0 -0.15307390127E+02 -0.42446763434E+02 -0.87878410553E+02  0.98785975522E+02  0.10000000000E+00 0. -1.
         -5    1    3    3    0  501  0.97319198732E+02  0.31241097159E+02 -0.30906888910E+03  0.32553129005E+03  0.10000000000E+00 0. -1.
          2    1    1    2  502    0 -0.82011808605E+02  0.11205666274E+02 -0.15713242343E+04  0.15735028926E+04  0.00000000000E+00 0.  1.
<mgrwt>
<rscale>  1 0.14992659E+03</rscale>
<asrwt>0</asrwt>
<pdfrwt beam="1">  1       21 0.22729717E-02 0.14992659E+03</pdfrwt>
<pdfrwt beam="2">  1        2 0.30508389E+00 0.14992659E+03</pdfrwt>
<totfact> 0.98844489E+04</totfact>
</mgrwt>
</event>
<event>
 6    2  0.1674964E-002  0.1272107E+03  0.7546771E-02  0.1231654E+00
         21   -1    0    0  502  503  0.00000000000E+00  0.00000000000E+00  0.47723001731E+02  0.47723001731E+02  0.00000000000E+00 0. -1.
          1   -1    0    0  503    0 -0.00000000000E+00 -0.00000000000E+00 -0.14805203647E+03  0.14805203647E+03  0.00000000000E+00 0. -1.
         25    2    1    2    0    0  0.21713269842E+02 -0.90738115030E+01 -0.43794490746E+02  0.13453816363E+03  0.12501503874E+03 0.  0.
          5    1    3    3  501    0 -0.47157540957E+02 -0.40964639769E+01 -0.45233236575E+02  0.65472668933E+02  0.10000000000E+00 0.  1.
         -5    1    3    3    0  501  0.68870810799E+02 -0.49773475261E+01  0.14387458288E+01  0.69065494700E+02  0.10000000000E+00 0.  1.
          1    1    1    2  502    0 -0.21713269842E+02  0.90738115030E+01 -0.56534543996E+02  0.61236874572E+02  0.00000000000E+00 0. -1.
<mgrwt>
<rscale>  1 0.12721069E+03</rscale>
<asrwt>0</asrwt>
<pdfrwt beam="1">  1       21 0.73420004E-02 0.12721069E+03</pdfrwt>
<pdfrwt beam="2">  1        1 0.22777236E-01 0.12721069E+03</pdfrwt>
<totfact> 0.31615082E+05</totfact>
</mgrwt>
</event>
<event>
 6    2  0.1674964E-002  0.1268337E+03  0.7546771E-02  0.1232231E+00
         21   -1    0    0  502  503  0.00000000000E+00  0.00000000000E+00  0.23726660300E+02  0.23726660300E+02  0.00000000000E+00 0. -1.
          1   -1    0    0  503    0 -0.00000000000E+00 -0.00000000000E+00 -0.14812234377E+04  0.14812234377E+04  0.00000000000E+00 0. -1.
         25    2    1    2    0    0 -0.12745354386E+02  0.17305227329E+02 -0.14649417648E+03  0.19377134032E+03  0.12499949455E+03 0.  0.
          5    1    3    3  501    0 -0.77331515242E+01  0.67399377825E+02 -0.11748884371E+03  0.13566914226E+03  0.10000000000E+00 0. -1.
         -5    1    3    3    0  501 -0.50122028614E+01 -0.50094150496E+02 -0.29005332763E+02  0.58102198066E+02  0.10000000000E+00 0. -1.
          1    1    1    2  502    0  0.12745354386E+02 -0.17305227329E+02 -0.13110026009E+04  0.13111787576E+04  0.00000000000E+00 0. -1.
<mgrwt>
<rscale>  1 0.12683370E+03</rscale>
<asrwt>0</asrwt>
<pdfrwt beam="1">  1       21 0.36502554E-02 0.12683370E+03</pdfrwt>
<pdfrwt beam="2">  1        1 0.22788053E+00 0.12683370E+03</pdfrwt>
<totfact> 0.38619827E+04</totfact>
</mgrwt>
</event>
<event>
 6    2  0.1674964E-002  0.1267843E+03  0.7546771E-02  0.1232307E+00
          2   -1    0    0  503    0 -0.00000000000E+00  0.00000000000E+00  0.16116967834E+04  0.16116967834E+04  0.00000000000E+00 0. -1.
         21   -1    0    0  502  503  0.00000000000E+00 -0.00000000000E+00 -0.26508609595E+02  0.26508609595E+02  0.00000000000E+00 0.  1.
         25    2    1    2    0    0  0.10747876525E+02 -0.18266128713E+02  0.12560428585E+03  0.17846764453E+03  0.12500038085E+03 0.  0.
          5    1    3    3  501    0  0.37182551204E+00  0.44569187689E+02  0.88028286783E+01  0.45431822968E+02  0.10000000000E+00 0. -1.
         -5    1    3    3    0  501  0.10376051013E+02 -0.62835316402E+02  0.11680145717E+03  0.13303582157E+03  0.10000000000E+00 0. -1.
          2    1    1    2  502    0 -0.10747876525E+02  0.18266128713E+02  0.14595838880E+04  0.14597377485E+04  0.00000000000E+00 0. -1.
<mgrwt>
<rscale>  1 0.12678432E+03</rscale>
<asrwt>0</asrwt>
<pdfrwt beam="1">  1       21 0.40782489E-02 0.12678432E+03</pdfrwt>
<pdfrwt beam="2">  1        2 0.24795328E+00 0.12678432E+03</pdfrwt>
<totfact> 0.58753159E+04</totfact>
</mgrwt>
</event>
<event>
 6    2  0.1674964E-002  0.1771163E+03  0.7546771E-02  0.1170623E+00
          2   -1    0    0  503    0 -0.00000000000E+00  0.00000000000E+00  0.33020186934E+04  0.33020186934E+04  0.00000000000E+00 0.  1.
         21   -1    0    0  502  503  0.00000000000E+00 -0.00000000000E+00 -0.21236190804E+02  0.21236190804E+02  0.00000000000E+00 0.  1.
         25    2    1    2    0    0 -0.41923500284E+02  0.11826918500E+03  0.37456478036E+03  0.41432954500E+03  0.12500006873E+03 0.  0.
          5    1    3    3  501    0 -0.25644933324E+01 -0.12954536180E+02 -0.22376500037E+01  0.13394540352E+02  0.10000000000E+00 0. -1.
         -5    1    3    3    0  501 -0.39359006952E+02  0.13122372118E+03  0.37680243036E+03  0.40093500465E+03  0.10000000000E+00 0. -1.
          2    1    1    2  502    0  0.41923500284E+02 -0.11826918500E+03  0.29062177223E+04  0.29089253392E+04  0.00000000000E+00 0.  1.
<mgrwt>
<rscale>  1 0.17711634E+03</rscale>
<asrwt>0</asrwt>
<pdfrwt beam="1">  1       21 0.32671089E-02 0.17711634E+03</pdfrwt>
<pdfrwt beam="2">  1        2 0.50800247E+00 0.17711634E+03</pdfrwt>
<totfact> 0.99998262E+03</totfact>
</mgrwt>
</event>
<event>
 6    2  0.1674964E-002  0.1700416E+03  0.7546771E-02  0.1177804E+00
          1   -1    0    0  503    0 -0.00000000000E+00  0.00000000000E+00  0.14973108289E+04  0.14973108289E+04  0.00000000000E+00 0.  1.
         21   -1    0    0  502  503  0.00000000000E+00 -0.00000000000E+00 -0.38276817750E+02  0.38276817750E+02  0.00000000000E+00 0. -1.
         25    2    1    2    0    0 -0.10165484115E+03  0.54367835966E+02  0.16670639783E+03  0.23812850337E+03  0.12499837089E+03 0.  0.
          5    1    3    3  501    0 -0.97687094408E+02  0.56153935830E+01  0.16164515752E+03  0.18895361338E+03  0.10000000000E+00 0. -1.
         -5    1    3    3    0  501 -0.39677467377E+01  0.48752442383E+02  0.50612403061E+01  0.49174889994E+02  0.10000000000E+00 0. -1.
          1    1    1    2  502    0  0.10165484115E+03 -0.54367835966E+02  0.12923276133E+04  0.12974591433E+04  0.00000000000E+00 0.  1.
<mgrwt>
<rscale>  1 0.17004165E+03</rscale>
<asrwt>0</asrwt>
<pdfrwt beam="1">  1       21 0.58887423E-02 0.17004165E+03</pdfrwt>
<pdfrwt beam="2">  1        1 0.23035547E+00 0.17004165E+03</pdfrwt>
<totfact> 0.16724596E+04</totfact>
</mgrwt>
</event>
<event>
 6    2  0.1674964E-002  0.1346404E+03  0.7546771E-02  0.1220728E+00
         21   -1    0    0  502  503  0.00000000000E+00  0.00000000000E+00  0.99679377246E+02  0.99679377246E+02  0.00000000000E+00 0. -1.
          4   -1    0    0  503    0 -0.00000000000E+00 -0.00000000000E+00 -0.88843572975E+02  0.88843572975E+02  0.00000000000E+00 0. -1.
         25    2    1    2    0    0  0.18063262520E+02  0.46716555515E+02  0.23934890837E+02  0.13675129696E+03  0.12497727878E+03 0.  0.
          5    1    3    3  501    0  0.59026683271E+02 -0.98675327241E+01  0.29409626764E+02  0.66681734279E+02  0.10000000000E+00 0. -1.
         -5    1    3    3    0  501 -0.40963420751E+02  0.56584088239E+02 -0.54747359277E+01  0.70069562686E+02  0.10000000000E+00 0. -1.
          4    1    1    2  502    0 -0.18063262520E+02 -0.46716555515E+02 -0.13099086566E+02  0.51771653257E+02  0.00000000000E+00 0. -1.
<mgrwt>
<rscale>  1 0.13464040E+03</rscale>
<asrwt>0</asrwt>
<pdfrwt beam="1">  1       21 0.15335289E-01 0.13464040E+03</pdfrwt>
<pdfrwt beam="2">  1        4 0.13668242E-01 0.13464040E+03</pdfrwt>
<totfact> 0.67502960E+04</totfact>
</mgrwt>
</event>
<event>
 6    2  0.1674964E-002  0.1988912E+03  0.7546771E-02  0.1150678E+00
         21   -1    0    0  502  503  0.00000000000E+00  0.00000000000E+00  0.77820550689E+02  0.77820550689E+02  0.00000000000E+00 0. -1.
          1   -1    0    0  503    0 -0.00000000000E+00 -0.00000000000E+00 -0.45884143639E+03  0.45884143639E+03  0.00000000000E+00 0. -1.
         25    2    1    2    0    0 -0.15461229899E+03  0.46141271295E+01 -0.11724213950E+03  0.23087532923E+03  0.12502577817E+03 0.  0.
          5    1    3    3  501    0 -0.15252675013E+03  0.37742768293E+02 -0.11979217769E+03  0.19758315186E+03  0.10000000000E+00 0.  1.
         -5    1    3    3    0  501 -0.20855488575E+01 -0.33128641164E+02  0.25500381929E+01  0.33292177372E+02  0.10000000000E+00 0.  1.
          1    1    1    2  502    0  0.15461229899E+03 -0.46141271295E+01 -0.26377874620E+03  0.30578665784E+03  0.00000000000E+00 0. -1.
<mgrwt>
<rscale>  1 0.19889117E+03</rscale>
<asrwt>0</asrwt>
<pdfrwt beam="1">  1       21 0.11972393E-01 0.19889117E+03</pdfrwt>
<pdfrwt beam="2">  1        1 0.70590987E-01 0.19889117E+03</pdfrwt>
<totfact> 0.32889444E+04</totfact>
</mgrwt>
</event>
<event>
 6    2  0.1674964E-002  0.1373988E+03  0.7546771E-02  0.1216873E+00
          2   -1    0    0  503    0 -0.00000000000E+00  0.00000000000E+00  0.80810126155E+03  0.80810126155E+03  0.00000000000E+00 0.  1.
         21   -1    0    0  502  503  0.00000000000E+00 -0.00000000000E+00 -0.16426415044E+03  0.16426415044E+03  0.00000000000E+00 0.  1.
         25    2    1    2    0    0 -0.91687979966E+01 -0.56322708275E+02 -0.13430362561E+03  0.19213511236E+03  0.12498849237E+03 0.  0.
          5    1    3    3  501    0  0.32179216573E+02 -0.14440607087E+02 -0.12820246189E+03  0.13296583902E+03  0.10000000000E+00 0.  1.
         -5    1    3    3    0  501 -0.41348014570E+02 -0.41882101188E+02 -0.61011637222E+01  0.59169273340E+02  0.10000000000E+00 0.  1.
          2    1    1    2  502    0  0.91687979966E+01  0.56322708275E+02  0.77814073672E+03  0.78023029963E+03  0.00000000000E+00 0.  1.
<mgrwt>
<rscale>  1 0.13739883E+03</rscale>
<asrwt>0</asrwt>
<pdfrwt beam="1">  1       21 0.25271408E-01 0.13739883E+03</pdfrwt>
<pdfrwt beam="2">  1        2 0.12432327E+00 0.13739883E+03</pdfrwt>
<totfact> 0.67046788E+03</totfact>
</mgrwt>
</event>
<event>
 6    2  0.1674964E-002  0.1259807E+03  0.7546771E-02  0.1233544E+00
         21   -1    0    0  502  503  0.00000000000E+00  0.00000000000E+00  0.66021885645E+01  0.66021885645E+01  0.00000000000E+00 0. -1.
          2   -1    0    0  503    0 -0.00000000000E+00 -0.00000000000E+00 -0.76042507858E+03  0.76042507858E+03  0.00000000000E+00 0. -1.
         25    2    1    2    0    0 -0.53437726635E+01 -0.14770410085E+02 -0.67445156180E+03  0.68611664570E+03  0.12499768545E+03 0.  0.
          5    1    3    3  501    0  0.85452590737E+00  0.55051155570E+02 -0.33618948138E+03  0.34066807501E+03  0.10000000000E+00 0.  1.
         -5    1    3    3    0  501 -0.61982985709E+01 -0.69821565656E+02 -0.33826208042E+03  0.34544857068E+03  0.10000000000E+00 0.  1.
          2    1    1    2  502    0  0.53437726635E+01  0.14770410085E+02 -0.79371328218E+02  0.80910621451E+02  0.00000000000E+00 0. -1.
<mgrwt>
<rscale>  1 0.12598072E+03</rscale>
<asrwt>0</asrwt>
<pdfrwt beam="1">  1       21 0.10157213E-02 0.12598072E+03</pdfrwt>
<pdfrwt beam="2">  1        2 0.11698848E+00 0.12598072E+03</pdfrwt>
<totfact> 0.16949650E+06</totfact>
</mgrwt>
</event>
<event>
 6    2  0.1674964E-002  0.1635410E+03  0.7546771E-02  0.1184756E+00
          1   -1    0    0  503    0 -0.00000000000E+00  0.00000000000E+00  0.11259214044E+04  0.11259214044E+04  0.00000000000E+00 0.  1.
         21   -1    0    0  502  503  0.00000000000E+00 -0.00000000000E+00 -0.33995101614E+03  0.33995101614E+03  0.00000000000E+00 0. -1.
         25    2    1    2    0    0  0.36942678943E+02  0.98848538894E+02 -0.31761866391E+03  0.35724958510E+03  0.12493940622E+03 0.  0.
          5    1    3    3  501    0 -0.13909961078E+02  0.91846627538E+02 -0.27584789105E+03  0.29106933711E+03  0.10000000000E+00 0.  1.
         -5    1    3    3    0  501  0.50852640021E+02  0.70019113552E+01 -0.41770772856E+02  0.66180247995E+02  0.10000000000E+00 0.  1.
          1    1    1    2  502    0 -0.36942678943E+02 -0.98848538894E+02  0.11035890521E+04  0.11086228354E+04  0.00000000000E+00 0.  1.
<mgrwt>
<rscale>  1 0.16354097E+03</rscale>
<asrwt>0</asrwt>
<pdfrwt beam="1">  1       21 0.52300157E-01 0.16354097E+03</pdfrwt>
<pdfrwt beam="2">  1        1 0.17321868E+00 0.16354097E+03</pdfrwt>
<totfact> 0.51625655E+02</totfact>
</mgrwt>
</event>
<event>
 6    2  0.1674964E-002  0.1463246E+03  0.7546771E-02  0.1205063E+00
         21   -1    0    0  502  503  0.00000000000E+00  0.00000000000E+00  0.82010879736E+02  0.82010879736E+02  0.00000000000E+00 0. -1.
          2   -1    0    0  503    0 -0.00000000000E+00 -0.00000000000E+00 -0.92021112503E+03  0.92021112503E+03  0.00000000000E+00 0. -1.
         25    2    1    2    0    0 -0.58520601412E+02  0.48622058874E+02  0.13669141364E+02  0.14696168339E+03  0.12498850171E+03 0.  0.
          5    1    3    3  501    0  0.18807706890E+02 -0.12787722609E+02 -0.31109656866E+02  0.38536689509E+02  0.10000000000E+00 0.  1.
         -5    1    3    3    0  501 -0.77328308303E+02  0.61409781483E+02  0.44778798230E+02  0.10842499388E+03  0.10000000000E+00 0.  1.
          2    1    1    2  502    0  0.58520601412E+02 -0.48622058874E+02 -0.85186938666E+03  0.85526032138E+03  0.00000000000E+00 0. -1.
<mgrwt>
<rscale>  1 0.14632461E+03</rscale>
<asrwt>0</asrwt>
<pdfrwt beam="1">  1       21 0.12617058E-01 0.14632461E+03</pdfrwt>
<pdfrwt beam="2">  1        2 0.14157094E+00 0.14632461E+03</pdfrwt>
<totfact> 0.20258036E+04</totfact>
</mgrwt>
</event>
<event>
 6    2  0.1674964E-002  0.1333178E+03  0.7546771E-02  0.1222614E+00
         21   -1    0    0  502  503  0.00000000000E+00  0.00000000000E+00  0.84071702935E+02  0.84071702935E+02  0.00000000000E+00 0. -1.
          1   -1    0    0  503    0 -0.00000000000E+00 -0.00000000000E+00 -0.28895277153E+03  0.28895277153E+03  0.00000000000E+00 0. -1.
         25    2    1    2    0    0  0.20416296355E+02  0.41615880106E+02  0.27449923402E+02  0.13611437237E+03  0.12499966974E+03 0.  0.
          5    1    3    3  501    0  0.11604866499E+02 -0.27014362099E+02 -0.33025849829E+02  0.44217252775E+02  0.10000000000E+00 0.  1.
         -5    1    3    3    0  501  0.88114298555E+01  0.68630242205E+02  0.60475773231E+02  0.91897119591E+02  0.10000000000E+00 0.  1.
          1    1    1    2  502    0 -0.20416296355E+02 -0.41615880106E+02 -0.23233099199E+03  0.23691010209E+03  0.00000000000E+00 0. -1.
<mgrwt>
<rscale>  1 0.13331776E+03</rscale>
<asrwt>0</asrwt>
<pdfrwt beam="1">  1       21 0.12934108E-01 0.13331776E+03</pdfrwt>
<pdfrwt beam="2">  1        1 0.44454272E-01 0.13331776E+03</pdfrwt>
<totfact> 0.51320203E+04</totfact>
</mgrwt>
</event>
<event>
 6    2  0.1674964E-002  0.1658614E+03  0.7546771E-02  0.1182234E+00
         21   -1    0    0  502  503  0.00000000000E+00  0.00000000000E+00  0.89349928532E+03  0.89349928532E+03  0.00000000000E+00 0. -1.
          1   -1    0    0  503    0 -0.00000000000E+00 -0.00000000000E+00 -0.29226927736E+02  0.29226927736E+02  0.00000000000E+00 0. -1.
         25    2    1    2    0    0  0.38641485077E+02 -0.10193329240E+03  0.73567979132E+03  0.75414504991E+03  0.12500576180E+03 0.  0.
          5    1    3    3  501    0 -0.39809297416E+02 -0.71080336271E+02  0.37416534583E+03  0.38293199186E+03  0.10000000000E+00 0. -1.
         -5    1    3    3    0  501  0.78450782493E+02 -0.30852956129E+02  0.36151444548E+03  0.37121305805E+03  0.10000000000E+00 0. -1.
          1    1    1    2  502    0 -0.38641485077E+02  0.10193329240E+03  0.12859256627E+03  0.16858116315E+03  0.00000000000E+00 0. -1.
<mgrwt>
<rscale>  1 0.16586139E+03</rscale>
<asrwt>0</asrwt>
<pdfrwt beam="1">  1       21 0.13746141E+00 0.16586139E+03</pdfrwt>
<pdfrwt beam="2">  1        1 0.44964511E-02 0.16586139E+03</pdfrwt>
<totfact> 0.76626655E+03</totfact>
</mgrwt>
</event>
<event>
 6    2  0.1674964E-002  0.1367265E+03  0.7546771E-02  0.1217803E+00
         21   -1    0    0  502  503  0.00000000000E+00  0.00000000000E+00  0.68788739174E+01  0.68788739174E+01  0.00000000000E+00 0. -1.
          1   -1    0    0  503    0 -0.00000000000E+00 -0.00000000000E+00 -0.27856259587E+04  0.27856259587E+04  0.00000000000E+00 0. -1.
         25    2    1    2    0    0  0.49475472624E+02 -0.24947855521E+02 -0.71165565185E+03  0.72467089103E+03  0.12499566235E+03 0.  0.
          5    1    3    3  501    0 -0.70088358099E+01 -0.10150195400E+02 -0.18566938166E+01  0.12474275851E+02  0.10000000000E+00 0. -1.
         -5    1    3    3    0  501  0.56484308434E+02 -0.14797660121E+02 -0.70979895804E+03  0.71219661518E+03  0.10000000000E+00 0. -1.
          1    1    1    2  502    0 -0.49475472624E+02  0.24947855521E+02 -0.20670914329E+04  0.20678339415E+04  0.00000000000E+00 0. -1.
<mgrwt>
<rscale>  1 0.13672649E+03</rscale>
<asrwt>0</asrwt>
<pdfrwt beam="1">  1       21 0.10582889E-02 0.13672649E+03</pdfrwt>
<pdfrwt beam="2">  1        1 0.42855761E+00 0.13672649E+03</pdfrwt>
<totfact> 0.41074196E+04</totfact>
</mgrwt>
</event>
<event>
 6    2  0.1674964E-002  0.1397878E+03  0.7546771E-02  0.1213615E+00
          1   -1    0    0  503    0 -0.00000000000E+00  0.00000000000E+00  0.15326933165E+04  0.15326933165E+04  0.00000000000E+00 0. -1.
         21   -1    0    0  502  503  0.00000000000E+00 -0.00000000000E+00 -0.10100949440E+03  0.10100949440E+03  0.00000000000E+00 0.  1.
         25    2    1    2    0    0 -0.34864230799E+02 -0.51970501957E+02 -0.51668396157E+02  0.14903104546E+03  0.12499672670E+03 0.  0.
          5    1    3    3  501    0  0.54279215389E+01  0.32311300204E+02 -0.44606782343E+02  0.55346702558E+02  0.10000000000E+00 0. -1.
         -5    1    3    3    0  501 -0.40292152338E+02 -0.84281802161E+02 -0.70616138139E+01  0.93684342903E+02  0.10000000000E+00 0. -1.
          1    1    1    2  502    0  0.34864230799E+02  0.51970501957E+02  0.14833522183E+04  0.14846717654E+04  0.00000000000E+00 0. -1.
<mgrwt>
<rscale>  1 0.13978780E+03</rscale>
<asrwt>0</asrwt>
<pdfrwt beam="1">  1       21 0.15539923E-01 0.13978780E+03</pdfrwt>
<pdfrwt beam="2">  1        1 0.23579895E+00 0.13978780E+03</pdfrwt>
<totfact> 0.29299101E+03</totfact>
</mgrwt>
</event>
<event>
 6    2  0.1674964E-002  0.1359903E+03  0.7546771E-02  0.1218828E+00
          2   -1    0    0  503    0 -0.00000000000E+00  0.00000000000E+00  0.18027159357E+02  0.18027159357E+02  0.00000000000E+00 0. -1.
         21   -1    0    0  502  503  0.00000000000E+00 -0.00000000000E+00 -0.70619901010E+03  0.70619901010E+03  0.00000000000E+00 0. -1.
         25    2    1    2    0    0 -0.50882140817E+02 -0.16684273851E+02 -0.63260717616E+03  0.64705888164E+03  0.12500399884E+03 0.  0.
          5    1    3    3  501    0 -0.91084302691E+02 -0.16840883507E+02 -0.49938378052E+03  0.50790169895E+03  0.10000000000E+00 0.  1.
         -5    1    3    3    0  501  0.40202161874E+02  0.15660965636E+00 -0.13322339564E+03  0.13915718268E+03  0.10000000000E+00 0.  1.
          2    1    1    2  502    0  0.50882140817E+02  0.16684273851E+02 -0.55564674581E+02  0.77167287819E+02  0.00000000000E+00 0. -1.
<mgrwt>
<rscale>  1 0.13599028E+03</rscale>
<asrwt>0</asrwt>
<pdfrwt beam="1">  1       21 0.10864602E+00 0.13599028E+03</pdfrwt>
<pdfrwt beam="2">  1        2 0.27734086E-02 0.13599028E+03</pdfrwt>
<totfact> 0.28002486E+04</totfact>
</mgrwt>
</event>
<event>
 6    2  0.1674964E-002  0.1376754E+03  0.7546771E-02  0.1216491E+00
         21   -1    0    0  502  503  0.00000000000E+00  0.00000000000E+00  0.14535987234E+03  0.14535987234E+03  0.00000000000E+00 0. -1.
          1   -1    0    0  503    0 -0.00000000000E+00 -0.00000000000E+00 -0.16359923847E+03  0.16359923847E+03  0.00000000000E+00 0.  1.
         25    2    1    2    0    0 -0.57270961153E+02 -0.70976293695E+01  0.10482220911E+03  0.17303821236E+03  0.12499675227E+03 0.  0.
          5    1    3    3  501    0 -0.27685739782E+02  0.44341593542E+02  0.10081562339E+03  0.11356265682E+03  0.10000000000E+00 0. -1.
         -5    1    3    3    0  501 -0.29585221371E+02 -0.51439222912E+02  0.40065857221E+01  0.59475555537E+02  0.10000000000E+00 0. -1.
          1    1    1    2  502    0  0.57270961153E+02  0.70976293695E+01 -0.12306157524E+03  0.13592089845E+03  0.00000000000E+00 0.  1.
<mgrwt>
<rscale>  1 0.13767544E+03</rscale>
<asrwt>0</asrwt>
<pdfrwt beam="1">  1       21 0.22363057E-01 0.13767544E+03</pdfrwt>
<pdfrwt beam="2">  1        1 0.25169113E-01 0.13767544E+03</pdfrwt>
<totfact> 0.38290656E+04</totfact>
</mgrwt>
</event>
<event>
 6    2  0.1674964E-002  0.1275419E+03  0.7546771E-02  0.1231149E+00
         21   -1    0    0  502  503  0.00000000000E+00  0.00000000000E+00  0.37174764710E+03  0.37174764710E+03  0.00000000000E+00 0. -1.
          2   -1    0    0  503    0 -0.00000000000E+00 -0.00000000000E+00 -0.37570794531E+02  0.37570794531E+02  0.00000000000E+00 0.  1.
         25    2    1    2    0    0 -0.25093510576E+02  0.36223590234E+01  0.35455059547E+03  0.37679314136E+03  0.12499656343E+03 0.  0.
          5    1    3    3  501    0 -0.22894458250E+02  0.60335625726E+02  0.12939945570E+03  0.14459866211E+03  0.10000000000E+00 0.  1.
         -5    1    3    3    0  501 -0.21990523258E+01 -0.56713266702E+02  0.22515113977E+03  0.23219447925E+03  0.10000000000E+00 0.  1.
          2    1    1    2  502    0  0.25093510576E+02 -0.36223590234E+01 -0.20373742902E+02  0.32525300272E+02  0.00000000000E+00 0.  1.
<mgrwt>
<rscale>  1 0.12754194E+03</rscale>
<asrwt>0</asrwt>
<pdfrwt beam="1">  1       21 0.57191943E-01 0.12754194E+03</pdfrwt>
<pdfrwt beam="2">  1        2 0.57801225E-02 0.12754194E+03</pdfrwt>
<totfact> 0.44512373E+04</totfact>
</mgrwt>
</event>
<event>
 6    2  0.1674964E-002  0.1297313E+03  0.7546771E-02  0.1227855E+00
         21   -1    0    0  502  503  0.00000000000E+00  0.00000000000E+00  0.20937055145E+03  0.20937055145E+03  0.00000000000E+00 0. -1.
          2   -1    0    0  503    0 -0.00000000000E+00 -0.00000000000E+00 -0.14305090246E+04  0.14305090246E+04  0.00000000000E+00 0.  1.
         25    2    1    2    0    0 -0.22794527750E+02 -0.26213437272E+02  0.18903990295E+03  0.22927339883E+03  0.12499388672E+03 0.  0.
          5    1    3    3  501    0 -0.44788658177E+02 -0.45498702624E+02  0.35659284842E+02  0.73128314880E+02  0.10000000000E+00 0.  1.
         -5    1    3    3    0  501  0.21994130427E+02  0.19285265352E+02  0.15338061810E+03  0.15614508395E+03  0.10000000000E+00 0.  1.
          2    1    1    2  502    0  0.22794527750E+02  0.26213437272E+02 -0.14101783761E+04  0.14106061772E+04  0.00000000000E+00 0.  1.
<mgrwt>
<rscale>  1 0.12973129E+03</rscale>
<asrwt>0</asrwt>
<pdfrwt beam="1">  1       21 0.32210854E-01 0.12973129E+03</pdfrwt>
<pdfrwt beam="2">  1        2 0.22007831E+00 0.12973129E+03</pdfrwt>
<totfact> 0.18474775E+03</totfact>
</mgrwt>
</event>
<event>
 6    2  0.1674964E-002  0.1325541E+03  0.7546771E-02  0.1223714E+00
          2   -1    0    0  503    0 -0.00000000000E+00  0.00000000000E+00  0.11623551876E+03  0.11623551876E+03  0.00000000000E+00 0. -1.
         21   -1    0    0  502  503  0.00000000000E+00 -0.00000000000E+00 -0.72971180294E+02  0.72971180294E+02  0.00000000000E+00 0.  1.
         25    2    1    2    0    0  0.33186229131E+02  0.29062132316E+02  0.81142756371E+01  0.13280226434E+03  0.12499866642E+03 0.  0.
          5    1    3    3  501    0  0.18834817932E+02  0.61064330472E+02 -0.38395211868E+02  0.74550688238E+02  0.10000000000E+00 0. -1.
         -5    1    3    3    0  501  0.14351411199E+02 -0.32002198156E+02  0.46509487505E+02  0.58251576100E+02  0.10000000000E+00 0. -1.
          2    1    1    2  502    0 -0.33186229131E+02 -0.29062132316E+02  0.35150062828E+02  0.56404434715E+02  0.00000000000E+00 0. -1.
<mgrwt>
<rscale>  1 0.13255414E+03</rscale>
<asrwt>0</asrwt>
<pdfrwt beam="1">  1       21 0.11226335E-01 0.13255414E+03</pdfrwt>
<pdfrwt beam="2">  1        2 0.17882387E-01 0.13255414E+03</pdfrwt>
<totfact> 0.25046487E+05</totfact>
</mgrwt>
</event>
<event>
 6    2  0.1674964E-002  0.1525809E+03  0.7546771E-02  0.1197337E+00
          2   -1    0    0  503    0 -0.00000000000E+00  0.00000000000E+00  0.25494081291E+03  0.25494081291E+03  0.00000000000E+00 0. -1.
         21   -1    0    0  502  503  0.00000000000E+00 -0.00000000000E+00 -0.16631275141E+03  0.16631275141E+03  0.00000000000E+00 0.  1.
         25    2    1    2    0    0 -0.81775480506E+02 -0.31135332235E+02 -0.12058560288E+03  0.19447835517E+03  0.12499721950E+03 0.  0.
          5    1    3    3  501    0  0.72709298421E+01  0.38068851352E+02 -0.21298022980E+02  0.44223519159E+02  0.10000000000E+00 0. -1.
         -5    1    3    3    0  501 -0.89046410348E+02 -0.69204183587E+02 -0.99287579898E+02  0.15025483601E+03  0.10000000000E+00 0. -1.
          2    1    1    2  502    0  0.81775480506E+02  0.31135332235E+02  0.20921366437E+03  0.22677520915E+03  0.00000000000E+00 0. -1.
<mgrwt>
<rscale>  1 0.15258094E+03</rscale>
<asrwt>0</asrwt>
<pdfrwt beam="1">  1       21 0.25586577E-01 0.15258094E+03</pdfrwt>
<pdfrwt beam="2">  1        2 0.39221664E-01 0.15258094E+03</pdfrwt>
<totfact> 0.23477745E+04</totfact>
</mgrwt>
</event>
<event>
 6    2  0.1674964E-002  0.1615163E+03  0.7546771E-02  0.1186995E+00
          3   -1    0    0  503    0 -0.00000000000E+00  0.00000000000E+00  0.20775958119E+04  0.20775958119E+04  0.00000000000E+00 0.  1.
         21   -1    0    0  502  503  0.00000000000E+00 -0.00000000000E+00 -0.10941986048E+02  0.10941986048E+02  0.00000000000E+00 0. -1.
         25    2    1    2    0    0 -0.23779243954E+02 -0.99519405840E+02  0.71497279440E+03  0.73298950469E+03  0.12497180748E+03 0.  0.
          5    1    3    3  501    0 -0.10559397042E+02 -0.12866430673E+03  0.55081779238E+03  0.56574398370E+03  0.10000000000E+00 0.  1.
         -5    1    3    3    0  501 -0.13219846912E+02  0.29144900895E+02  0.16415500203E+03  0.16724552099E+03  0.10000000000E+00 0.  1.
          3    1    1    2  502    0  0.23779243954E+02  0.99519405840E+02  0.13516810315E+04  0.13555482933E+04  0.00000000000E+00 0.  1.
<mgrwt>
<rscale>  1 0.16151631E+03</rscale>
<asrwt>0</asrwt>
<pdfrwt beam="1">  1       21 0.16833841E-02 0.16151631E+03</pdfrwt>
<pdfrwt beam="2">  1        3 0.31962981E+00 0.16151631E+03</pdfrwt>
<totfact> 0.28863953E+03</totfact>
</mgrwt>
</event>
<event>
 6    2  0.1674964E-002  0.1381079E+03  0.7546771E-02  0.1215898E+00
         21   -1    0    0  502  503  0.00000000000E+00  0.00000000000E+00  0.32998360536E+03  0.32998360536E+03  0.00000000000E+00 0.  1.
          2   -1    0    0  503    0 -0.00000000000E+00 -0.00000000000E+00 -0.17126975165E+03  0.17126975165E+03  0.00000000000E+00 0.  1.
         25    2    1    2    0    0  0.29437739319E+02  0.50808914432E+02  0.30978227267E+03  0.33917376704E+03  0.12500264598E+03 0.  0.
          5    1    3    3  501    0 -0.38738578131E+02 -0.11774788995E+02  0.56468949394E+02  0.69484353183E+02  0.10000000000E+00 0. -1.
         -5    1    3    3    0  501  0.68176317450E+02  0.62583703427E+02  0.25331332328E+03  0.26968941385E+03  0.10000000000E+00 0. -1.
          2    1    1    2  502    0 -0.29437739319E+02 -0.50808914432E+02 -0.15106841896E+03  0.16207958998E+03  0.00000000000E+00 0.  1.
<mgrwt>
<rscale>  1 0.13810788E+03</rscale>
<asrwt>0</asrwt>
<pdfrwt beam="1">  1       21 0.50766708E-01 0.13810788E+03</pdfrwt>
<pdfrwt beam="2">  1        2 0.26349193E-01 0.13810788E+03</pdfrwt>
<totfact> 0.93019381E+03</totfact>
</mgrwt>
</event>
<event>
 6    2  0.1674964E-002  0.1271150E+03  0.7546771E-02  0.1231800E+00
          1   -1    0    0  503    0 -0.00000000000E+00  0.00000000000E+00  0.42593245574E+03  0.42593245574E+03  0.00000000000E+00 0.  1.
         21   -1    0    0  502  503  0.00000000000E+00 -0.00000000000E+00 -0.64668439371E+02  0.64668439371E+02  0.00000000000E+00 0.  1.
         25    2    1    2    0    0  0.40196964103E+01 -0.23171790926E+02 -0.14519690410E+01  0.12712328105E+03  0.12492049678E+03 0.  0.
          5    1    3    3  501    0  0.27315323717E+01 -0.50209926512E+02  0.48783161526E+02  0.70059295157E+02  0.10000000000E+00 0.  1.
         -5    1    3    3    0  501  0.12881640385E+01  0.27038135585E+02 -0.50235130567E+02  0.57063985890E+02  0.10000000000E+00 0.  1.
          1    1    1    2  502    0 -0.40196964103E+01  0.23171790926E+02  0.36271598541E+03  0.36347761406E+03  0.00000000000E+00 0.  1.
<mgrwt>
<rscale>  1 0.12711499E+03</rscale>
<asrwt>0</asrwt>
<pdfrwt beam="1">  1       21 0.99489910E-02 0.12711499E+03</pdfrwt>
<pdfrwt beam="2">  1        1 0.65528068E-01 0.12711499E+03</pdfrwt>
<totfact> 0.50220957E+04</totfact>
</mgrwt>
</event>
<event>
 6    2  0.1674964E-002  0.1428221E+03  0.7546771E-02  0.1209581E+00
         21   -1    0    0  502  503  0.00000000000E+00  0.00000000000E+00  0.48566186905E+02  0.48566186905E+02  0.00000000000E+00 0. -1.
          2   -1    0    0  503    0 -0.00000000000E+00 -0.00000000000E+00 -0.96140662228E+03  0.96140662228E+03  0.00000000000E+00 0. -1.
         25    2    1    2    0    0 -0.68458006993E+02 -0.96343735793E+01 -0.60953175400E+02  0.15528501614E+03  0.12497530464E+03 0.  0.
          5    1    3    3  501    0  0.35384603505E+02 -0.33191448581E+01 -0.30639234636E+02  0.46923976674E+02  0.10000000000E+00 0. -1.
         -5    1    3    3    0  501 -0.10384261050E+03 -0.63152287212E+01 -0.30313940764E+02  0.10836103946E+03  0.10000000000E+00 0. -1.
          2    1    1    2  502    0  0.68458006993E+02  0.96343735793E+01 -0.85188725998E+03  0.85468779305E+03  0.00000000000E+00 0. -1.
<mgrwt>
<rscale>  1 0.14282208E+03</rscale>
<asrwt>0</asrwt>
<pdfrwt beam="1">  1       21 0.74717213E-02 0.14282208E+03</pdfrwt>
<pdfrwt beam="2">  1        2 0.14790871E+00 0.14282208E+03</pdfrwt>
<totfact> 0.47845722E+04</totfact>
</mgrwt>
</event>
<event>
 6    2  0.1674964E-002  0.1315096E+03  0.7546771E-02  0.1225233E+00
         21   -1    0    0  502  503  0.00000000000E+00  0.00000000000E+00  0.12322741032E+02  0.12322741032E+02  0.00000000000E+00 0.  1.
          2   -1    0    0  503    0 -0.00000000000E+00 -0.00000000000E+00 -0.15946283247E+04  0.15946283247E+04  0.00000000000E+00 0.  1.
         25    2    1    2    0    0 -0.30294781173E+02  0.27471930870E+02 -0.34880885992E+03  0.37277658526E+03  0.12498912356E+03 0.  0.
          5    1    3    3  501    0 -0.42164777993E+02 -0.38972315189E+02 -0.10359046739E+03  0.11843861190E+03  0.10000000000E+00 0.  1.
         -5    1    3    3    0  501  0.11869996821E+02  0.66444246059E+02 -0.24521839254E+03  0.25433797337E+03  0.10000000000E+00 0.  1.
          2    1    1    2  502    0  0.30294781173E+02 -0.27471930870E+02 -0.12334967238E+04  0.12341744805E+04  0.00000000000E+00 0.  1.
<mgrwt>
<rscale>  1 0.13150955E+03</rscale>
<asrwt>0</asrwt>
<pdfrwt beam="1">  1       21 0.18958061E-02 0.13150955E+03</pdfrwt>
<pdfrwt beam="2">  1        2 0.24532746E+00 0.13150955E+03</pdfrwt>
<totfact> 0.20980431E+05</totfact>
</mgrwt>
</event>
<event>
 6    2  0.1674964E-002  0.1310512E+03  0.7546771E-02  0.1225904E+00
         21   -1    0    0  502  503  0.00000000000E+00  0.00000000000E+00  0.72554822017E+01  0.72554822017E+01  0.00000000000E+00 0.  1.
          2   -1    0    0  503    0 -0.00000000000E+00 -0.00000000000E+00 -0.13948788126E+04  0.13948788126E+04  0.00000000000E+00 0.  1.
         25    2    1    2    0    0 -0.31979445940E+01  0.39197341211E+02 -0.62975650405E+03  0.64324775197E+03  0.12501102998E+03 0.  0.
          5    1    3    3  501    0  0.56500105070E+01  0.72387525587E+02 -0.21214947859E+03  0.22423043447E+03  0.10000000000E+00 0. -1.
         -5    1    3    3    0  501 -0.88479551010E+01 -0.33190184376E+02 -0.41760702546E+03  0.41901731750E+03  0.10000000000E+00 0. -1.
          2    1    1    2  502    0  0.31979445940E+01 -0.39197341211E+02 -0.75786682630E+03  0.75888654278E+03  0.00000000000E+00 0.  1.
<mgrwt>
<rscale>  1 0.13105120E+03</rscale>
<asrwt>0</asrwt>
<pdfrwt beam="1">  1       21 0.11162279E-02 0.13105120E+03</pdfrwt>
<pdfrwt beam="2">  1        2 0.21459677E+00 0.13105120E+03</pdfrwt>
<totfact> 0.62079512E+05</totfact>
</mgrwt>
</event>
<event>
 6    2  0.1674964E-002  0.1294127E+03  0.7546771E-02  0.1228330E+00
         21   -1    0    0  502  503  0.00000000000E+00  0.00000000000E+00  0.28527190706E+02  0.28527190706E+02  0.00000000000E+00 0. -1.
          2   -1    0    0  503    0 -0.00000000000E+00 -0.00000000000E+00 -0.35089633441E+03  0.35089633441E+03  0.00000000000E+00 0. -1.
         25    2    1    2    0    0 -0.24763271221E+02 -0.22595321316E+02 -0.32073713046E+03  0.34586117100E+03  0.12499549831E+03 0.  0.
          5    1    3    3  501    0  0.15995647088E+02  0.46418476312E+02 -0.11348011545E+03  0.12364579359E+03  0.10000000000E+00 0. -1.
         -5    1    3    3    0  501 -0.40758918309E+02 -0.69013797628E+02 -0.20725701501E+03  0.22221537741E+03  0.10000000000E+00 0. -1.
          2    1    1    2  502    0  0.24763271221E+02  0.22595321316E+02 -0.16320132404E+01  0.33562354121E+02  0.00000000000E+00 0. -1.
<mgrwt>
<rscale>  1 0.12941268E+03</rscale>
<asrwt>0</asrwt>
<pdfrwt beam="1">  1       21 0.43887986E-02 0.12941268E+03</pdfrwt>
<pdfrwt beam="2">  1        2 0.53984052E-01 0.12941268E+03</pdfrwt>
<totfact> 0.37617143E+05</totfact>
</mgrwt>
</event>
<event>
 6    2  0.1674964E-002  0.1289935E+03  0.7546771E-02  0.1228957E+00
          2   -1    0    0  503    0 -0.00000000000E+00  0.00000000000E+00  0.16033055015E+04  0.16033055015E+04  0.00000000000E+00 0.  1.
         21   -1    0    0  502  503  0.00000000000E+00 -0.00000000000E+00 -0.28843248560E+02  0.28843248560E+02  0.00000000000E+00 0.  1.
         25    2    1    2    0    0 -0.26356353437E+02 -0.17739237752E+02  0.11642215301E+03  0.17376256289E+03  0.12501988893E+03 0.  0.
          5    1    3    3  501    0  0.43990792225E+02  0.20847156286E+02  0.41052636603E+02  0.63679845304E+02  0.10000000000E+00 0. -1.
         -5    1    3    3    0  501 -0.70347145662E+02 -0.38586394038E+02  0.75369516402E+02  0.11008271758E+03  0.10000000000E+00 0. -1.
          2    1    1    2  502    0  0.26356353437E+02  0.17739237752E+02  0.14580401000E+04  0.14583861872E+04  0.00000000000E+00 0.  1.
<mgrwt>
<rscale>  1 0.12899345E+03</rscale>
<asrwt>0</asrwt>
<pdfrwt beam="1">  1       21 0.44374241E-02 0.12899345E+03</pdfrwt>
<pdfrwt beam="2">  1        2 0.24666231E+00 0.12899345E+03</pdfrwt>
<totfact> 0.51538677E+04</totfact>
</mgrwt>
</event>
<event>
 6    2  0.1674964E-002  0.1296435E+03  0.7546771E-02  0.1227986E+00
         21   -1    0    0  502  503  0.00000000000E+00  0.00000000000E+00  0.37361905605E+02  0.37361905605E+02  0.00000000000E+00 0. -1.
          2   -1    0    0  503    0 -0.00000000000E+00 -0.00000000000E+00 -0.12447967449E+04  0.12447967449E+04  0.00000000000E+00 0. -1.
         25    2    1    2    0    0 -0.33916738358E+02  0.55862457932E+01 -0.76154177821E+02  0.15035589105E+03  0.12500353551E+03 0.  0.
          5    1    3    3  501    0 -0.66808494153E+02  0.33666494555E+02 -0.16391947448E+02  0.76586641705E+02  0.10000000000E+00 0. -1.
         -5    1    3    3    0  501  0.32891755795E+02 -0.28080248762E+02 -0.59762230373E+02  0.73769249345E+02  0.10000000000E+00 0. -1.
          2    1    1    2  502    0  0.33916738358E+02 -0.55862457932E+01 -0.11312806615E+04  0.11318027595E+04  0.00000000000E+00 0. -1.
<mgrwt>
<rscale>  1 0.12964349E+03</rscale>
<asrwt>0</asrwt>
<pdfrwt beam="1">  1       21 0.57479857E-02 0.12964349E+03</pdfrwt>
<pdfrwt beam="2">  1        2 0.19150718E+00 0.12964349E+03</pdfrwt>
<totfact> 0.51530698E+04</totfact>
</mgrwt>
</event>
<event>
 6    2  0.1674964E-002  0.1339355E+03  0.7546771E-02  0.1221730E+00
          1   -1    0    0  503    0 -0.00000000000E+00  0.00000000000E+00  0.14516538561E+04  0.14516538561E+04  0.00000000000E+00 0. -1.
         21   -1    0    0  502  503  0.00000000000E+00 -0.00000000000E+00 -0.79097735628E+02  0.79097735628E+02  0.00000000000E+00 0. -1.
         25    2    1    2    0    0  0.47933729685E+02  0.38661179144E+01 -0.21686543207E+02  0.13567983926E+03  0.12500449318E+03 0.  0.
          5    1    3    3  501    0 -0.18861904859E+02  0.48741615181E+02 -0.17441946754E+02  0.55097622562E+02  0.10000000000E+00 0.  1.
         -5    1    3    3    0  501  0.66795634544E+02 -0.44875497267E+02 -0.42445964531E+01  0.80582216699E+02  0.10000000000E+00 0.  1.
          1    1    1    2  502    0 -0.47933729685E+02 -0.38661179144E+01  0.13942426637E+04  0.13950717524E+04  0.00000000000E+00 0. -1.
<mgrwt>
<rscale>  1 0.13393548E+03</rscale>
<asrwt>0</asrwt>
<pdfrwt beam="1">  1       21 0.12168883E-01 0.13393548E+03</pdfrwt>
<pdfrwt beam="2">  1        1 0.22333134E+00 0.13393548E+03</pdfrwt>
<totfact> 0.51444400E+03</totfact>
</mgrwt>
</event>
<event>
 6    2  0.1674964E-002  0.1278398E+03  0.7546771E-02  0.1230697E+00
          2   -1    0    0  503    0 -0.00000000000E+00  0.00000000000E+00  0.64728665888E+03  0.64728665888E+03  0.00000000000E+00 0. -1.
         21   -1    0    0  502  503  0.00000000000E+00 -0.00000000000E+00 -0.44804945597E+02  0.44804945597E+02  0.00000000000E+00 0.  1.
         25    2    1    2    0    0  0.14818959874E+02 -0.22297424301E+02  0.47368769640E+02  0.13633342244E+03  0.12500490004E+03 0.  0.
          5    1    3    3  501    0  0.50246337768E+02 -0.56601366651E+02  0.14481922929E+02  0.77059361908E+02  0.10000000000E+00 0. -1.
         -5    1    3    3    0  501 -0.35427377894E+02  0.34303942350E+02  0.32886846710E+02  0.59274060530E+02  0.10000000000E+00 0. -1.
          2    1    1    2  502    0 -0.14818959874E+02  0.22297424301E+02  0.55511294365E+03  0.55575818204E+03  0.00000000000E+00 0. -1.
<mgrwt>
<rscale>  1 0.12783975E+03</rscale>
<asrwt>0</asrwt>
<pdfrwt beam="1">  1       21 0.68930690E-02 0.12783975E+03</pdfrwt>
<pdfrwt beam="2">  1        2 0.99582556E-01 0.12783975E+03</pdfrwt>
<totfact> 0.89767007E+04</totfact>
</mgrwt>
</event>
<event>
 6    2  0.1674964E-002  0.1534401E+03  0.7546771E-02  0.1196308E+00
         21   -1    0    0  502  503  0.00000000000E+00  0.00000000000E+00  0.19978696687E+02  0.19978696687E+02  0.00000000000E+00 0.  1.
          2   -1    0    0  503    0 -0.00000000000E+00 -0.00000000000E+00 -0.23114560826E+04  0.23114560826E+04  0.00000000000E+00 0.  1.
         25    2    1    2    0    0 -0.48096428459E+02  0.74869184806E+02 -0.29096774634E+03  0.32894695678E+03  0.12500083880E+03 0.  0.
          5    1    3    3  501    0 -0.29464126566E+02  0.12923212743E+02 -0.25068696587E+03  0.25274316813E+03  0.10000000000E+00 0. -1.
         -5    1    3    3    0  501 -0.18632301892E+02  0.61945972064E+02 -0.40280780470E+02  0.76203788646E+02  0.10000000000E+00 0. -1.
          2    1    1    2  502    0  0.48096428459E+02 -0.74869184806E+02 -0.20005096396E+04  0.20024878225E+04  0.00000000000E+00 0.  1.
<mgrwt>
<rscale>  1 0.15344012E+03</rscale>
<asrwt>0</asrwt>
<pdfrwt beam="1">  1       21 0.30736492E-02 0.15344012E+03</pdfrwt>
<pdfrwt beam="2">  1        2 0.35560822E+00 0.15344012E+03</pdfrwt>
<totfact> 0.40707863E+04</totfact>
</mgrwt>
</event>
<event>
 6    2  0.1674964E-002  0.1503725E+03  0.7546771E-02  0.1200016E+00
          1   -1    0    0  503    0 -0.00000000000E+00  0.00000000000E+00  0.16812907862E+04  0.16812907862E+04  0.00000000000E+00 0. -1.
         21   -1    0    0  502  503  0.00000000000E+00 -0.00000000000E+00 -0.89901816409E+01  0.89901816409E+01  0.00000000000E+00 0. -1.
         25    2    1    2    0    0  0.71576257358E+02  0.43171114154E+02  0.13024850596E+04  0.13111366114E+04  0.12499991041E+03 0.  0.
          5    1    3    3  501    0  0.63125732515E+02  0.77808634235E+02  0.11576441611E+04  0.11619720545E+04  0.10000000000E+00 0.  1.
         -5    1    3    3    0  501  0.84505248430E+01 -0.34637520081E+02  0.14484089850E+03  0.14916455694E+03  0.10000000000E+00 0.  1.
          1    1    1    2  502    0 -0.71576257358E+02 -0.43171114154E+02  0.36981554495E+03  0.37914435642E+03  0.00000000000E+00 0. -1.
<mgrwt>
<rscale>  1 0.15037248E+03</rscale>
<asrwt>0</asrwt>
<pdfrwt beam="1">  1       21 0.13831062E-02 0.15037248E+03</pdfrwt>
<pdfrwt beam="2">  1        1 0.25865987E+00 0.15037248E+03</pdfrwt>
<totfact> 0.13862388E+05</totfact>
</mgrwt>
</event>
<event>
 6    2  0.1674964E-002  0.1265717E+03  0.7546771E-02  0.1232633E+00
         21   -1    0    0  502  503  0.00000000000E+00  0.00000000000E+00  0.93495457463E+02  0.93495457463E+02  0.00000000000E+00 0.  1.
          2   -1    0    0  503    0 -0.00000000000E+00 -0.00000000000E+00 -0.32352541728E+03  0.32352541728E+03  0.00000000000E+00 0.  1.
         25    2    1    2    0    0 -0.11339731179E+02  0.16433924655E+02  0.50139391831E+02  0.13614095559E+03  0.12498695049E+03 0.  0.
          5    1    3    3  501    0 -0.65774249258E+01  0.59722392435E+02  0.66496730540E+02  0.89620599470E+02  0.10000000000E+00 0.  1.
         -5    1    3    3    0  501 -0.47623062528E+01 -0.43288467780E+02 -0.16357338709E+02  0.46520356116E+02  0.10000000000E+00 0.  1.
          2    1    1    2  502    0  0.11339731179E+02 -0.16433924655E+02 -0.28016935165E+03  0.28087991916E+03  0.00000000000E+00 0.  1.
<mgrwt>
<rscale>  1 0.12657172E+03</rscale>
<asrwt>0</asrwt>
<pdfrwt beam="1">  1       21 0.14383917E-01 0.12657172E+03</pdfrwt>
<pdfrwt beam="2">  1        2 0.49773140E-01 0.12657172E+03</pdfrwt>
<totfact> 0.52777951E+04</totfact>
</mgrwt>
</event>
<event>
 6    2  0.1674964E-002  0.1259038E+03  0.7546771E-02  0.1233664E+00
          2   -1    0    0  503    0 -0.00000000000E+00  0.00000000000E+00  0.33207362057E+03  0.33207362057E+03  0.00000000000E+00 0. -1.
         21   -1    0    0  502  503  0.00000000000E+00 -0.00000000000E+00 -0.29913500995E+02  0.29913500995E+02  0.00000000000E+00 0. -1.
         25    2    1    2    0    0  0.14405564849E+02 -0.45555910172E+01  0.10414119098E+03  0.16339263576E+03  0.12499396808E+03 0.  0.
          5    1    3    3  501    0  0.17482545869E+02  0.38275366516E+02 -0.84247170857E+01  0.42914204525E+02  0.10000000000E+00 0. -1.
         -5    1    3    3    0  501 -0.30769810193E+01 -0.42830957533E+02  0.11256590807E+03  0.12047843124E+03  0.10000000000E+00 0. -1.
          2    1    1    2  502    0 -0.14405564849E+02  0.45555910172E+01  0.19801892859E+03  0.19859448580E+03  0.00000000000E+00 0. -1.
<mgrwt>
<rscale>  1 0.12590380E+03</rscale>
<asrwt>0</asrwt>
<pdfrwt beam="1">  1       21 0.46020773E-02 0.12590380E+03</pdfrwt>
<pdfrwt beam="2">  1        2 0.51088247E-01 0.12590380E+03</pdfrwt>
<totfact> 0.36775205E+05</totfact>
</mgrwt>
</event>
<event>
 6    2  0.1674964E-002  0.1294804E+03  0.7546771E-02  0.1228229E+00
         21   -1    0    0  502  503  0.00000000000E+00  0.00000000000E+00  0.53497261258E+02  0.53497261258E+02  0.00000000000E+00 0. -1.
          2   -1    0    0  503    0 -0.00000000000E+00 -0.00000000000E+00 -0.49423541207E+03  0.49423541207E+03  0.00000000000E+00 0. -1.
         25    2    1    2    0    0  0.27827607389E+02  0.19172870392E+02 -0.26557726891E+02  0.13217594044E+03  0.12499276651E+03 0.  0.
          5    1    3    3  501    0 -0.15462677345E+02 -0.37084142050E+02  0.22346842012E+02  0.45975203427E+02  0.10000000000E+00 0. -1.
         -5    1    3    3    0  501  0.43290284735E+02  0.56257012442E+02 -0.48904568902E+02  0.86200737009E+02  0.10000000000E+00 0. -1.
          2    1    1    2  502    0 -0.27827607389E+02 -0.19172870392E+02 -0.41418042393E+03  0.41555673290E+03  0.00000000000E+00 0. -1.
<mgrwt>
<rscale>  1 0.12948037E+03</rscale>
<asrwt>0</asrwt>
<pdfrwt beam="1">  1       21 0.82303479E-02 0.12948037E+03</pdfrwt>
<pdfrwt beam="2">  1        2 0.76036217E-01 0.12948037E+03</pdfrwt>
<totfact> 0.89628642E+04</totfact>
</mgrwt>
</event>
<event>
 6    2  0.1674964E-002  0.1355250E+03  0.7546771E-02  0.1219480E+00
         21   -1    0    0  502  503  0.00000000000E+00  0.00000000000E+00  0.18461821425E+02  0.18461821425E+02  0.00000000000E+00 0. -1.
          1   -1    0    0  503    0 -0.00000000000E+00 -0.00000000000E+00 -0.94154062061E+03  0.94154062061E+03  0.00000000000E+00 0. -1.
         25    2    1    2    0    0  0.22815510728E+02 -0.47138104141E+02 -0.24566905236E+03  0.28057142016E+03  0.12499796051E+03 0.  0.
          5    1    3    3  501    0  0.65699825348E+02 -0.32921100421E+01 -0.17524441643E+03  0.18718418878E+03  0.10000000000E+00 0.  1.
         -5    1    3    3    0  501 -0.42884314620E+02 -0.43845994099E+02 -0.70424635926E+02  0.93387231377E+02  0.10000000000E+00 0.  1.
          1    1    1    2  502    0 -0.22815510728E+02  0.47138104141E+02 -0.67740974683E+03  0.67943102188E+03  0.00000000000E+00 0. -1.
<mgrwt>
<rscale>  1 0.13552505E+03</rscale>
<asrwt>0</asrwt>
<pdfrwt beam="1">  1       21 0.28402795E-02 0.13552505E+03</pdfrwt>
<pdfrwt beam="2">  1        1 0.14485244E+00 0.13552505E+03</pdfrwt>
<totfact> 0.13708289E+05</totfact>
</mgrwt>
</event>
<event>
 6    2  0.1674964E-002  0.1514772E+03  0.7546771E-02  0.1198669E+00
         21   -1    0    0  502  503  0.00000000000E+00  0.00000000000E+00  0.54878618535E+02  0.54878618535E+02  0.00000000000E+00 0. -1.
          2   -1    0    0  503    0 -0.00000000000E+00 -0.00000000000E+00 -0.26810471647E+04  0.26810471647E+04  0.00000000000E+00 0. -1.
         25    2    1    2    0    0  0.73368432704E+02  0.44002680907E+02 -0.51730803059E+02  0.16006692531E+03  0.12500472690E+03 0.  0.
          5    1    3    3  501    0  0.45559031871E+02 -0.34172111443E+02  0.84392948875E+01  0.57572478527E+02  0.10000000000E+00 0. -1.
         -5    1    3    3    0  501  0.27809400832E+02  0.78174792350E+02 -0.60170097946E+02  0.10249444678E+03  0.10000000000E+00 0. -1.
          2    1    1    2  502    0 -0.73368432704E+02 -0.44002680907E+02 -0.25744377431E+04  0.25758588579E+04  0.00000000000E+00 0. -1.
<mgrwt>
<rscale>  1 0.15147721E+03</rscale>
<asrwt>0</asrwt>
<pdfrwt beam="1">  1       21 0.84428632E-02 0.15147721E+03</pdfrwt>
<pdfrwt beam="2">  1        2 0.41246885E+00 0.15147721E+03</pdfrwt>
<totfact> 0.46813572E+03</totfact>
</mgrwt>
</event>
<event>
 6    2  0.1674964E-002  0.1364480E+03  0.7546771E-02  0.1218190E+00
          1   -1    0    0  503    0 -0.00000000000E+00  0.00000000000E+00  0.22855454857E+04  0.22855454857E+04  0.00000000000E+00 0.  1.
         21   -1    0    0  502  503  0.00000000000E+00 -0.00000000000E+00 -0.25688181307E+02  0.25688181307E+02  0.00000000000E+00 0.  1.
         25    2    1    2    0    0 -0.46145628540E+02  0.29384601682E+02  0.15840694214E+03  0.20907132816E+03  0.12500074836E+03 0.  0.
          5    1    3    3  501    0  0.19089777906E+02  0.54562505851E+02  0.10923634400E+03  0.12358833082E+03  0.10000000000E+00 0. -1.
         -5    1    3    3    0  501 -0.65235406445E+02 -0.25177904169E+02  0.49170598141E+02  0.85482997339E+02  0.10000000000E+00 0. -1.
          1    1    1    2  502    0  0.46145628540E+02 -0.29384601682E+02  0.21014503623E+04  0.21021623389E+04  0.00000000000E+00 0.  1.
<mgrwt>
<rscale>  1 0.13644802E+03</rscale>
<asrwt>0</asrwt>
<pdfrwt beam="1">  1       21 0.39520297E-02 0.13644802E+03</pdfrwt>
<pdfrwt beam="2">  1        1 0.35162222E+00 0.13644802E+03</pdfrwt>
<totfact> 0.10351403E+04</totfact>
</mgrwt>
</event>
<event>
 6    2  0.1674964E-002  0.1292259E+03  0.7546771E-02  0.1228609E+00
          1   -1    0    0  503    0 -0.00000000000E+00  0.00000000000E+00  0.10576065667E+04  0.10576065667E+04  0.00000000000E+00 0.  1.
         21   -1    0    0  502  503  0.00000000000E+00 -0.00000000000E+00 -0.11982581357E+02  0.11982581357E+02  0.00000000000E+00 0.  1.
         25    2    1    2    0    0  0.15373470682E+02 -0.28952104172E+02  0.34837929673E+03  0.37157430313E+03  0.12499904168E+03 0.  0.
          5    1    3    3  501    0 -0.23346314772E+02  0.17584124606E+02  0.15207799787E+02  0.32947519269E+02  0.10000000000E+00 0. -1.
         -5    1    3    3    0  501  0.38719785454E+02 -0.46536228778E+02  0.33317149694E+03  0.33862678387E+03  0.10000000000E+00 0. -1.
          1    1    1    2  502    0 -0.15373470682E+02  0.28952104172E+02  0.69724468857E+03  0.69801484488E+03  0.00000000000E+00 0.  1.
<mgrwt>
<rscale>  1 0.12922588E+03</rscale>
<asrwt>0</asrwt>
<pdfrwt beam="1">  1       21 0.18434749E-02 0.12922588E+03</pdfrwt>
<pdfrwt beam="2">  1        1 0.16270863E+00 0.12922588E+03</pdfrwt>
<totfact> 0.22708524E+05</totfact>
</mgrwt>
</event>
<event>
 6    2  0.1674964E-002  0.1970376E+03  0.7546771E-02  0.1152263E+00
         21   -1    0    0  502  503  0.00000000000E+00  0.00000000000E+00  0.36067287294E+02  0.36067287294E+02  0.00000000000E+00 0.  1.
          2   -1    0    0  503    0 -0.00000000000E+00 -0.00000000000E+00 -0.88472260223E+03  0.88472260223E+03  0.00000000000E+00 0.  1.
         25    2    1    2    0    0 -0.14726574322E+03 -0.38881308128E+02 -0.38065555290E+03  0.42862860243E+03  0.12499949449E+03 0.  0.
          5    1    3    3  501    0 -0.50919882885E+02  0.28902133460E+02 -0.23027050866E+03  0.23759773768E+03  0.10000000000E+00 0.  1.
         -5    1    3    3    0  501 -0.96345860331E+02 -0.67783441588E+02 -0.15038504423E+03  0.19103086474E+03  0.10000000000E+00 0.  1.
          2    1    1    2  502    0  0.14726574322E+03  0.38881308128E+02 -0.46799976204E+03  0.49216128710E+03  0.00000000000E+00 0.  1.
<mgrwt>
<rscale>  1 0.19703763E+03</rscale>
<asrwt>0</asrwt>
<pdfrwt beam="1">  1       21 0.55488131E-02 0.19703763E+03</pdfrwt>
<pdfrwt beam="2">  1        2 0.13611118E+00 0.19703763E+03</pdfrwt>
<totfact> 0.88808081E+04</totfact>
</mgrwt>
</event>
<event>
 6    2  0.1674964E-002  0.1263604E+03  0.7546771E-02  0.1232958E+00
         21   -1    0    0  502  503  0.00000000000E+00  0.00000000000E+00  0.33723984596E+01  0.33723984596E+01  0.00000000000E+00 0.  1.
          1   -1    0    0  503    0 -0.00000000000E+00 -0.00000000000E+00 -0.24142751757E+04  0.24142751757E+04  0.00000000000E+00 0.  1.
         25    2    1    2    0    0  0.54669966408E+01  0.17670102919E+02 -0.12057913327E+04  0.12123941924E+04  0.12499927621E+03 0.  0.
          5    1    3    3  501    0  0.18361946011E+02  0.68639944957E+02 -0.56515033528E+03  0.56959943343E+03  0.10000000000E+00 0. -1.
         -5    1    3    3    0  501 -0.12894949371E+02 -0.50969842038E+02 -0.64064099745E+03  0.64279475895E+03  0.10000000000E+00 0. -1.
          1    1    1    2  502    0 -0.54669966408E+01 -0.17670102919E+02 -0.12051114445E+04  0.12052533818E+04  0.00000000000E+00 0.  1.
<mgrwt>
<rscale>  1 0.12636036E+03</rscale>
<asrwt>0</asrwt>
<pdfrwt beam="1">  1       21 0.51883268E-03 0.12636036E+03</pdfrwt>
<pdfrwt beam="2">  1        1 0.37142541E+00 0.12636036E+03</pdfrwt>
<totfact> 0.21985089E+05</totfact>
</mgrwt>
</event>
<event>
 6    2  0.1674964E-002  0.1268927E+03  0.7546771E-02  0.1232141E+00
          2   -1    0    0  503    0 -0.00000000000E+00  0.00000000000E+00  0.11716430494E+04  0.11716430494E+04  0.00000000000E+00 0. -1.
         21   -1    0    0  502  503  0.00000000000E+00 -0.00000000000E+00 -0.42244019987E+02  0.42244019987E+02  0.00000000000E+00 0.  1.
         25    2    1    2    0    0 -0.21632660349E+02  0.30944497480E+01  0.53407962699E+02  0.13767411497E+03  0.12499681532E+03 0.  0.
          5    1    3    3  501    0 -0.52283625364E+02  0.30118608089E+02 -0.11062729464E+02  0.61344127817E+02  0.10000000000E+00 0.  1.
         -5    1    3    3    0  501  0.30650965016E+02 -0.27024158341E+02  0.64470692164E+02  0.76329987151E+02  0.10000000000E+00 0.  1.
          2    1    1    2  502    0  0.21632660349E+02 -0.30944497480E+01  0.10759910667E+04  0.10762129544E+04  0.00000000000E+00 0. -1.
<mgrwt>
<rscale>  1 0.12689268E+03</rscale>
<asrwt>0</asrwt>
<pdfrwt beam="1">  1       21 0.64990809E-02 0.12689268E+03</pdfrwt>
<pdfrwt beam="2">  1        2 0.18025275E+00 0.12689268E+03</pdfrwt>
<totfact> 0.45913715E+04</totfact>
</mgrwt>
</event>
<event>
 6    2  0.1674964E-002  0.1353035E+03  0.7546771E-02  0.1219792E+00
          2   -1    0    0  503    0 -0.00000000000E+00  0.00000000000E+00  0.13662781857E+04  0.13662781857E+04  0.00000000000E+00 0. -1.
         21   -1    0    0  502  503  0.00000000000E+00 -0.00000000000E+00 -0.65548742231E+01  0.65548742231E+01  0.00000000000E+00 0. -1.
         25    2    1    2    0    0  0.50776781713E+02 -0.10214082020E+02  0.88332103819E+03  0.89362357021E+03  0.12499767879E+03 0.  0.
          5    1    3    3  501    0  0.81707491938E+02  0.25864600083E+02  0.48955272498E+03  0.49699796007E+03  0.10000000000E+00 0. -1.
         -5    1    3    3    0  501 -0.30930710225E+02 -0.36078682102E+02  0.39376831320E+03  0.39662561014E+03  0.10000000000E+00 0. -1.
          2    1    1    2  502    0 -0.50776781713E+02  0.10214082020E+02  0.47640227333E+03  0.47920948975E+03  0.00000000000E+00 0. -1.
<mgrwt>
<rscale>  1 0.13530347E+03</rscale>
<asrwt>0</asrwt>
<pdfrwt beam="1">  1       21 0.10084433E-02 0.13530347E+03</pdfrwt>
<pdfrwt beam="2">  1        2 0.21019642E+00 0.13530347E+03</pdfrwt>
<totfact> 0.75575906E+05</totfact>
</mgrwt>
</event>
<event>
 6    2  0.1674964E-002  0.1633372E+03  0.7546771E-02  0.1184980E+00
         21   -1    0    0  502  503  0.00000000000E+00  0.00000000000E+00  0.37527196331E+02  0.37527196331E+02  0.00000000000E+00 0. -1.
          1   -1    0    0  503    0 -0.00000000000E+00 -0.00000000000E+00 -0.50464153342E+03  0.50464153342E+03  0.00000000000E+00 0. -1.
         25    2    1    2    0    0  0.20667574856E+01  0.10511582584E+03 -0.22338967991E+03  0.27673452539E+03  0.12500176048E+03 0.  0.
          5    1    3    3  501    0 -0.81103015076E+01 -0.84381583451E+01  0.11016376648E+02  0.16073271641E+02  0.10000000000E+00 0. -1.
         -5    1    3    3    0  501  0.10177058993E+02  0.11355398419E+03 -0.23440605656E+03  0.26066125375E+03  0.10000000000E+00 0. -1.
          1    1    1    2  502    0 -0.20667574856E+01 -0.10511582584E+03 -0.24372465717E+03  0.26543420436E+03  0.00000000000E+00 0. -1.
<mgrwt>
<rscale>  1 0.16333722E+03</rscale>
<asrwt>0</asrwt>
<pdfrwt beam="1">  1       21 0.57734153E-02 0.16333722E+03</pdfrwt>
<pdfrwt beam="2">  1        1 0.77637153E-01 0.16333722E+03</pdfrwt>
<totfact> 0.10357205E+05</totfact>
</mgrwt>
</event>
<event>
 6    2  0.1674964E-002  0.1415481E+03  0.7546771E-02  0.1211261E+00
         21   -1    0    0  502  503  0.00000000000E+00  0.00000000000E+00  0.48011275381E+01  0.48011275381E+01  0.00000000000E+00 0.  1.
          2   -1    0    0  503    0 -0.00000000000E+00 -0.00000000000E+00 -0.26749120409E+04  0.26749120409E+04  0.00000000000E+00 0.  1.
         25    2    1    2    0    0 -0.66058592922E+02  0.68423324398E+01 -0.12384727377E+04  0.12465354330E+04  0.12500123439E+03 0.  0.
          5    1    3    3  501    0 -0.78411528820E+02 -0.41582341562E+02 -0.66650893381E+03  0.67239246562E+03  0.10000000000E+00 0.  1.
         -5    1    3    3    0  501  0.12352935898E+02  0.48424674002E+02 -0.57196380386E+03  0.57414296739E+03  0.10000000000E+00 0.  1.
          2    1    1    2  502    0  0.66058592922E+02 -0.68423324398E+01 -0.14316381757E+04  0.14331777354E+04  0.00000000000E+00 0.  1.
<mgrwt>
<rscale>  1 0.14154810E+03</rscale>
<asrwt>0</asrwt>
<pdfrwt beam="1">  1       21 0.73863238E-03 0.14154810E+03</pdfrwt>
<pdfrwt beam="2">  1        2 0.41152639E+00 0.14154810E+03</pdfrwt>
<totfact> 0.25635954E+05</totfact>
</mgrwt>
</event>
<event>
 6    2  0.1674964E-002  0.1273447E+03  0.7546771E-02  0.1231450E+00
         21   -1    0    0  502  503  0.00000000000E+00  0.00000000000E+00  0.18303115124E+02  0.18303115124E+02  0.00000000000E+00 0. -1.
          1   -1    0    0  503    0 -0.00000000000E+00 -0.00000000000E+00 -0.61692239354E+03  0.61692239354E+03  0.00000000000E+00 0.  1.
         25    2    1    2    0    0  0.24180995843E+02  0.30302820835E+01 -0.20827446844E+03  0.24412069682E+03  0.12499102866E+03 0.  0.
          5    1    3    3  501    0  0.66467510424E+02  0.65006807143E+01 -0.59604192708E+02  0.89514571887E+02  0.10000000000E+00 0. -1.
         -5    1    3    3    0  501 -0.42286514580E+02 -0.34703986308E+01 -0.14867027573E+03  0.15460612494E+03  0.10000000000E+00 0. -1.
          1    1    1    2  502    0 -0.24180995843E+02 -0.30302820835E+01 -0.39034480997E+03  0.39110481184E+03  0.00000000000E+00 0.  1.
<mgrwt>
<rscale>  1 0.12734465E+03</rscale>
<asrwt>0</asrwt>
<pdfrwt beam="1">  1       21 0.28158637E-02 0.12734465E+03</pdfrwt>
<pdfrwt beam="2">  1        1 0.94911141E-01 0.12734465E+03</pdfrwt>
<totfact> 0.25966391E+05</totfact>
</mgrwt>
</event>
<event>
 6    2  0.1674964E-002  0.1988271E+03  0.7546771E-02  0.1150732E+00
         21   -1    0    0  502  503  0.00000000000E+00  0.00000000000E+00  0.75094836058E+03  0.75094836058E+03  0.00000000000E+00 0.  1.
          3   -1    0    0  503    0 -0.00000000000E+00 -0.00000000000E+00 -0.50105156332E+02  0.50105156332E+02  0.00000000000E+00 0.  1.
         25    2    1    2    0    0 -0.12103980469E+03  0.96211050139E+02  0.55085125769E+03  0.58563581912E+03  0.12500001622E+03 0.  0.
          5    1    3    3  501    0 -0.26861083198E+02 -0.14780945178E+02  0.24501154449E+03  0.24692237862E+03  0.10000000000E+00 0.  1.
         -5    1    3    3    0  501 -0.94178721492E+02  0.11099199532E+03  0.30583971319E+03  0.33871344050E+03  0.10000000000E+00 0.  1.
          3    1    1    2  502    0  0.12103980469E+03 -0.96211050139E+02  0.14999194656E+03  0.21541769779E+03  0.00000000000E+00 0.  1.
<mgrwt>
<rscale>  1 0.19882707E+03</rscale>
<asrwt>0</asrwt>
<pdfrwt beam="1">  1       21 0.11553051E+00 0.19882707E+03</pdfrwt>
<pdfrwt beam="2">  1        3 0.77084861E-02 0.19882707E+03</pdfrwt>
<totfact> 0.32334917E+03</totfact>
</mgrwt>
</event>
<event>
 6    2  0.1674964E-002  0.1275295E+03  0.7546771E-02  0.1231168E+00
          3   -1    0    0  503    0 -0.00000000000E+00  0.00000000000E+00  0.15118909882E+04  0.15118909882E+04  0.00000000000E+00 0.  1.
         21   -1    0    0  502  503  0.00000000000E+00 -0.00000000000E+00 -0.39845310104E+01  0.39845310104E+01  0.00000000000E+00 0.  1.
         25    2    1    2    0    0  0.25006959628E+02 -0.36884302345E+01  0.11424439264E+04  0.11495398617E+04  0.12499926455E+03 0.  0.
          5    1    3    3  501    0 -0.41188260051E+02  0.14176249073E+02  0.20421507125E+03  0.20880910930E+03  0.10000000000E+00 0. -1.
         -5    1    3    3    0  501  0.66195219679E+02 -0.17864679308E+02  0.93822885519E+03  0.94073075244E+03  0.10000000000E+00 0. -1.
          3    1    1    2  502    0 -0.25006959628E+02  0.36884302345E+01  0.36546253076E+03  0.36633565748E+03  0.00000000000E+00 0.  1.
<mgrwt>
<rscale>  1 0.12752948E+03</rscale>
<asrwt>0</asrwt>
<pdfrwt beam="1">  1       21 0.61300598E-03 0.12752948E+03</pdfrwt>
<pdfrwt beam="2">  1        3 0.23259815E+00 0.12752948E+03</pdfrwt>
<totfact> 0.40691219E+04</totfact>
</mgrwt>
</event>
<event>
 6    2  0.1674964E-002  0.1317015E+03  0.7546771E-02  0.1224953E+00
          1   -1    0    0  503    0 -0.00000000000E+00  0.00000000000E+00  0.57354528115E+03  0.57354528115E+03  0.00000000000E+00 0. -1.
         21   -1    0    0  502  503  0.00000000000E+00 -0.00000000000E+00 -0.13534444829E+02  0.13534444829E+02  0.00000000000E+00 0. -1.
         25    2    1    2    0    0 -0.26100388580E+02 -0.32311676873E+02  0.37472677202E+03  0.39719697471E+03  0.12498003162E+03 0.  0.
          5    1    3    3  501    0 -0.46976282050E+01  0.79925816441E+01 -0.77031393472E+01  0.12053938273E+02  0.10000000000E+00 0. -1.
         -5    1    3    3    0  501 -0.21402760375E+02 -0.40304258517E+02  0.38242991137E+03  0.38514303644E+03  0.10000000000E+00 0. -1.
          1    1    1    2  502    0  0.26100388580E+02  0.32311676873E+02  0.18528406429E+03  0.18988275126E+03  0.00000000000E+00 0. -1.
<mgrwt>
<rscale>  1 0.13170149E+03</rscale>
<asrwt>0</asrwt>
<pdfrwt beam="1">  1       21 0.20822227E-02 0.13170149E+03</pdfrwt>
<pdfrwt beam="2">  1        1 0.88237717E-01 0.13170149E+03</pdfrwt>
<totfact> 0.46910589E+05</totfact>
</mgrwt>
</event>
<event>
 6    2  0.1674964E-002  0.1282000E+03  0.7546771E-02  0.1230151E+00
          1   -1    0    0  503    0 -0.00000000000E+00  0.00000000000E+00  0.34819089788E+03  0.34819089788E+03  0.00000000000E+00 0. -1.
         21   -1    0    0  502  503  0.00000000000E+00 -0.00000000000E+00 -0.31559103131E+02  0.31559103131E+02  0.00000000000E+00 0. -1.
         25    2    1    2    0    0 -0.18986455895E+02  0.21296182562E+02  0.10363202715E+03  0.16484789796E+03  0.12498487713E+03 0.  0.
          5    1    3    3  501    0 -0.50893569403E+02  0.23152432895E+01 -0.38920534963E+01  0.51094753532E+02  0.10000000000E+00 0.  1.
         -5    1    3    3    0  501  0.31907113509E+02  0.18980939273E+02  0.10752408065E+03  0.11375314443E+03  0.10000000000E+00 0.  1.
          1    1    1    2  502    0  0.18986455895E+02 -0.21296182562E+02  0.21299976760E+03  0.21490210305E+03  0.00000000000E+00 0. -1.
<mgrwt>
<rscale>  1 0.12819997E+03</rscale>
<asrwt>0</asrwt>
<pdfrwt beam="1">  1       21 0.48552469E-02 0.12819997E+03</pdfrwt>
<pdfrwt beam="2">  1        1 0.53567828E-01 0.12819997E+03</pdfrwt>
<totfact> 0.22064090E+05</totfact>
</mgrwt>
</event>
<event>
 6    2  0.1674964E-002  0.1929331E+03  0.7546771E-02  0.1155842E+00
          4   -1    0    0  503    0 -0.00000000000E+00  0.00000000000E+00  0.10892803876E+03  0.10892803876E+03  0.00000000000E+00 0. -1.
         21   -1    0    0  502  503  0.00000000000E+00 -0.00000000000E+00 -0.29105598213E+03  0.29105598213E+03  0.00000000000E+00 0. -1.
         25    2    1    2    0    0  0.14502282360E+03 -0.23862256912E+02 -0.16143014085E+03  0.25156089028E+03  0.12498865739E+03 0.  0.
          5    1    3    3  501    0 -0.98126722069E+01 -0.94157427285E+01  0.12343121692E+02  0.18365930416E+02  0.10000000000E+00 0.  1.
         -5    1    3    3    0  501  0.15483549581E+03 -0.14446514183E+02 -0.17377326254E+03  0.23319495987E+03  0.10000000000E+00 0.  1.
          4    1    1    2  502    0 -0.14502282360E+03  0.23862256912E+02 -0.20697802515E+02  0.14842313061E+03  0.00000000000E+00 0. -1.
<mgrwt>
<rscale>  1 0.19293313E+03</rscale>
<asrwt>0</asrwt>
<pdfrwt beam="1">  1       21 0.44777842E-01 0.19293313E+03</pdfrwt>
<pdfrwt beam="2">  1        4 0.16758160E-01 0.19293313E+03</pdfrwt>
<totfact> 0.62387831E+03</totfact>
</mgrwt>
</event>
<event>
 6    2  0.1674964E-002  0.1541679E+03  0.7546771E-02  0.1195443E+00
         21   -1    0    0  502  503  0.00000000000E+00  0.00000000000E+00  0.10179019509E+03  0.10179019509E+03  0.00000000000E+00 0. -1.
          2   -1    0    0  503    0 -0.00000000000E+00 -0.00000000000E+00 -0.17067035460E+04  0.17067035460E+04  0.00000000000E+00 0.  1.
         25    2    1    2    0    0  0.82369371444E+02  0.36841648487E+02  0.41463241377E+02  0.15964629391E+03  0.12500287340E+03 0.  0.
          5    1    3    3  501    0  0.22706560809E+02 -0.46178452985E+02  0.19828323326E+02  0.55147165202E+02  0.10000000000E+00 0. -1.
         -5    1    3    3    0  501  0.59662810635E+02  0.83020101472E+02  0.21634918051E+02  0.10449912871E+03  0.10000000000E+00 0. -1.
          2    1    1    2  502    0 -0.82369371444E+02 -0.36841648487E+02 -0.16463765923E+04  0.16488474471E+04  0.00000000000E+00 0.  1.
<mgrwt>
<rscale>  1 0.15416789E+03</rscale>
<asrwt>0</asrwt>
<pdfrwt beam="1">  1       21 0.15660031E-01 0.15416789E+03</pdfrwt>
<pdfrwt beam="2">  1        2 0.26256977E+00 0.15416789E+03</pdfrwt>
<totfact> 0.50596141E+03</totfact>
</mgrwt>
</event>
<event>
 6    2  0.1674964E-002  0.1259327E+03  0.7546771E-02  0.1233619E+00
          1   -1    0    0  503    0 -0.00000000000E+00  0.00000000000E+00  0.27112495342E+03  0.27112495342E+03  0.00000000000E+00 0. -1.
         21   -1    0    0  502  503  0.00000000000E+00 -0.00000000000E+00 -0.40407232115E+02  0.40407232115E+02  0.00000000000E+00 0.  1.
         25    2    1    2    0    0  0.15320334663E+02  0.11983960329E+01  0.58895624755E+02  0.13902426783E+03  0.12499161421E+03 0.  0.
          5    1    3    3  501    0  0.60835573620E+02  0.32459893567E+02  0.21097236126E+02  0.72109049919E+02  0.10000000000E+00 0.  1.
         -5    1    3    3    0  501 -0.45515238957E+02 -0.31261497534E+02  0.37798388628E+02  0.66915217913E+02  0.10000000000E+00 0.  1.
          1    1    1    2  502    0 -0.15320334663E+02 -0.11983960329E+01  0.17182209655E+03  0.17250791770E+03  0.00000000000E+00 0. -1.
<mgrwt>
<rscale>  1 0.12593273E+03</rscale>
<asrwt>0</asrwt>
<pdfrwt beam="1">  1       21 0.62164974E-02 0.12593273E+03</pdfrwt>
<pdfrwt beam="2">  1        1 0.41711530E-01 0.12593273E+03</pdfrwt>
<totfact> 0.19795950E+05</totfact>
</mgrwt>
</event>
<event>
 6    2  0.1674964E-002  0.1391920E+03  0.7546771E-02  0.1214420E+00
         21   -1    0    0  502  503  0.00000000000E+00  0.00000000000E+00  0.54151960441E+02  0.54151960441E+02  0.00000000000E+00 0. -1.
          2   -1    0    0  503    0 -0.00000000000E+00 -0.00000000000E+00 -0.12094673448E+04  0.12094673448E+04  0.00000000000E+00 0.  1.
         25    2    1    2    0    0 -0.60622876190E+02  0.80083281267E+01 -0.37530320669E+02  0.14416286793E+03  0.12504055775E+03 0.  0.
          5    1    3    3  501    0 -0.74135341591E+02 -0.43205371869E+02 -0.17748022032E+02  0.87622801355E+02  0.10000000000E+00 0.  1.
         -5    1    3    3    0  501  0.13512465401E+02  0.51213699996E+02 -0.19782298637E+02  0.56540066571E+02  0.10000000000E+00 0.  1.
          2    1    1    2  502    0  0.60622876190E+02 -0.80083281267E+01 -0.11177850637E+04  0.11194564374E+04  0.00000000000E+00 0.  1.
<mgrwt>
<rscale>  1 0.13919198E+03</rscale>
<asrwt>0</asrwt>
<pdfrwt beam="1">  1       21 0.83310707E-02 0.13919198E+03</pdfrwt>
<pdfrwt beam="2">  1        2 0.18607190E+00 0.13919198E+03</pdfrwt>
<totfact> 0.28509956E+04</totfact>
</mgrwt>
</event>
<event>
 6    2  0.1674964E-002  0.1446813E+03  0.7546771E-02  0.1207165E+00
         21   -1    0    0  502  503  0.00000000000E+00  0.00000000000E+00  0.72382197603E+03  0.72382197603E+03  0.00000000000E+00 0.  1.
          4   -1    0    0  503    0 -0.00000000000E+00 -0.00000000000E+00 -0.22068251476E+03  0.22068251476E+03  0.00000000000E+00 0.  1.
         25    2    1    2    0    0 -0.61877132104E+02 -0.38460624338E+02  0.71031074392E+03  0.72489588563E+03  0.12499877190E+03 0.  0.
          5    1    3    3  501    0 -0.14949850034E+02 -0.76960817827E+02  0.49588641692E+03  0.50204562938E+03  0.10000000000E+00 0.  1.
         -5    1    3    3    0  501 -0.46927282069E+02  0.38500193489E+02  0.21442432700E+03  0.22285025625E+03  0.10000000000E+00 0.  1.
          4    1    1    2  502    0  0.61877132104E+02  0.38460624338E+02 -0.20717128266E+03  0.21960860516E+03  0.00000000000E+00 0.  1.
<mgrwt>
<rscale>  1 0.14468135E+03</rscale>
<asrwt>0</asrwt>
<pdfrwt beam="1">  1       21 0.11135723E+00 0.14468135E+03</pdfrwt>
<pdfrwt beam="2">  1        4 0.33951156E-01 0.14468135E+03</pdfrwt>
<totfact> 0.22560913E+02</totfact>
</mgrwt>
</event>
<event>
 6    2  0.1674964E-002  0.1870827E+03  0.7546771E-02  0.1161119E+00
         21   -1    0    0  502  503  0.00000000000E+00  0.00000000000E+00  0.18213235563E+03  0.18213235563E+03  0.00000000000E+00 0. -1.
          2   -1    0    0  503    0 -0.00000000000E+00 -0.00000000000E+00 -0.35897659062E+03  0.35897659062E+03  0.00000000000E+00 0.  1.
         25    2    1    2    0    0  0.40962079921E+02  0.13303360013E+03  0.11371256169E+03  0.21893029574E+03  0.12499638775E+03 0.  0.
          5    1    3    3  501    0 -0.21041554400E+02  0.27823168293E+02  0.87262986163E+02  0.93977201808E+02  0.10000000000E+00 0.  1.
         -5    1    3    3    0  501  0.62003634321E+02  0.10521043184E+03  0.26449575522E+02  0.12495309393E+03  0.10000000000E+00 0.  1.
          2    1    1    2  502    0 -0.40962079921E+02 -0.13303360013E+03 -0.29055679668E+03  0.32217865052E+03  0.00000000000E+00 0.  1.
<mgrwt>
<rscale>  1 0.18708268E+03</rscale>
<asrwt>0</asrwt>
<pdfrwt beam="1">  1       21 0.28020363E-01 0.18708268E+03</pdfrwt>
<pdfrwt beam="2">  1        2 0.55227167E-01 0.18708268E+03</pdfrwt>
<totfact> 0.13622517E+04</totfact>
</mgrwt>
</event>
<event>
 6    2  0.1674964E-002  0.1322273E+03  0.7546771E-02  0.1224188E+00
          2   -1    0    0  503    0 -0.00000000000E+00  0.00000000000E+00  0.13076192008E+03  0.13076192008E+03  0.00000000000E+00 0.  1.
         21   -1    0    0  502  503  0.00000000000E+00 -0.00000000000E+00 -0.10669716504E+03  0.10669716504E+03  0.00000000000E+00 0.  1.
         25    2    1    2    0    0 -0.30690417487E+02  0.30300301282E+02 -0.58282029126E+02  0.14450209052E+03  0.12499619699E+03 0.  0.
          5    1    3    3  501    0 -0.35103977030E+02 -0.33254795061E+02  0.11817493678E+02  0.49777844014E+02  0.10000000000E+00 0.  1.
         -5    1    3    3    0  501  0.44135595432E+01  0.63555096343E+02 -0.70099522804E+02  0.94724246507E+02  0.10000000000E+00 0.  1.
          2    1    1    2  502    0  0.30690417487E+02 -0.30300301282E+02  0.82346784168E+02  0.92956994605E+02  0.00000000000E+00 0.  1.
<mgrwt>
<rscale>  1 0.13222730E+03</rscale>
<asrwt>0</asrwt>
<pdfrwt beam="1">  1       21 0.16414948E-01 0.13222730E+03</pdfrwt>
<pdfrwt beam="2">  1        2 0.20117218E-01 0.13222730E+03</pdfrwt>
<totfact> 0.11096362E+05</totfact>
</mgrwt>
</event>
<event>
 6    2  0.1674964E-002  0.1280342E+03  0.7546771E-02  0.1230402E+00
         21   -1    0    0  502  503  0.00000000000E+00  0.00000000000E+00  0.12261420080E+03  0.12261420080E+03  0.00000000000E+00 0.  1.
          2   -1    0    0  503    0 -0.00000000000E+00 -0.00000000000E+00 -0.80713912551E+02  0.80713912551E+02  0.00000000000E+00 0.  1.
         25    2    1    2    0    0 -0.26681241894E+02  0.77620959615E+01  0.83822746240E+02  0.15303267333E+03  0.12498242883E+03 0.  0.
          5    1    3    3  501    0 -0.66456626414E+02 -0.11715826647E+02  0.11833970629E+02  0.68511288480E+02  0.10000000000E+00 0. -1.
         -5    1    3    3    0  501  0.39775384520E+02  0.19477922609E+02  0.71988775612E+02  0.84521384850E+02  0.10000000000E+00 0. -1.
          2    1    1    2  502    0  0.26681241894E+02 -0.77620959615E+01 -0.41922457992E+02  0.50295440020E+02  0.00000000000E+00 0.  1.
<mgrwt>
<rscale>  1 0.12803416E+03</rscale>
<asrwt>0</asrwt>
<pdfrwt beam="1">  1       21 0.18863723E-01 0.12803416E+03</pdfrwt>
<pdfrwt beam="2">  1        2 0.12417525E-01 0.12803416E+03</pdfrwt>
<totfact> 0.15054487E+05</totfact>
</mgrwt>
</event>
<event>
 6    2  0.1674964E-002  0.1331441E+03  0.7546771E-02  0.1222864E+00
          2   -1    0    0  503    0 -0.00000000000E+00  0.00000000000E+00  0.82431355965E+02  0.82431355965E+02  0.00000000000E+00 0.  1.
         21   -1    0    0  502  503  0.00000000000E+00 -0.00000000000E+00 -0.53705811436E+03  0.53705811436E+03  0.00000000000E+00 0.  1.
         25    2    1    2    0    0  0.33525584170E+02 -0.31272068711E+02 -0.52160114360E+03  0.53832620678E+03  0.12500177929E+03 0.  0.
          5    1    3    3  501    0  0.59130967014E+02 -0.24650929212E+02 -0.12152766265E+03  0.13737948304E+03  0.10000000000E+00 0. -1.
         -5    1    3    3    0  501 -0.25605382844E+02 -0.66211394984E+01 -0.40007348095E+03  0.40094672374E+03  0.10000000000E+00 0. -1.
          2    1    1    2  502    0 -0.33525584170E+02  0.31272068711E+02  0.66974385206E+02  0.81163263544E+02  0.00000000000E+00 0.  1.
<mgrwt>
<rscale>  1 0.13314410E+03</rscale>
<asrwt>0</asrwt>
<pdfrwt beam="1">  1       21 0.82624325E-01 0.13314410E+03</pdfrwt>
<pdfrwt beam="2">  1        2 0.12681747E-01 0.13314410E+03</pdfrwt>
<totfact> 0.75203179E+03</totfact>
</mgrwt>
</event>
<event>
 6    2  0.1674964E-002  0.1439859E+03  0.7546771E-02  0.1208064E+00
         21   -1    0    0  502  503  0.00000000000E+00  0.00000000000E+00  0.31777393428E+03  0.31777393428E+03  0.00000000000E+00 0. -1.
          2   -1    0    0  503    0 -0.00000000000E+00 -0.00000000000E+00 -0.39207252296E+02  0.39207252296E+02  0.00000000000E+00 0. -1.
         25    2    1    2    0    0  0.15338394089E+02 -0.69810587413E+02  0.22712118329E+03  0.26891630263E+03  0.12499264568E+03 0.  0.
          5    1    3    3  501    0 -0.30272734833E+02  0.76969074335E+01  0.82768746683E+01  0.32314045129E+02  0.10000000000E+00 0. -1.
         -5    1    3    3    0  501  0.45611128922E+02 -0.77507494847E+02  0.21884430863E+03  0.23660225751E+03  0.10000000000E+00 0. -1.
          2    1    1    2  502    0 -0.15338394089E+02  0.69810587413E+02  0.51445498691E+02  0.88064883943E+02  0.00000000000E+00 0. -1.
<mgrwt>
<rscale>  1 0.14398592E+03</rscale>
<asrwt>0</asrwt>
<pdfrwt beam="1">  1       21 0.48888296E-01 0.14398592E+03</pdfrwt>
<pdfrwt beam="2">  1        2 0.60318852E-02 0.14398592E+03</pdfrwt>
<totfact> 0.58564598E+04</totfact>
</mgrwt>
</event>
<event>
 6    2  0.1674964E-002  0.1524282E+03  0.7546771E-02  0.1197521E+00
         21   -1    0    0  502  503  0.00000000000E+00  0.00000000000E+00  0.52129901545E+03  0.52129901545E+03  0.00000000000E+00 0. -1.
          2   -1    0    0  503    0 -0.00000000000E+00 -0.00000000000E+00 -0.29467368150E+02  0.29467368150E+02  0.00000000000E+00 0. -1.
         25    2    1    2    0    0  0.86561735733E+02 -0.10788277515E+02  0.37631104748E+03  0.40601027835E+03  0.12500008258E+03 0.  0.
          5    1    3    3  501    0  0.18184367773E+02  0.25555881389E+02  0.28308989710E+03  0.28482217987E+03  0.10000000000E+00 0.  1.
         -5    1    3    3    0  501  0.68377367959E+02 -0.36344158904E+02  0.93221150382E+02  0.12118809848E+03  0.10000000000E+00 0.  1.
          2    1    1    2  502    0 -0.86561735733E+02  0.10788277515E+02  0.11552059982E+03  0.14475610525E+03  0.00000000000E+00 0. -1.
<mgrwt>
<rscale>  1 0.15242815E+03</rscale>
<asrwt>0</asrwt>
<pdfrwt beam="1">  1       21 0.80199842E-01 0.15242815E+03</pdfrwt>
<pdfrwt beam="2">  1        2 0.45334416E-02 0.15242815E+03</pdfrwt>
<totfact> 0.29356431E+04</totfact>
</mgrwt>
</event>
<event>
 6    2  0.1674964E-002  0.1263992E+03  0.7546771E-02  0.1232899E+00
          2   -1    0    0  503    0 -0.00000000000E+00  0.00000000000E+00  0.46365884669E+03  0.46365884669E+03  0.00000000000E+00 0. -1.
         21   -1    0    0  502  503  0.00000000000E+00 -0.00000000000E+00 -0.12255907462E+02  0.12255907462E+02  0.00000000000E+00 0. -1.
         25    2    1    2    0    0  0.19620947483E+01 -0.18699704875E+02  0.33596843787E+03  0.35895898096E+03  0.12499291977E+03 0.  0.
          5    1    3    3  501    0 -0.38758204235E+02 -0.13613922016E+02  0.31576617289E+02  0.51813415517E+02  0.10000000000E+00 0.  1.
         -5    1    3    3    0  501  0.40720298983E+02 -0.50857828589E+01  0.30439182058E+03  0.30714556545E+03  0.10000000000E+00 0.  1.
          2    1    1    2  502    0 -0.19620947483E+01  0.18699704875E+02  0.11543450136E+03  0.11695577319E+03  0.00000000000E+00 0. -1.
<mgrwt>
<rscale>  1 0.12639920E+03</rscale>
<asrwt>0</asrwt>
<pdfrwt beam="1">  1       21 0.18855246E-02 0.12639920E+03</pdfrwt>
<pdfrwt beam="2">  1        2 0.71332117E-01 0.12639920E+03</pdfrwt>
<totfact> 0.11118925E+06</totfact>
</mgrwt>
</event>
<event>
 6    2  0.1674964E-002  0.1274863E+03  0.7546771E-02  0.1231234E+00
          2   -1    0    0  503    0 -0.00000000000E+00  0.00000000000E+00  0.59688896924E+03  0.59688896924E+03  0.00000000000E+00 0.  1.
         21   -1    0    0  502  503  0.00000000000E+00 -0.00000000000E+00 -0.41231256367E+03  0.41231256367E+03  0.00000000000E+00 0.  1.
         25    2    1    2    0    0 -0.24693054523E+02 -0.42321433047E+01 -0.40218422805E+03  0.42190629272E+03  0.12500043425E+03 0.  0.
          5    1    3    3  501    0 -0.37987413093E+02  0.61801373808E+01 -0.28623500778E+02  0.47964074559E+02  0.10000000000E+00 0. -1.
         -5    1    3    3    0  501  0.13294358570E+02 -0.10412280685E+02 -0.37356072727E+03  0.37394221816E+03  0.10000000000E+00 0. -1.
          2    1    1    2  502    0  0.24693054523E+02  0.42321433047E+01  0.58676063363E+03  0.58729524019E+03  0.00000000000E+00 0.  1.
<mgrwt>
<rscale>  1 0.12748634E+03</rscale>
<asrwt>0</asrwt>
<pdfrwt beam="1">  1       21 0.63432702E-01 0.12748634E+03</pdfrwt>
<pdfrwt beam="2">  1        2 0.91829072E-01 0.12748634E+03</pdfrwt>
<totfact> 0.15228073E+03</totfact>
</mgrwt>
</event>
<event>
 6    2  0.1674964E-002  0.1315472E+03  0.7546771E-02  0.1225178E+00
          2   -1    0    0  503    0 -0.00000000000E+00  0.00000000000E+00  0.11414530644E+04  0.11414530644E+04  0.00000000000E+00 0. -1.
         21   -1    0    0  502  503  0.00000000000E+00 -0.00000000000E+00 -0.11666684400E+02  0.11666684400E+02  0.00000000000E+00 0. -1.
         25    2    1    2    0    0  0.35625378997E+02 -0.20021139441E+02  0.37822731735E+03  0.40045047328E+03  0.12503865127E+03 0.  0.
          5    1    3    3  501    0  0.36932766203E+02  0.34533809747E+02  0.64218958512E+02  0.81735536136E+02  0.10000000000E+00 0.  1.
         -5    1    3    3    0  501 -0.13073872060E+01 -0.54554949188E+02  0.31400835883E+03  0.31871493715E+03  0.10000000000E+00 0.  1.
          2    1    1    2  502    0 -0.35625378997E+02  0.20021139441E+02  0.75155906262E+03  0.75266927548E+03  0.00000000000E+00 0. -1.
<mgrwt>
<rscale>  1 0.13154725E+03</rscale>
<asrwt>0</asrwt>
<pdfrwt beam="1">  1       21 0.17948754E-02 0.13154725E+03</pdfrwt>
<pdfrwt beam="2">  1        2 0.17560808E+00 0.13154725E+03</pdfrwt>
<totfact> 0.39978677E+05</totfact>
</mgrwt>
</event>
<event>
 6    2  0.1674964E-002  0.1418216E+03  0.7546771E-02  0.1210899E+00
          2   -1    0    0  503    0 -0.00000000000E+00  0.00000000000E+00  0.22824024505E+04  0.22824024505E+04  0.00000000000E+00 0.  1.
         21   -1    0    0  502  503  0.00000000000E+00 -0.00000000000E+00 -0.85784876898E+01  0.85784876898E+01  0.00000000000E+00 0.  1.
         25    2    1    2    0    0  0.65140660664E+02 -0.15709585562E+02  0.62889636575E+03  0.64468907575E+03  0.12499307498E+03 0.  0.
          5    1    3    3  501    0  0.67592979251E+02 -0.60541757380E+02  0.50072921273E+03  0.50888492777E+03  0.10000000000E+00 0. -1.
         -5    1    3    3    0  501 -0.24523185870E+01  0.44832171818E+02  0.12816715301E+03  0.13580414798E+03  0.10000000000E+00 0. -1.
          2    1    1    2  502    0 -0.65140660664E+02  0.15709585562E+02  0.16449275971E+04  0.16462918624E+04  0.00000000000E+00 0.  1.
<mgrwt>
<rscale>  1 0.14182160E+03</rscale>
<asrwt>0</asrwt>
<pdfrwt beam="1">  1       21 0.13197692E-02 0.14182160E+03</pdfrwt>
<pdfrwt beam="2">  1        2 0.35113835E+00 0.14182160E+03</pdfrwt>
<totfact> 0.16616047E+05</totfact>
</mgrwt>
</event>
<event>
 6    2  0.1674964E-002  0.1287899E+03  0.7546771E-02  0.1229262E+00
         21   -1    0    0  502  503  0.00000000000E+00  0.00000000000E+00  0.26769346249E+02  0.26769346249E+02  0.00000000000E+00 0. -1.
          3   -1    0    0  503    0 -0.00000000000E+00 -0.00000000000E+00 -0.14237783725E+04  0.14237783725E+04  0.00000000000E+00 0.  1.
         25    2    1    2    0    0 -0.15906996982E+02  0.26615894733E+02 -0.12943028521E+03  0.18258979233E+03  0.12500158051E+03 0.  0.
          5    1    3    3  501    0  0.24152506256E+02  0.12879887440E+02  0.15598151273E+02  0.31504719996E+02  0.10000000000E+00 0.  1.
         -5    1    3    3    0  501 -0.40059503238E+02  0.13736007293E+02 -0.14502843648E+03  0.15108507234E+03  0.10000000000E+00 0.  1.
          3    1    1    2  502    0  0.15906996982E+02 -0.26615894733E+02 -0.12675787411E+04  0.12679579265E+04  0.00000000000E+00 0.  1.
<mgrwt>
<rscale>  1 0.12878988E+03</rscale>
<asrwt>0</asrwt>
<pdfrwt beam="1">  1       21 0.41183599E-02 0.12878988E+03</pdfrwt>
<pdfrwt beam="2">  1        3 0.21904289E+00 0.12878988E+03</pdfrwt>
<totfact> 0.22897679E+03</totfact>
</mgrwt>
</event>
<event>
 6    2  0.1674964E-002  0.1375554E+03  0.7546771E-02  0.1216657E+00
          3   -1    0    0  503    0 -0.00000000000E+00  0.00000000000E+00  0.44723966077E+02  0.44723966077E+02  0.00000000000E+00 0.  1.
         21   -1    0    0  502  503  0.00000000000E+00 -0.00000000000E+00 -0.23022573762E+03  0.23022573762E+03  0.00000000000E+00 0.  1.
         25    2    1    2    0    0 -0.46285073954E+02  0.33966999674E+02 -0.16300279932E+03  0.21328716330E+03  0.12500174519E+03 0.  0.
          5    1    3    3  501    0  0.41584900097E+02 -0.35656129327E+01 -0.55799060602E+02  0.69681867625E+02  0.10000000000E+00 0. -1.
         -5    1    3    3    0  501 -0.87869974051E+02  0.37532612607E+02 -0.10720373872E+03  0.14360529567E+03  0.10000000000E+00 0. -1.
          3    1    1    2  502    0  0.46285073954E+02 -0.33966999674E+02 -0.22498972219E+02  0.61662540401E+02  0.00000000000E+00 0.  1.
<mgrwt>
<rscale>  1 0.13755545E+03</rscale>
<asrwt>0</asrwt>
<pdfrwt beam="1">  1       21 0.35419345E-01 0.13755545E+03</pdfrwt>
<pdfrwt beam="2">  1        3 0.68806101E-02 0.13755545E+03</pdfrwt>
<totfact> 0.50285715E+04</totfact>
</mgrwt>
</event>
<event>
 6    2  0.1674964E-002  0.1267575E+03  0.7546771E-02  0.1232348E+00
          2   -1    0    0  503    0 -0.00000000000E+00  0.00000000000E+00  0.43601101842E+03  0.43601101842E+03  0.00000000000E+00 0.  1.
         21   -1    0    0  502  503  0.00000000000E+00 -0.00000000000E+00 -0.30164482391E+03  0.30164482391E+03  0.00000000000E+00 0. -1.
         25    2    1    2    0    0 -0.11316177266E+01 -0.20928447507E+02 -0.28805699334E+03  0.31471302100E+03  0.12501269416E+03 0.  0.
          5    1    3    3  501    0  0.30211095895E+02 -0.62820840795E+02 -0.20523062530E+03  0.21674590634E+03  0.10000000000E+00 0.  1.
         -5    1    3    3    0  501 -0.31342713622E+02  0.41892393287E+02 -0.82826368040E+02  0.97967114662E+02  0.10000000000E+00 0.  1.
          2    1    1    2  502    0  0.11316177266E+01  0.20928447507E+02  0.42242318785E+03  0.42294282133E+03  0.00000000000E+00 0.  1.
<mgrwt>
<rscale>  1 0.12675746E+03</rscale>
<asrwt>0</asrwt>
<pdfrwt beam="1">  1       21 0.46406896E-01 0.12675746E+03</pdfrwt>
<pdfrwt beam="2">  1        2 0.67078618E-01 0.12675746E+03</pdfrwt>
<totfact> 0.41353067E+03</totfact>
</mgrwt>
</event>
<event>
 6    2  0.1674964E-002  0.1260665E+03  0.7546771E-02  0.1233412E+00
         21   -1    0    0  502  503  0.00000000000E+00  0.00000000000E+00  0.51286639201E+02  0.51286639201E+02  0.00000000000E+00 0. -1.
          1   -1    0    0  503    0 -0.00000000000E+00 -0.00000000000E+00 -0.30034203476E+03  0.30034203476E+03  0.00000000000E+00 0.  1.
         25    2    1    2    0    0 -0.12118204906E+02 -0.10968348031E+02 -0.26940165260E+02  0.12891286608E+03  0.12500239593E+03 0.  0.
          5    1    3    3  501    0  0.43593295509E+02 -0.11435788018E+02  0.26023268146E+02  0.52042032492E+02  0.10000000000E+00 0. -1.
         -5    1    3    3    0  501 -0.55711500415E+02  0.46743998662E+00 -0.52963433405E+02  0.76870833589E+02  0.10000000000E+00 0. -1.
          1    1    1    2  502    0  0.12118204906E+02  0.10968348031E+02 -0.22211523030E+03  0.22271580788E+03  0.00000000000E+00 0.  1.
<mgrwt>
<rscale>  1 0.12606647E+03</rscale>
<asrwt>0</asrwt>
<pdfrwt beam="1">  1       21 0.78902522E-02 0.12606647E+03</pdfrwt>
<pdfrwt beam="2">  1        1 0.46206467E-01 0.12606647E+03</pdfrwt>
<totfact> 0.11607457E+05</totfact>
</mgrwt>
</event>
<event>
 6    2  0.1674964E-002  0.1291174E+03  0.7546771E-02  0.1228771E+00
          2   -1    0    0  503    0 -0.00000000000E+00  0.00000000000E+00  0.36022454556E+03  0.36022454556E+03  0.00000000000E+00 0. -1.
         21   -1    0    0  502  503  0.00000000000E+00 -0.00000000000E+00 -0.19444981929E+02  0.19444981929E+02  0.00000000000E+00 0. -1.
         25    2    1    2    0    0  0.23721777876E+02 -0.21913082433E+02  0.22442737474E+03  0.25891880167E+03  0.12501357285E+03 0.  0.
          5    1    3    3  501    0 -0.40543014534E+01  0.48464812906E+02  0.12387624611E+03  0.13308121505E+03  0.10000000000E+00 0. -1.
         -5    1    3    3    0  501  0.27776079329E+02 -0.70377895339E+02  0.10055112863E+03  0.12583758661E+03  0.10000000000E+00 0. -1.
          2    1    1    2  502    0 -0.23721777876E+02  0.21913082433E+02  0.11635218889E+03  0.12075072582E+03  0.00000000000E+00 0. -1.
<mgrwt>
<rscale>  1 0.12911739E+03</rscale>
<asrwt>0</asrwt>
<pdfrwt beam="1">  1       21 0.29915359E-02 0.12911739E+03</pdfrwt>
<pdfrwt beam="2">  1        2 0.55419156E-01 0.12911739E+03</pdfrwt>
<totfact> 0.68947619E+05</totfact>
</mgrwt>
</event>
<event>
 6    2  0.1674964E-002  0.1371312E+03  0.7546771E-02  0.1217242E+00
          2   -1    0    0  503    0 -0.00000000000E+00  0.00000000000E+00  0.28418452184E+04  0.28418452184E+04  0.00000000000E+00 0. -1.
         21   -1    0    0  502  503  0.00000000000E+00 -0.00000000000E+00 -0.16563412207E+02  0.16563412207E+02  0.00000000000E+00 0.  1.
         25    2    1    2    0    0 -0.57892701317E+01  0.56091224568E+02  0.27301984565E+03  0.30552381998E+03  0.12500090932E+03 0.  0.
          5    1    3    3  501    0 -0.29507612623E+02  0.29952171945E+02  0.26629354054E+03  0.26959245453E+03  0.10000000000E+00 0. -1.
         -5    1    3    3    0  501  0.23718342491E+02  0.26139052623E+02  0.67263051155E+01  0.35931365450E+02  0.10000000000E+00 0. -1.
          2    1    1    2  502    0  0.57892701317E+01 -0.56091224568E+02  0.25522619605E+04  0.25528848106E+04  0.00000000000E+00 0. -1.
<mgrwt>
<rscale>  1 0.13713121E+03</rscale>
<asrwt>0</asrwt>
<pdfrwt beam="1">  1       21 0.25482195E-02 0.13713121E+03</pdfrwt>
<pdfrwt beam="2">  1        2 0.43720657E+00 0.13713121E+03</pdfrwt>
<totfact> 0.28740915E+04</totfact>
</mgrwt>
</event>
<event>
 6    2  0.1674964E-002  0.1987490E+03  0.7546771E-02  0.1150799E+00
          1   -1    0    0  503    0 -0.00000000000E+00  0.00000000000E+00  0.14554924372E+04  0.14554924372E+04  0.00000000000E+00 0.  1.
         21   -1    0    0  502  503  0.00000000000E+00 -0.00000000000E+00 -0.32726977141E+03  0.32726977141E+03  0.00000000000E+00 0. -1.
         25    2    1    2    0    0 -0.17031334613E+02 -0.15357746748E+03 -0.29251476522E+03  0.35364676444E+03  0.12500016501E+03 0.  0.
          5    1    3    3  501    0  0.50707235339E+02 -0.33212241624E+02 -0.91298079811E+02  0.10958843957E+03  0.10000000000E+00 0.  1.
         -5    1    3    3    0  501 -0.67738569952E+02 -0.12036522585E+03 -0.20121668541E+03  0.24405832488E+03  0.10000000000E+00 0.  1.
          1    1    1    2  502    0  0.17031334613E+02  0.15357746748E+03  0.14207374310E+04  0.14291154442E+04  0.00000000000E+00 0.  1.
<mgrwt>
<rscale>  1 0.19874895E+03</rscale>
<asrwt>0</asrwt>
<pdfrwt beam="1">  1       21 0.50349196E-01 0.19874895E+03</pdfrwt>
<pdfrwt beam="2">  1        1 0.22392191E+00 0.19874895E+03</pdfrwt>
<totfact> 0.32506561E+02</totfact>
</mgrwt>
</event>
<event>
 6    2  0.1674964E-002  0.1267073E+03  0.7546771E-02  0.1232425E+00
          3   -1    0    0  503    0 -0.00000000000E+00  0.00000000000E+00  0.80849304107E+02  0.80849304107E+02  0.00000000000E+00 0. -1.
         21   -1    0    0  502  503  0.00000000000E+00 -0.00000000000E+00 -0.25323775188E+03  0.25323775188E+03  0.00000000000E+00 0. -1.
         25    2    1    2    0    0  0.19032043642E+02  0.81057094133E+01 -0.23563594723E+03  0.26754257915E+03  0.12500724308E+03 0.  0.
          5    1    3    3  501    0 -0.52656701135E+02 -0.72409099748E+01 -0.10726404451E+03  0.11971108635E+03  0.10000000000E+00 0. -1.
         -5    1    3    3    0  501  0.71688744777E+02  0.15346619388E+02 -0.12837190272E+03  0.14783149280E+03  0.10000000000E+00 0. -1.
          3    1    1    2  502    0 -0.19032043642E+02 -0.81057094133E+01  0.63247499455E+02  0.66544476838E+02  0.00000000000E+00 0. -1.
<mgrwt>
<rscale>  1 0.12670727E+03</rscale>
<asrwt>0</asrwt>
<pdfrwt beam="1">  1       21 0.38959654E-01 0.12670727E+03</pdfrwt>
<pdfrwt beam="2">  1        3 0.12438354E-01 0.12670727E+03</pdfrwt>
<totfact> 0.15643404E+04</totfact>
</mgrwt>
</event>
<event>
 6    2  0.1674964E-002  0.1507284E+03  0.7546771E-02  0.1199581E+00
          1   -1    0    0  503    0 -0.00000000000E+00  0.00000000000E+00  0.41547637722E+03  0.41547637722E+03  0.00000000000E+00 0.  1.
         21   -1    0    0  502  503  0.00000000000E+00 -0.00000000000E+00 -0.12605410893E+03  0.12605410893E+03  0.00000000000E+00 0. -1.
         25    2    1    2    0    0 -0.30095808785E+02 -0.78661256480E+02 -0.74397571022E+02  0.16808942459E+03  0.12500282040E+03 0.  0.
          5    1    3    3  501    0 -0.28560231894E+02 -0.90657817164E+02 -0.10110636761E+03  0.13876971654E+03  0.10000000000E+00 0. -1.
         -5    1    3    3    0  501 -0.15355768913E+01  0.11996560684E+02  0.26708796587E+02  0.29319708043E+02  0.10000000000E+00 0. -1.
          1    1    1    2  502    0  0.30095808785E+02  0.78661256480E+02  0.36381983931E+03  0.37344106155E+03  0.00000000000E+00 0.  1.
<mgrwt>
<rscale>  1 0.15072842E+03</rscale>
<asrwt>0</asrwt>
<pdfrwt beam="1">  1       21 0.19392940E-01 0.15072842E+03</pdfrwt>
<pdfrwt beam="2">  1        1 0.63919442E-01 0.15072842E+03</pdfrwt>
<totfact> 0.15619136E+04</totfact>
</mgrwt>
</event>
<event>
 6    2  0.1674964E-002  0.1282640E+03  0.7546771E-02  0.1230055E+00
         21   -1    0    0  502  503  0.00000000000E+00  0.00000000000E+00  0.12290584786E+02  0.12290584786E+02  0.00000000000E+00 0. -1.
          2   -1    0    0  503    0 -0.00000000000E+00 -0.00000000000E+00 -0.50135095832E+03  0.50135095832E+03  0.00000000000E+00 0. -1.
         25    2    1    2    0    0  0.16981445461E+01  0.28680066104E+02 -0.39877854068E+03  0.41889852632E+03  0.12500488374E+03 0.  0.
          5    1    3    3  501    0 -0.26307428351E+02  0.32311105864E+02 -0.38540682823E+03  0.38765257847E+03  0.10000000000E+00 0.  1.
         -5    1    3    3    0  501  0.28005572897E+02 -0.36310397599E+01 -0.13371712450E+02  0.31245947847E+02  0.10000000000E+00 0.  1.
          2    1    1    2  502    0 -0.16981445461E+01 -0.28680066104E+02 -0.90281832850E+02  0.94743016784E+02  0.00000000000E+00 0. -1.
<mgrwt>
<rscale>  1 0.12826399E+03</rscale>
<asrwt>0</asrwt>
<pdfrwt beam="1">  1       21 0.18908593E-02 0.12826399E+03</pdfrwt>
<pdfrwt beam="2">  1        2 0.77130914E-01 0.12826399E+03</pdfrwt>
<totfact> 0.10177723E+06</totfact>
</mgrwt>
</event>
<event>
 6    2  0.1674964E-002  0.1309498E+03  0.7546771E-02  0.1226053E+00
         21   -1    0    0  502  503  0.00000000000E+00  0.00000000000E+00  0.40744618877E+02  0.40744618877E+02  0.00000000000E+00 0.  1.
          1   -1    0    0  503    0 -0.00000000000E+00 -0.00000000000E+00 -0.27972545758E+04  0.27972545758E+04  0.00000000000E+00 0.  1.
         25    2    1    2    0    0  0.17403786975E+01  0.38991942979E+02 -0.64979009529E+02  0.14618526327E+03  0.12499783591E+03 0.  0.
          5    1    3    3  501    0  0.14586609993E+02  0.47713929007E+02 -0.97847193977E+02  0.10983383623E+03  0.10000000000E+00 0. -1.
         -5    1    3    3    0  501 -0.12846231295E+02 -0.87219860279E+01  0.32868184448E+02  0.36351427038E+02  0.10000000000E+00 0. -1.
          1    1    1    2  502    0 -0.17403786975E+01 -0.38991942979E+02 -0.26915309474E+04  0.26918139314E+04  0.00000000000E+00 0.  1.
<mgrwt>
<rscale>  1 0.13094984E+03</rscale>
<asrwt>0</asrwt>
<pdfrwt beam="1">  1       21 0.62684009E-02 0.13094984E+03</pdfrwt>
<pdfrwt beam="2">  1        1 0.43034699E+00 0.13094984E+03</pdfrwt>
<totfact> 0.22114908E+03</totfact>
</mgrwt>
</event>
<event>
 6    2  0.1674964E-002  0.1516445E+03  0.7546771E-02  0.1198467E+00
         21   -1    0    0  502  503  0.00000000000E+00  0.00000000000E+00  0.13519439349E+02  0.13519439349E+02  0.00000000000E+00 0. -1.
          2   -1    0    0  503    0 -0.00000000000E+00 -0.00000000000E+00 -0.34800272015E+04  0.34800272015E+04  0.00000000000E+00 0.  1.
         25    2    1    2    0    0 -0.12464429150E+02  0.84949668196E+02 -0.43232804980E+03  0.45815237734E+03  0.12499700034E+03 0.  0.
          5    1    3    3  501    0 -0.59711283739E+02  0.68912278758E+01 -0.18580151784E+03  0.19528220723E+03  0.10000000000E+00 0.  1.
         -5    1    3    3    0  501  0.47246854589E+02  0.78058440320E+02 -0.24652653196E+03  0.26287017011E+03  0.10000000000E+00 0.  1.
          2    1    1    2  502    0  0.12464429150E+02 -0.84949668196E+02 -0.30341797124E+04  0.30353942636E+04  0.00000000000E+00 0.  1.
<mgrwt>
<rscale>  1 0.15164451E+03</rscale>
<asrwt>0</asrwt>
<pdfrwt beam="1">  1       21 0.20799106E-02 0.15164451E+03</pdfrwt>
<pdfrwt beam="2">  1        2 0.53538962E+00 0.15164451E+03</pdfrwt>
<totfact> 0.16415209E+04</totfact>
</mgrwt>
</event>
<event>
 6    2  0.1674964E-002  0.1271886E+03  0.7546771E-02  0.1231688E+00
         21   -1    0    0  502  503  0.00000000000E+00  0.00000000000E+00  0.50561636307E+01  0.50561636307E+01  0.00000000000E+00 0.  1.
          1   -1    0    0  503    0 -0.00000000000E+00 -0.00000000000E+00 -0.15016992520E+04  0.15016992520E+04  0.00000000000E+00 0.  1.
         25    2    1    2    0    0  0.10391735763E+01 -0.23444637440E+02 -0.82901233801E+03  0.83871234088E+03  0.12500481292E+03 0.  0.
          5    1    3    3  501    0  0.99828330141E+01  0.49933148407E+02 -0.26207763910E+03  0.26697879163E+03  0.10000000000E+00 0. -1.
         -5    1    3    3    0  501 -0.89436594378E+01 -0.73377785847E+02 -0.56693469891E+03  0.57173354924E+03  0.10000000000E+00 0. -1.
          1    1    1    2  502    0 -0.10391735763E+01  0.23444637440E+02 -0.66763075031E+03  0.66804307471E+03  0.00000000000E+00 0.  1.
<mgrwt>
<rscale>  1 0.12718858E+03</rscale>
<asrwt>0</asrwt>
<pdfrwt beam="1">  1       21 0.77787141E-03 0.12718858E+03</pdfrwt>
<pdfrwt beam="2">  1        1 0.23103063E+00 0.12718858E+03</pdfrwt>
<totfact> 0.44772037E+05</totfact>
</mgrwt>
</event>
<event>
 6    2  0.1674964E-002  0.1303001E+03  0.7546771E-02  0.1227011E+00
          2   -1    0    0  503    0 -0.00000000000E+00  0.00000000000E+00  0.84746295457E+03  0.84746295457E+03  0.00000000000E+00 0.  1.
         21   -1    0    0  502  503  0.00000000000E+00 -0.00000000000E+00 -0.85702113214E+01  0.85702113214E+01  0.00000000000E+00 0.  1.
         25    2    1    2    0    0 -0.29918897869E+02  0.21423044553E+02  0.71560324530E+03  0.72736931086E+03  0.12499608957E+03 0.  0.
          5    1    3    3  501    0  0.39711549875E+02  0.30446653690E+02  0.16832781557E+03  0.17560828399E+03  0.10000000000E+00 0. -1.
         -5    1    3    3    0  501 -0.69630447743E+02 -0.90236091373E+01  0.54727542974E+03  0.55176102687E+03  0.10000000000E+00 0. -1.
          2    1    1    2  502    0  0.29918897869E+02 -0.21423044553E+02  0.12328949795E+03  0.12866385503E+03  0.00000000000E+00 0.  1.
<mgrwt>
<rscale>  1 0.13030008E+03</rscale>
<asrwt>0</asrwt>
<pdfrwt beam="1">  1       21 0.13184947E-02 0.13030008E+03</pdfrwt>
<pdfrwt beam="2">  1        2 0.13037885E+00 0.13030008E+03</pdfrwt>
<totfact> 0.98281213E+05</totfact>
</mgrwt>
</event>
<event>
 6    2  0.1674964E-002  0.1466640E+03  0.7546771E-02  0.1204633E+00
         21   -1    0    0  502  503  0.00000000000E+00  0.00000000000E+00  0.32821375251E+03  0.32821375251E+03  0.00000000000E+00 0. -1.
          4   -1    0    0  503    0 -0.00000000000E+00 -0.00000000000E+00 -0.61987365602E+03  0.61987365602E+03  0.00000000000E+00 0.  1.
         25    2    1    2    0    0 -0.27450903526E+01  0.76645162126E+02  0.30926962327E+03  0.34228355202E+03  0.12501325414E+03 0.  0.
          5    1    3    3  501    0  0.44512831946E+02  0.71979432436E+02  0.11802970133E+03  0.14523584715E+03  0.10000000000E+00 0. -1.
         -5    1    3    3    0  501 -0.47257922298E+02  0.46657296909E+01  0.19123992193E+03  0.19704770487E+03  0.10000000000E+00 0. -1.
          4    1    1    2  502    0  0.27450903526E+01 -0.76645162126E+02 -0.60092952678E+03  0.60580385651E+03  0.00000000000E+00 0.  1.
<mgrwt>
<rscale>  1 0.14666400E+03</rscale>
<asrwt>0</asrwt>
<pdfrwt beam="1">  1       21 0.50494423E-01 0.14666400E+03</pdfrwt>
<pdfrwt beam="2">  1        4 0.95365178E-01 0.14666400E+03</pdfrwt>
<totfact> 0.15093884E+02</totfact>
</mgrwt>
</event>
<event>
 6    2  0.1674964E-002  0.1265354E+03  0.7546771E-02  0.1232689E+00
         21   -1    0    0  502  503  0.00000000000E+00  0.00000000000E+00  0.22459193317E+02  0.22459193317E+02  0.00000000000E+00 0. -1.
          2   -1    0    0  503    0 -0.00000000000E+00 -0.00000000000E+00 -0.82107190632E+03  0.82107190632E+03  0.00000000000E+00 0.  1.
         25    2    1    2    0    0 -0.87518812159E+01 -0.17619606863E+02 -0.15712202518E+03  0.20173880572E+03  0.12499667581E+03 0.  0.
          5    1    3    3  501    0 -0.65218064400E+02  0.49224612398E+01 -0.88712005064E+02  0.11021549978E+03  0.10000000000E+00 0. -1.
         -5    1    3    3    0  501  0.56466183184E+02 -0.22542068103E+02 -0.68410020117E+02  0.91523305940E+02  0.10000000000E+00 0. -1.
          2    1    1    2  502    0  0.87518812159E+01  0.17619606863E+02 -0.64149068782E+03  0.64179229392E+03  0.00000000000E+00 0.  1.
<mgrwt>
<rscale>  1 0.12653543E+03</rscale>
<asrwt>0</asrwt>
<pdfrwt beam="1">  1       21 0.34552609E-02 0.12653543E+03</pdfrwt>
<pdfrwt beam="2">  1        2 0.12631874E+00 0.12653543E+03</pdfrwt>
<totfact> 0.21481426E+05</totfact>
</mgrwt>
</event>
<event>
 6    2  0.1674964E-002  0.1262395E+03  0.7546771E-02  0.1233145E+00
          4   -1    0    0  503    0 -0.00000000000E+00  0.00000000000E+00  0.36370131791E+02  0.36370131791E+02  0.00000000000E+00 0. -1.
         21   -1    0    0  502  503  0.00000000000E+00 -0.00000000000E+00 -0.24373354518E+03  0.24373354518E+03  0.00000000000E+00 0. -1.
         25    2    1    2    0    0  0.16981464008E+02 -0.49413995903E+01 -0.22315902688E+03  0.25639104416E+03  0.12499451467E+03 0.  0.
          5    1    3    3  501    0  0.40842955307E+02  0.26834887424E+02 -0.20831571439E+03  0.21397127154E+03  0.10000000000E+00 0.  1.
         -5    1    3    3    0  501 -0.23861491299E+02 -0.31776287015E+02 -0.14843312487E+02  0.42419772619E+02  0.10000000000E+00 0.  1.
          4    1    1    2  502    0 -0.16981464008E+02  0.49413995903E+01  0.15795613486E+02  0.23712632818E+02  0.00000000000E+00 0. -1.
<mgrwt>
<rscale>  1 0.12623952E+03</rscale>
<asrwt>0</asrwt>
<pdfrwt beam="1">  1       21 0.37497468E-01 0.12623952E+03</pdfrwt>
<pdfrwt beam="2">  1        4 0.55954050E-02 0.12623952E+03</pdfrwt>
<totfact> 0.55022547E+04</totfact>
</mgrwt>
</event>
<event>
 6    2  0.1674964E-002  0.1300075E+03  0.7546771E-02  0.1227445E+00
         21   -1    0    0  502  503  0.00000000000E+00  0.00000000000E+00  0.10557758021E+02  0.10557758021E+02  0.00000000000E+00 0.  1.
          1   -1    0    0  503    0 -0.00000000000E+00 -0.00000000000E+00 -0.23927008811E+04  0.23927008811E+04  0.00000000000E+00 0.  1.
         25    2    1    2    0    0  0.22351742224E+02  0.27889161943E+02 -0.39601806384E+03  0.41681202351E+03  0.12499820127E+03 0.  0.
          5    1    3    3  501    0  0.41145348791E+02 -0.10304890877E+02 -0.35557328202E+03  0.35809426049E+03  0.10000000000E+00 0.  1.
         -5    1    3    3    0  501 -0.18793606568E+02  0.38194052820E+02 -0.40444781815E+02  0.58717763025E+02  0.10000000000E+00 0.  1.
          1    1    1    2  502    0 -0.22351742224E+02 -0.27889161943E+02 -0.19861250592E+04  0.19864466156E+04  0.00000000000E+00 0.  1.
<mgrwt>
<rscale>  1 0.13000752E+03</rscale>
<asrwt>0</asrwt>
<pdfrwt beam="1">  1       21 0.16242710E-02 0.13000752E+03</pdfrwt>
<pdfrwt beam="2">  1        1 0.36810771E+00 0.13000752E+03</pdfrwt>
<totfact> 0.37727751E+04</totfact>
</mgrwt>
</event>
<event>
 6    2  0.1674964E-002  0.1263918E+03  0.7546771E-02  0.1232910E+00
         21   -1    0    0  502  503  0.00000000000E+00  0.00000000000E+00  0.11282779647E+02  0.11282779647E+02  0.00000000000E+00 0.  1.
          1   -1    0    0  503    0 -0.00000000000E+00 -0.00000000000E+00 -0.12137748676E+04  0.12137748676E+04  0.00000000000E+00 0. -1.
         25    2    1    2    0    0  0.30219476994E+01  0.18424137450E+02 -0.34600564676E+03  0.36836773546E+03  0.12500519961E+03 0.  0.
          5    1    3    3  501    0 -0.53235605658E+02 -0.15232785371E+02 -0.21305356808E+03  0.22013155233E+03  0.10000000000E+00 0. -1.
         -5    1    3    3    0  501  0.56257553358E+02  0.33656922821E+02 -0.13295207869E+03  0.14823618314E+03  0.10000000000E+00 0. -1.
          1    1    1    2  502    0 -0.30219476994E+01 -0.18424137450E+02 -0.85648644118E+03  0.85668991178E+03  0.00000000000E+00 0. -1.
<mgrwt>
<rscale>  1 0.12639178E+03</rscale>
<asrwt>0</asrwt>
<pdfrwt beam="1">  1       21 0.17358129E-02 0.12639178E+03</pdfrwt>
<pdfrwt beam="2">  1        1 0.18673453E+00 0.12639178E+03</pdfrwt>
<totfact> 0.19466505E+05</totfact>
</mgrwt>
</event>
<event>
 6    2  0.1674964E-002  0.1570760E+03  0.7546771E-02  0.1192038E+00
          1   -1    0    0  503    0 -0.00000000000E+00  0.00000000000E+00  0.39989069664E+03  0.39989069664E+03  0.00000000000E+00 0. -1.
         21   -1    0    0  502  503  0.00000000000E+00 -0.00000000000E+00 -0.84329408485E+02  0.84329408485E+02  0.00000000000E+00 0.  1.
         25    2    1    2    0    0  0.48639067218E+02 -0.81751021832E+02  0.25749116945E+01  0.15709710031E+03  0.12499552122E+03 0.  0.
          5    1    3    3  501    0 -0.21033243756E+02 -0.58613258815E+02  0.40680478296E+02  0.74382946743E+02  0.10000000000E+00 0.  1.
         -5    1    3    3    0  501  0.69672310974E+02 -0.23137763017E+02 -0.38105566602E+02  0.82714153565E+02  0.10000000000E+00 0.  1.
          1    1    1    2  502    0 -0.48639067218E+02  0.81751021832E+02  0.31298637646E+03  0.32712300481E+03  0.00000000000E+00 0. -1.
<mgrwt>
<rscale>  1 0.15707600E+03</rscale>
<asrwt>0</asrwt>
<pdfrwt beam="1">  1       21 0.12973755E-01 0.15707600E+03</pdfrwt>
<pdfrwt beam="2">  1        1 0.61521645E-01 0.15707600E+03</pdfrwt>
<totfact> 0.34060645E+04</totfact>
</mgrwt>
</event>
<event>
 6    2  0.1674964E-002  0.1289150E+03  0.7546771E-02  0.1229075E+00
          2   -1    0    0  503    0 -0.00000000000E+00  0.00000000000E+00  0.70489403026E+03  0.70489403026E+03  0.00000000000E+00 0.  1.
         21   -1    0    0  502  503  0.00000000000E+00 -0.00000000000E+00 -0.17007866529E+02  0.17007866529E+02  0.00000000000E+00 0. -1.
         25    2    1    2    0    0  0.45721076065E+01  0.31230328592E+02  0.23599868994E+03  0.26891345703E+03  0.12499131219E+03 0.  0.
          5    1    3    3  501    0  0.81976449462E+01  0.55340293769E+02  0.34035992237E+02  0.65484412379E+02  0.10000000000E+00 0. -1.
         -5    1    3    3    0  501 -0.36255373398E+01 -0.24109965176E+02  0.20196269771E+03  0.20342904465E+03  0.10000000000E+00 0. -1.
          2    1    1    2  502    0 -0.45721076065E+01 -0.31230328592E+02  0.45188747379E+03  0.45298843976E+03  0.00000000000E+00 0.  1.
<mgrwt>
<rscale>  1 0.12891496E+03</rscale>
<asrwt>0</asrwt>
<pdfrwt beam="1">  1       21 0.26165954E-02 0.12891496E+03</pdfrwt>
<pdfrwt beam="2">  1        2 0.10844521E+00 0.12891496E+03</pdfrwt>
<totfact> 0.40846317E+05</totfact>
</mgrwt>
</event>
<event>
 6    2  0.1674964E-002  0.1296841E+03  0.7546771E-02  0.1227925E+00
         21   -1    0    0  502  503  0.00000000000E+00  0.00000000000E+00  0.12719894099E+03  0.12719894099E+03  0.00000000000E+00 0. -1.
          2   -1    0    0  503    0 -0.00000000000E+00 -0.00000000000E+00 -0.15239487893E+03  0.15239487893E+03  0.00000000000E+00 0. -1.
         25    2    1    2    0    0 -0.26878961570E+02  0.21648880664E+02  0.90970044196E+02  0.15840929940E+03  0.12500721814E+03 0.  0.
          5    1    3    3  501    0 -0.45586141106E+02 -0.23310023577E+02  0.96659392963E+02  0.10938236470E+03  0.10000000000E+00 0. -1.
         -5    1    3    3    0  501  0.18707179536E+02  0.44958904241E+02 -0.56893487672E+01  0.49026934700E+02  0.10000000000E+00 0. -1.
          2    1    1    2  502    0  0.26878961570E+02 -0.21648880664E+02 -0.11616598213E+03  0.12118452052E+03  0.00000000000E+00 0. -1.
<mgrwt>
<rscale>  1 0.12968407E+03</rscale>
<asrwt>0</asrwt>
<pdfrwt beam="1">  1       21 0.19569068E-01 0.12968407E+03</pdfrwt>
<pdfrwt beam="2">  1        2 0.23445366E-01 0.12968407E+03</pdfrwt>
<totfact> 0.67726678E+04</totfact>
</mgrwt>
</event>
<event>
 6    2  0.1674964E-002  0.1293095E+03  0.7546771E-02  0.1228484E+00
         21   -1    0    0  502  503  0.00000000000E+00  0.00000000000E+00  0.84700983458E+01  0.84700983458E+01  0.00000000000E+00 0.  1.
          2   -1    0    0  503    0 -0.00000000000E+00 -0.00000000000E+00 -0.81288006621E+03  0.81288006621E+03  0.00000000000E+00 0.  1.
         25    2    1    2    0    0  0.22696185530E+02  0.24069667153E+02 -0.69936209060E+03  0.71121605435E+03  0.12500590575E+03 0.  0.
          5    1    3    3  501    0 -0.28169529907E+02 -0.31337225050E+02 -0.41288692973E+03  0.41503152992E+03  0.10000000000E+00 0.  1.
         -5    1    3    3    0  501  0.50865715437E+02  0.55406892202E+02 -0.28647516087E+03  0.29618452442E+03  0.10000000000E+00 0.  1.
          2    1    1    2  502    0 -0.22696185530E+02 -0.24069667153E+02 -0.10504787726E+03  0.11013411021E+03  0.00000000000E+00 0.  1.
<mgrwt>
<rscale>  1 0.12930948E+03</rscale>
<asrwt>0</asrwt>
<pdfrwt beam="1">  1       21 0.13030923E-02 0.12930948E+03</pdfrwt>
<pdfrwt beam="2">  1        2 0.12505845E+00 0.12930948E+03</pdfrwt>
<totfact> 0.10547164E+06</totfact>
</mgrwt>
</event>
<event>
 6    2  0.1674964E-002  0.1259344E+03  0.7546771E-02  0.1233616E+00
         21   -1    0    0  502  503  0.00000000000E+00  0.00000000000E+00  0.28801359500E+03  0.28801359500E+03  0.00000000000E+00 0. -1.
          2   -1    0    0  503    0 -0.00000000000E+00 -0.00000000000E+00 -0.76500854718E+03  0.76500854718E+03  0.00000000000E+00 0. -1.
         25    2    1    2    0    0 -0.14950003865E+02  0.32114249232E+01  0.27416581727E+03  0.30170575249E+03  0.12500259941E+03 0.  0.
          5    1    3    3  501    0 -0.35663635060E+02  0.35759557847E+02  0.25241197838E+03  0.25741495231E+03  0.10000000000E+00 0.  1.
         -5    1    3    3    0  501  0.20713631196E+02 -0.32548132924E+02  0.21753838891E+02  0.44290800181E+02  0.10000000000E+00 0.  1.
          2    1    1    2  502    0  0.14950003865E+02 -0.32114249232E+01 -0.75116076944E+03  0.75131638969E+03  0.00000000000E+00 0. -1.
<mgrwt>
<rscale>  1 0.12593437E+03</rscale>
<asrwt>0</asrwt>
<pdfrwt beam="1">  1       21 0.44309783E-01 0.12593437E+03</pdfrwt>
<pdfrwt beam="2">  1        2 0.11769362E+00 0.12593437E+03</pdfrwt>
<totfact> 0.24046965E+03</totfact>
</mgrwt>
</event>
<event>
 6    2  0.1674964E-002  0.1270185E+03  0.7546771E-02  0.1231948E+00
          1   -1    0    0  503    0 -0.00000000000E+00  0.00000000000E+00  0.82516105990E+02  0.82516105990E+02  0.00000000000E+00 0.  1.
         21   -1    0    0  502  503  0.00000000000E+00 -0.00000000000E+00 -0.13431339949E+04  0.13431339949E+04  0.00000000000E+00 0. -1.
         25    2    1    2    0    0 -0.22507512365E+02  0.19763306938E+01 -0.13385222711E+04  0.13445354489E+04  0.12499283645E+03 0.  0.
          5    1    3    3  501    0 -0.15480540426E+02  0.51018743744E+02 -0.10796100642E+04  0.10809257422E+04  0.10000000000E+00 0. -1.
         -5    1    3    3    0  501 -0.70269719392E+01 -0.49042413051E+02 -0.25891220682E+03  0.26360970668E+03  0.10000000000E+00 0. -1.
          1    1    1    2  502    0  0.22507512365E+02 -0.19763306938E+01  0.77904382205E+02  0.81114651960E+02  0.00000000000E+00 0.  1.
<mgrwt>
<rscale>  1 0.12701852E+03</rscale>
<asrwt>0</asrwt>
<pdfrwt beam="1">  1       21 0.20663598E+00 0.12701852E+03</pdfrwt>
<pdfrwt beam="2">  1        1 0.12694787E-01 0.12701852E+03</pdfrwt>
<totfact> 0.63885014E+02</totfact>
</mgrwt>
</event>
<event>
 6    2  0.1674964E-002  0.1262335E+03  0.7546771E-02  0.1233154E+00
         21   -1    0    0  502  503  0.00000000000E+00  0.00000000000E+00  0.75471684509E+02  0.75471684509E+02  0.00000000000E+00 0. -1.
          3   -1    0    0  503    0 -0.00000000000E+00 -0.00000000000E+00 -0.62910089789E+03  0.62910089789E+03  0.00000000000E+00 0.  1.
         25    2    1    2    0    0 -0.94385556820E+00  0.17601296273E+02  0.22458105897E+02  0.12821566527E+03  0.12499677518E+03 0.  0.
          5    1    3    3  501    0  0.33552884638E+02 -0.37112078348E+02 -0.16532370908E+02  0.52691856246E+02  0.10000000000E+00 0. -1.
         -5    1    3    3    0  501 -0.34496740206E+02  0.54713374621E+02  0.38990476806E+02  0.75523809019E+02  0.10000000000E+00 0. -1.
          3    1    1    2  502    0  0.94385556820E+00 -0.17601296273E+02 -0.57608731928E+03  0.57635691713E+03  0.00000000000E+00 0.  1.
<mgrwt>
<rscale>  1 0.12623348E+03</rscale>
<asrwt>0</asrwt>
<pdfrwt beam="1">  1       21 0.11611028E-01 0.12623348E+03</pdfrwt>
<pdfrwt beam="2">  1        3 0.96784753E-01 0.12623348E+03</pdfrwt>
<totfact> 0.29722325E+03</totfact>
</mgrwt>
</event>
<event>
 6    2  0.1674964E-002  0.1284809E+03  0.7546771E-02  0.1229727E+00
          2   -1    0    0  503    0 -0.00000000000E+00  0.00000000000E+00  0.43256292462E+03  0.43256292462E+03  0.00000000000E+00 0.  1.
         21   -1    0    0  502  503  0.00000000000E+00 -0.00000000000E+00 -0.22118515223E+02  0.22118515223E+02  0.00000000000E+00 0. -1.
         25    2    1    2    0    0 -0.28708788996E+02  0.68140689709E+01  0.17342393303E+03  0.21583141929E+03  0.12504685083E+03 0.  0.
          5    1    3    3  501    0 -0.32792765205E+02  0.30684810260E+02  0.18400256006E+03  0.18940399980E+03  0.10000000000E+00 0.  1.
         -5    1    3    3    0  501  0.40839762082E+01 -0.23870741289E+02 -0.10578627027E+02  0.26427419495E+02  0.10000000000E+00 0.  1.
          2    1    1    2  502    0  0.28708788996E+02 -0.68140689709E+01  0.23702047636E+03  0.23885002055E+03  0.00000000000E+00 0.  1.
<mgrwt>
<rscale>  1 0.12848090E+03</rscale>
<asrwt>0</asrwt>
<pdfrwt beam="1">  1       21 0.34028488E-02 0.12848090E+03</pdfrwt>
<pdfrwt beam="2">  1        2 0.66548136E-01 0.12848090E+03</pdfrwt>
<totfact> 0.45877000E+05</totfact>
</mgrwt>
</event>
<event>
 6    2  0.1674964E-002  0.1268242E+03  0.7546771E-02  0.1232246E+00
         21   -1    0    0  502  503  0.00000000000E+00  0.00000000000E+00  0.11332609518E+03  0.11332609518E+03  0.00000000000E+00 0. -1.
          4   -1    0    0  503    0 -0.00000000000E+00 -0.00000000000E+00 -0.90262513177E+02  0.90262513177E+02  0.00000000000E+00 0.  1.
         25    2    1    2    0    0  0.67337108654E+01  0.20329565487E+02  0.75048191493E+02  0.14736553730E+03  0.12500294574E+03 0.  0.
          5    1    3    3  501    0  0.58705790838E+01 -0.48700513730E+02  0.54819274178E+01  0.49358537909E+02  0.10000000000E+00 0. -1.
         -5    1    3    3    0  501  0.86313178155E+00  0.69030079216E+02  0.69566264075E+02  0.98006999395E+02  0.10000000000E+00 0. -1.
          4    1    1    2  502    0 -0.67337108654E+01 -0.20329565487E+02 -0.51984609490E+02  0.56223071054E+02  0.00000000000E+00 0.  1.
<mgrwt>
<rscale>  1 0.12682417E+03</rscale>
<asrwt>0</asrwt>
<pdfrwt beam="1">  1       21 0.17434784E-01 0.12682417E+03</pdfrwt>
<pdfrwt beam="2">  1        4 0.13886540E-01 0.12682417E+03</pdfrwt>
<totfact> 0.51636116E+04</totfact>
</mgrwt>
</event>
<event>
 6    2  0.1674964E-002  0.1305371E+03  0.7546771E-02  0.1226661E+00
          1   -1    0    0  503    0 -0.00000000000E+00  0.00000000000E+00  0.64882234126E+03  0.64882234126E+03  0.00000000000E+00 0. -1.
         21   -1    0    0  502  503  0.00000000000E+00 -0.00000000000E+00 -0.33088654936E+02  0.33088654936E+02  0.00000000000E+00 0. -1.
         25    2    1    2    0    0 -0.18933694912E+02  0.32547002591E+02  0.99063040630E+02  0.16387012107E+03  0.12498855299E+03 0.  0.
          5    1    3    3  501    0  0.12614520911E+02  0.47641245663E+02 -0.91681515457E+01  0.50128628836E+02  0.10000000000E+00 0.  1.
         -5    1    3    3    0  501 -0.31548215823E+02 -0.15094243073E+02  0.10823119218E+03  0.11374149223E+03  0.10000000000E+00 0.  1.
          1    1    1    2  502    0  0.18933694912E+02 -0.32547002591E+02  0.51667064569E+03  0.51804087513E+03  0.00000000000E+00 0. -1.
<mgrwt>
<rscale>  1 0.13053708E+03</rscale>
<asrwt>0</asrwt>
<pdfrwt beam="1">  1       21 0.50905628E-02 0.13053708E+03</pdfrwt>
<pdfrwt beam="2">  1        1 0.99818812E-01 0.13053708E+03</pdfrwt>
<totfact> 0.90858270E+04</totfact>
</mgrwt>
</event>
<event>
 6    2  0.1674964E-002  0.1437473E+03  0.7546771E-02  0.1208374E+00
          1   -1    0    0  503    0 -0.00000000000E+00  0.00000000000E+00  0.86197212532E+03  0.86197212532E+03  0.00000000000E+00 0. -1.
         21   -1    0    0  502  503  0.00000000000E+00 -0.00000000000E+00 -0.29076020347E+02  0.29076020347E+02  0.00000000000E+00 0. -1.
         25    2    1    2    0    0  0.69553041509E+02  0.14398421030E+02  0.16272535891E+03  0.21712398896E+03  0.12497337332E+03 0.  0.
          5    1    3    3  501    0 -0.18688208251E+02  0.44162447172E+02  0.36506756348E+02  0.60268765765E+02  0.10000000000E+00 0.  1.
         -5    1    3    3    0  501  0.88241249761E+02 -0.29764026142E+02  0.12621860257E+03  0.15685522320E+03  0.10000000000E+00 0.  1.
          1    1    1    2  502    0 -0.69553041509E+02 -0.14398421030E+02  0.67017074606E+03  0.67392415670E+03  0.00000000000E+00 0. -1.
<mgrwt>
<rscale>  1 0.14374729E+03</rscale>
<asrwt>0</asrwt>
<pdfrwt beam="1">  1       21 0.44732345E-02 0.14374729E+03</pdfrwt>
<pdfrwt beam="2">  1        1 0.13261108E+00 0.14374729E+03</pdfrwt>
<totfact> 0.74453404E+04</totfact>
</mgrwt>
</event>
<event>
 6    2  0.1674964E-002  0.1259809E+03  0.7546771E-02  0.1233544E+00
          1   -1    0    0  503    0 -0.00000000000E+00  0.00000000000E+00  0.23903447225E+03  0.23903447225E+03  0.00000000000E+00 0.  1.
         21   -1    0    0  502  503  0.00000000000E+00 -0.00000000000E+00 -0.23076620880E+02  0.23076620880E+02  0.00000000000E+00 0.  1.
         25    2    1    2    0    0 -0.19211865622E+01  0.15563726887E+02  0.15804368047E+03  0.20211132861E+03  0.12500105464E+03 0.  0.
          5    1    3    3  501    0 -0.63938227721E+01  0.54849298216E+02  0.15249393385E+03  0.16218426664E+03  0.10000000000E+00 0.  1.
         -5    1    3    3    0  501  0.44726362099E+01 -0.39285571329E+02  0.55497466199E+01  0.39927061961E+02  0.10000000000E+00 0.  1.
          1    1    1    2  502    0  0.19211865622E+01 -0.15563726887E+02  0.57914170894E+02  0.59999764522E+02  0.00000000000E+00 0.  1.
<mgrwt>
<rscale>  1 0.12598089E+03</rscale>
<asrwt>0</asrwt>
<pdfrwt beam="1">  1       21 0.35502495E-02 0.12598089E+03</pdfrwt>
<pdfrwt beam="2">  1        1 0.36774533E-01 0.12598089E+03</pdfrwt>
<totfact> 0.59052141E+05</totfact>
</mgrwt>
</event>
<event>
 6    2  0.1674964E-002  0.1290838E+03  0.7546771E-02  0.1228822E+00
         21   -1    0    0  502  503  0.00000000000E+00  0.00000000000E+00  0.10405249615E+02  0.10405249615E+02  0.00000000000E+00 0.  1.
          2   -1    0    0  503    0 -0.00000000000E+00 -0.00000000000E+00 -0.15245527374E+04  0.15245527374E+04  0.00000000000E+00 0.  1.
         25    2    1    2    0    0 -0.31977931175E+02 -0.38416169108E+01 -0.39932193087E+03  0.41966727672E+03  0.12500109031E+03 0.  0.
          5    1    3    3  501    0 -0.18798267043E+02  0.13374487801E+02 -0.39721361338E+03  0.39788304365E+03  0.10000000000E+00 0.  1.
         -5    1    3    3    0  501 -0.13179664133E+02 -0.17216104712E+02 -0.21083174874E+01  0.21784233077E+02  0.10000000000E+00 0.  1.
          2    1    1    2  502    0  0.31977931175E+02  0.38416169108E+01 -0.11148255569E+04  0.11152907103E+04  0.00000000000E+00 0.  1.
<mgrwt>
<rscale>  1 0.12908377E+03</rscale>
<asrwt>0</asrwt>
<pdfrwt beam="1">  1       21 0.16008085E-02 0.12908377E+03</pdfrwt>
<pdfrwt beam="2">  1        2 0.23454645E+00 0.12908377E+03</pdfrwt>
<totfact> 0.29909892E+05</totfact>
</mgrwt>
</event>
<event>
 6    2  0.1674964E-002  0.1278124E+03  0.7546771E-02  0.1230738E+00
          2   -1    0    0  503    0 -0.00000000000E+00  0.00000000000E+00  0.72303050402E+03  0.72303050402E+03  0.00000000000E+00 0.  1.
         21   -1    0    0  502  503  0.00000000000E+00 -0.00000000000E+00 -0.20160264685E+02  0.20160264685E+02  0.00000000000E+00 0.  1.
         25    2    1    2    0    0 -0.14613625416E+01  0.26608960347E+02  0.18627082119E+03  0.22590445419E+03  0.12500332494E+03 0.  0.
          5    1    3    3  501    0 -0.58169074102E+02  0.18182121136E+02  0.13836868735E+03  0.15119568232E+03  0.10000000000E+00 0.  1.
         -5    1    3    3    0  501  0.56707711561E+02  0.84268392108E+01  0.47902133835E+02  0.74708771878E+02  0.10000000000E+00 0.  1.
          2    1    1    2  502    0  0.14613625416E+01 -0.26608960347E+02  0.51659941814E+03  0.51728631451E+03  0.00000000000E+00 0.  1.
<mgrwt>
<rscale>  1 0.12781238E+03</rscale>
<asrwt>0</asrwt>
<pdfrwt beam="1">  1       21 0.31015797E-02 0.12781238E+03</pdfrwt>
<pdfrwt beam="2">  1        2 0.11123544E+00 0.12781238E+03</pdfrwt>
<totfact> 0.29990862E+05</totfact>
</mgrwt>
</event>
<event>
 6    2  0.1674964E-002  0.1264840E+03  0.7546771E-02  0.1232768E+00
          1   -1    0    0  503    0 -0.00000000000E+00  0.00000000000E+00  0.63536936626E+02  0.63536936626E+02  0.00000000000E+00 0. -1.
         21   -1    0    0  502  503  0.00000000000E+00 -0.00000000000E+00 -0.39409367094E+03  0.39409367094E+03  0.00000000000E+00 0.  1.
         25    2    1    2    0    0  0.10625969307E+02  0.16123296585E+02 -0.38215221229E+03  0.40254008875E+03  0.12500135109E+03 0.  0.
          5    1    3    3  501    0 -0.49511494900E+02 -0.22773882226E+02 -0.18042834939E+03  0.18847927499E+03  0.10000000000E+00 0. -1.
         -5    1    3    3    0  501  0.60137464207E+02  0.38897178811E+02 -0.20172386290E+03  0.21406081376E+03  0.10000000000E+00 0. -1.
          1    1    1    2  502    0 -0.10625969307E+02 -0.16123296585E+02  0.51595477975E+02  0.55090518821E+02  0.00000000000E+00 0. -1.
<mgrwt>
<rscale>  1 0.12648403E+03</rscale>
<asrwt>0</asrwt>
<pdfrwt beam="1">  1       21 0.60629795E-01 0.12648403E+03</pdfrwt>
<pdfrwt beam="2">  1        1 0.97749135E-02 0.12648403E+03</pdfrwt>
<totfact> 0.17896458E+04</totfact>
</mgrwt>
</event>
<event>
 6    2  0.1674964E-002  0.1512000E+03  0.7546771E-02  0.1199006E+00
          3   -1    0    0  503    0 -0.00000000000E+00  0.00000000000E+00  0.50577537806E+03  0.50577537806E+03  0.00000000000E+00 0.  1.
         21   -1    0    0  502  503  0.00000000000E+00 -0.00000000000E+00 -0.47603942186E+02  0.47603942186E+02  0.00000000000E+00 0.  1.
         25    2    1    2    0    0  0.43527128272E+02 -0.73094153601E+02  0.90980450199E+02  0.17646210633E+03  0.12499626581E+03 0.  0.
          5    1    3    3  501    0  0.40490936278E+01 -0.51265917819E+02 -0.21144282534E+02  0.55602879179E+02  0.10000000000E+00 0.  1.
         -5    1    3    3    0  501  0.39478034644E+02 -0.21828235781E+02  0.11212473273E+03  0.12085922715E+03  0.10000000000E+00 0.  1.
          3    1    1    2  502    0 -0.43527128272E+02  0.73094153601E+02  0.36719098567E+03  0.37691721392E+03  0.00000000000E+00 0.  1.
<mgrwt>
<rscale>  1 0.15119998E+03</rscale>
<asrwt>0</asrwt>
<pdfrwt beam="1">  1       21 0.73236838E-02 0.15119998E+03</pdfrwt>
<pdfrwt beam="2">  1        3 0.77811593E-01 0.15119998E+03</pdfrwt>
<totfact> 0.10825757E+04</totfact>
</mgrwt>
</event>
<event>
 6    2  0.1674964E-002  0.1572844E+03  0.7546771E-02  0.1191797E+00
         21   -1    0    0  502  503  0.00000000000E+00  0.00000000000E+00  0.10479481924E+02  0.10479481924E+02  0.00000000000E+00 0.  1.
          1   -1    0    0  503    0 -0.00000000000E+00 -0.00000000000E+00 -0.21224553334E+04  0.21224553334E+04  0.00000000000E+00 0.  1.
         25    2    1    2    0    0 -0.57744996485E+02  0.76026413715E+02 -0.17954134006E+04  0.18022895590E+04  0.12499550137E+03 0.  0.
          5    1    3    3  501    0  0.16682764127E+02 -0.24336589871E+02 -0.49801525136E+03  0.49888854949E+03  0.10000000000E+00 0. -1.
         -5    1    3    3    0  501 -0.74427760612E+02  0.10036300359E+03 -0.12973981492E+04  0.13034010095E+04  0.10000000000E+00 0. -1.
          1    1    1    2  502    0  0.57744996485E+02 -0.76026413715E+02 -0.31656245093E+03  0.33064525634E+03  0.00000000000E+00 0.  1.
<mgrwt>
<rscale>  1 0.15728438E+03</rscale>
<asrwt>0</asrwt>
<pdfrwt beam="1">  1       21 0.16122291E-02 0.15728438E+03</pdfrwt>
<pdfrwt beam="2">  1        1 0.32653137E+00 0.15728438E+03</pdfrwt>
<totfact> 0.56621491E+04</totfact>
</mgrwt>
</event>
<event>
 6    2  0.1674964E-002  0.1270337E+03  0.7546771E-02  0.1231925E+00
          2   -1    0    0  503    0 -0.00000000000E+00  0.00000000000E+00  0.45645692199E+03  0.45645692199E+03  0.00000000000E+00 0. -1.
         21   -1    0    0  502  503  0.00000000000E+00 -0.00000000000E+00 -0.16809071955E+02  0.16809071955E+02  0.00000000000E+00 0. -1.
         25    2    1    2    0    0 -0.15720336299E+02 -0.16277036073E+02  0.23297596428E+03  0.26535894924E+03  0.12500200451E+03 0.  0.
          5    1    3    3  501    0 -0.65808997354E+02  0.35301315820E+01  0.17093089508E+03  0.18319570643E+03  0.10000000000E+00 0. -1.
         -5    1    3    3    0  501  0.50088661056E+02 -0.19807167655E+02  0.62045069204E+02  0.82163242812E+02  0.10000000000E+00 0. -1.
          2    1    1    2  502    0  0.15720336299E+02  0.16277036073E+02  0.20667188575E+03  0.20790704470E+03  0.00000000000E+00 0. -1.
<mgrwt>
<rscale>  1 0.12703374E+03</rscale>
<asrwt>0</asrwt>
<pdfrwt beam="1">  1       21 0.25860114E-02 0.12703374E+03</pdfrwt>
<pdfrwt beam="2">  1        2 0.70224132E-01 0.12703374E+03</pdfrwt>
<totfact> 0.67835477E+05</totfact>
</mgrwt>
</event>
<event>
 6    2  0.1674964E-002  0.1295587E+03  0.7546771E-02  0.1228112E+00
         21   -1    0    0  502  503  0.00000000000E+00  0.00000000000E+00  0.12182919729E+02  0.12182919729E+02  0.00000000000E+00 0.  1.
          2   -1    0    0  503    0 -0.00000000000E+00 -0.00000000000E+00 -0.14381977084E+04  0.14381977084E+04  0.00000000000E+00 0.  1.
         25    2    1    2    0    0 -0.30517069125E+02 -0.15111434403E+02 -0.34024698120E+03  0.36407893030E+03  0.12500324923E+03 0.  0.
          5    1    3    3  501    0  0.31273157899E+02  0.95806348289E+01 -0.24904029143E+03  0.25117897150E+03  0.10000000000E+00 0.  1.
         -5    1    3    3    0  501 -0.61790227024E+02 -0.24692069232E+02 -0.91206689765E+02  0.11289995880E+03  0.10000000000E+00 0.  1.
          2    1    1    2  502    0  0.30517069125E+02  0.15111434403E+02 -0.10857678074E+04  0.10863016978E+04  0.00000000000E+00 0.  1.
<mgrwt>
<rscale>  1 0.12955871E+03</rscale>
<asrwt>0</asrwt>
<pdfrwt beam="1">  1       21 0.18742942E-02 0.12955871E+03</pdfrwt>
<pdfrwt beam="2">  1        2 0.22126133E+00 0.12955871E+03</pdfrwt>
<totfact> 0.25756698E+05</totfact>
</mgrwt>
</event>
<event>
 6    2  0.1674964E-002  0.1431303E+03  0.7546771E-02  0.1209178E+00
          4   -1    0    0  503    0 -0.00000000000E+00  0.00000000000E+00  0.93395561399E+02  0.93395561399E+02  0.00000000000E+00 0. -1.
         21   -1    0    0  502  503  0.00000000000E+00 -0.00000000000E+00 -0.37110539698E+03  0.37110539698E+03  0.00000000000E+00 0. -1.
         25    2    1    2    0    0  0.56697543800E+02 -0.40574789998E+02 -0.34132465712E+03  0.37011997207E+03  0.12500138844E+03 0.  0.
          5    1    3    3  501    0  0.29389439887E+02  0.22076503065E+02 -0.20481969279E+02  0.42078881044E+02  0.10000000000E+00 0.  1.
         -5    1    3    3    0  501  0.27308103914E+02 -0.62651293062E+02 -0.32084268784E+03  0.32804109103E+03  0.10000000000E+00 0.  1.
          4    1    1    2  502    0 -0.56697543800E+02  0.40574789998E+02  0.63614821540E+02  0.94380986305E+02  0.00000000000E+00 0. -1.
<mgrwt>
<rscale>  1 0.14313026E+03</rscale>
<asrwt>0</asrwt>
<pdfrwt beam="1">  1       21 0.57093138E-01 0.14313026E+03</pdfrwt>
<pdfrwt beam="2">  1        4 0.14368548E-01 0.14313026E+03</pdfrwt>
<totfact> 0.48623373E+03</totfact>
</mgrwt>
</event>
<event>
 6    2  0.1674964E-002  0.1357720E+03  0.7546771E-02  0.1219134E+00
          2   -1    0    0  503    0 -0.00000000000E+00  0.00000000000E+00  0.14971542725E+04  0.14971542725E+04  0.00000000000E+00 0. -1.
         21   -1    0    0  502  503  0.00000000000E+00 -0.00000000000E+00 -0.12810571452E+02  0.12810571452E+02  0.00000000000E+00 0.  1.
         25    2    1    2    0    0  0.31369561535E+02 -0.42708825369E+02  0.36608598220E+03  0.39045226299E+03  0.12500372058E+03 0.  0.
          5    1    3    3  501    0 -0.48180643805E+02 -0.24884912881E+02  0.14283668254E+03  0.15278403453E+03  0.10000000000E+00 0.  1.
         -5    1    3    3    0  501  0.79550205340E+02 -0.17823912488E+02  0.22324929966E+03  0.23766822847E+03  0.10000000000E+00 0.  1.
          2    1    1    2  502    0 -0.31369561535E+02  0.42708825369E+02  0.11182577188E+04  0.11195125809E+04  0.00000000000E+00 0. -1.
<mgrwt>
<rscale>  1 0.13577195E+03</rscale>
<asrwt>0</asrwt>
<pdfrwt beam="1">  1       21 0.19708583E-02 0.13577195E+03</pdfrwt>
<pdfrwt beam="2">  1        2 0.23033129E+00 0.13577195E+03</pdfrwt>
<totfact> 0.22145079E+05</totfact>
</mgrwt>
</event>
